/*--------------------------------*- C++ -*----------------------------------*\
| =========                 |                                                 |
| \\      /  F ield         | OpenFOAM: The Open Source CFD Toolbox           |
|  \\    /   O peration     | Version:  v2012                                 |
|   \\  /    A nd           | Website:  www.openfoam.com                      |
|    \\/     M anipulation  |                                                 |
\*---------------------------------------------------------------------------*/
FoamFile
{
    version     2.0;
    format      ascii;
    class       surfaceScalarField;
    location    "0.45";
    object      alphaPhi0.water;
}
// * * * * * * * * * * * * * * * * * * * * * * * * * * * * * * * * * * * * * //

dimensions      [0 3 -1 0 0 0 0];
oriented        oriented;


internalField   nonuniform List<scalar> 
13152
(
1.01684e-06
2.03144e-05
-1.68837e-06
-1.96429e-05
1.87408e-05
-1.7082e-05
-6.41983e-07
-3.46393e-06
4.25191e-05
-3.46473e-05
3.54218e-05
-2.46283e-06
2.12056e-05
-7.54958e-05
2.85259e-05
-2.44023e-05
6.04837e-05
-1.60897e-05
-2.95593e-05
-2.84568e-05
7.41058e-05
3.83522e-07
-1.67633e-05
2.90086e-07
-2.99282e-05
7.52422e-07
7.83655e-06
5.1542e-06
-2.97541e-05
7.803e-06
3.23641e-07
-5.08727e-06
-1.55665e-05
-2.98613e-05
-8.6557e-06
-1.46381e-05
-5.13673e-06
2.84305e-05
-7.48776e-08
-8.66661e-06
8.57875e-08
-1.41583e-05
-5.54682e-07
5.66864e-06
-3.05691e-05
1.62338e-05
-2.93236e-05
2.98555e-05
2.93784e-05
-4.9984e-07
3.47969e-08
-1.52777e-05
-2.99239e-05
9.74792e-08
-7.49557e-05
3.24866e-07
1.59947e-05
3.02349e-05
-5.45072e-08
7.46601e-05
3.57755e-05
1.26623e-05
2.54107e-05
-7.38484e-05
3.86292e-07
-7.42863e-07
3.6132e-05
1.24066e-05
2.65533e-07
-1.87342e-05
7.36599e-05
7.78816e-05
2.91511e-05
-7.43226e-07
-2.93859e-05
9.78075e-07
-1.64129e-05
-2.68654e-05
7.24294e-05
1.6554e-07
-1.73217e-05
-8.08141e-06
8.01304e-06
2.33908e-07
5.30813e-06
-3.07113e-05
-4.96537e-06
-1.3887e-05
-2.90432e-05
-1.37858e-05
1.32734e-07
2.91629e-05
2.52429e-07
4.61536e-05
1.72599e-06
-8.81205e-06
-2.03484e-05
-2.00371e-05
3.74191e-06
6.28977e-05
-1.36104e-05
-3.87198e-06
-2.50279e-05
-1.4899e-05
4.63544e-05
-2.44592e-06
-3.14543e-05
4.66747e-06
-3.67381e-06
-1.44513e-05
2.14153e-06
-1.21103e-06
-6.7661e-06
-6.04837e-06
-1.29099e-05
-3.57379e-12
2.16979e-11
-4.30642e-12
-1.89932e-11
3.53323e-11
-3.88017e-11
-3.014e-11
-1.40743e-11
-7.99998e-11
1.99279e-11
2.59807e-11
-1.50144e-10
1.85496e-11
-1.06354e-11
-1.27362e-10
1.0549e-10
-1.97526e-10
-1.0065e-65
-1.35316e-65
-2.02793e-66
7.21694e-70
-5.41208e-16
1.0276e-16
7.44332e-16
5.34572e-16
3.00348e-54
2.23956e-53
-1.39438e-16
1.0711e-15
1.30366e-65
-7.67208e-54
-5.85511e-66
1.01553e-69
3.40729e-17
-5.12373e-19
-2.37423e-18
-3.60054e-17
2.62879e-17
3.68764e-19
-2.34232e-18
4.35028e-20
-5.26987e-20
4.86401e-18
-4.6064e-17
-3.73266e-20
2.34922e-18
-1.86373e-16
-4.13129e-17
1.10064e-20
-1.04822e-19
-1.84468e-16
8.66541e-09
-2.47218e-09
3.72559e-10
-1.44778e-08
-6.25179e-09
2.84046e-09
1.12909e-07
-3.404e-09
-5.53323e-09
-1.9994e-09
-7.30018e-09
2.74164e-08
-8.19937e-09
6.45696e-09
-9.82396e-09
-1.95275e-09
-2.2764e-08
-1.13479e-07
3.19591e-08
9.68792e-08
-2.41139e-08
3.07669e-07
5.15658e-08
-5.24964e-07
9.76261e-08
1.66532e-07
-1.80259e-07
-3.21473e-08
3.04803e-07
-1.86589e-07
-2.36763e-08
2.31253e-07
-3.08246e-07
2.94333e-07
-2.37977e-05
-1.4997e-05
-1.03845e-05
4.90977e-05
2.9211e-07
-3.28155e-05
8.71777e-06
-1.69713e-05
1.87326e-06
2.71365e-05
1.07854e-05
-5.49139e-05
2.45919e-05
3.86886e-06
3.68572e-05
-5.88907e-05
5.10652e-05
-5.27384e-06
-1.00878e-05
-4.67585e-06
1.98168e-05
2.19955e-07
1.00063e-06
-8.69537e-06
-1.1753e-05
2.12334e-06
-1.07443e-05
8.53177e-06
2.42005e-06
4.73613e-06
-2.47095e-05
1.28242e-05
-2.02682e-05
1.61514e-05
5.59533e-06
1.63532e-07
-6.07696e-06
1.89063e-07
-8.50436e-06
-3.59207e-06
1.98912e-05
1.26058e-06
-1.69565e-05
-5.56345e-06
-2.17916e-05
2.31273e-05
-2.22319e-05
1.04195e-05
-2.74609e-05
5.32325e-06
-7.82643e-05
1.32705e-05
1.19488e-05
1.64561e-05
-4.73197e-05
-8.24579e-07
2.73376e-06
7.77875e-06
1.46578e-06
5.66744e-06
8.69782e-06
1.10845e-05
1.48878e-06
1.02858e-05
1.44063e-05
5.76307e-76
-3.76988e-21
-1.55862e-17
1.559e-17
-5.19984e-76
-3.61648e-76
-4.49231e-76
-2.62856e-19
1.46205e-18
2.62504e-71
6.79888e-69
1.13502e-70
2.2827e-71
3.42297e-72
-4.99283e-19
3.76656e-19
-1.8763e-17
1.90415e-05
4.44238e-07
-1.87705e-05
-1.68479e-07
-2.31832e-05
-2.61254e-05
6.81871e-05
-2.91329e-07
-2.23377e-05
-2.40671e-05
2.57954e-05
-1.95994e-06
1.96431e-05
-6.58121e-05
-3.49536e-06
3.1634e-06
-2.03701e-06
-6.74828e-42
-5.70321e-41
6.25796e-41
3.60649e-41
-3.62982e-41
1.37525e-40
5.11296e-41
6.45829e-41
1.61468e-40
6.14027e-21
-6.14027e-21
-4.38988e-41
-2.79395e-20
3.31952e-20
3.244e-18
-3.25015e-18
1.35653e-18
5.64109e-12
-5.65503e-12
-2.76682e-13
2.61392e-13
-2.40827e-11
-4.57382e-12
4.1419e-11
-1.15766e-11
1.77147e-13
4.81025e-13
6.53587e-13
-1.39269e-12
3.90135e-13
3.37657e-13
-2.6248e-12
7.93527e-13
-3.8192e-12
1.54451e-12
6.72501e-12
-5.4296e-13
-3.67441e-12
5.42609e-12
-2.61302e-13
2.40916e-12
-4.08983e-14
1.35487e-11
1.05789e-12
-2.12377e-13
-9.44759e-13
7.47943e-13
3.49102e-12
-6.02484e-13
2.1722e-12
-1.57969e-12
2.50267e-13
-9.36936e-13
2.05111e-12
-1.20168e-12
-1.19219e-12
1.67338e-12
8.39981e-13
2.39937e-12
-4.26372e-12
8.01409e-15
-3.48584e-12
4.36255e-12
-2.01404e-12
3.18617e-12
-4.40203e-12
4.98969e-12
-4.47307e-12
-4.37717e-13
-1.05306e-13
2.14835e-13
5.62969e-13
1.63307e-13
-4.91805e-15
-4.47843e-13
-2.10521e-14
2.12533e-13
-4.52817e-14
1.93557e-14
2.43303e-13
1.48675e-14
-6.25899e-14
1.25349e-13
-5.83832e-14
-7.77535e-14
4.55334e-14
3.11644e-13
3.1451e-14
-7.237e-14
9.66621e-14
-1.11961e-13
4.30388e-15
1.67675e-13
-8.1794e-15
1.04477e-13
1.30436e-13
-3.95257e-13
8.58959e-14
3.39228e-15
-1.02321e-13
-9.55839e-14
-1.5024e-13
1.37989e-13
-1.84204e-14
1.60142e-15
-2.46239e-14
-9.65548e-15
8.87313e-16
2.35264e-14
-4.25903e-15
2.80182e-15
6.84609e-15
-1.7955e-14
1.64661e-14
1.1553e-15
-3.0135e-15
2.22892e-14
2.08754e-14
6.165e-15
7.87818e-16
-3.74513e-14
-7.02987e-15
7.3267e-14
-1.76381e-14
-1.41314e-15
2.40493e-14
-3.26582e-14
4.64048e-14
-7.98037e-20
5.66915e-18
1.05456e-17
-5.55233e-19
1.14176e-19
1.22569e-20
-1.49297e-19
7.14042e-19
3.10625e-17
-8.77005e-20
1.25929e-17
1.2299e-18
2.88653e-19
-3.47816e-19
1.56892e-16
-1.76018e-18
-1.55669e-16
-4.34169e-17
1.24345e-16
-3.40637e-18
1.21526e-17
-5.20657e-18
-3.79239e-20
-2.83274e-21
-3.60954e-23
4.07923e-20
-1.2894e-21
-1.06436e-20
4.30099e-20
1.25158e-22
-4.24651e-21
4.82406e-20
-3.98338e-21
-3.07789e-20
-3.56999e-22
6.69492e-22
-3.59278e-21
5.37846e-22
1.17114e-17
-5.63411e-17
-2.91941e-17
3.24833e-16
-5.0789e-17
2.29137e-16
-2.76281e-17
5.04962e-17
-1.22112e-16
8.30763e-16
-7.2416e-17
-7.62069e-16
-3.7846e-16
1.69939e-15
6.29257e-17
-3.20021e-17
6.62067e-17
-1.95293e-17
-1.9946e-18
8.74477e-17
9.00106e-18
3.04983e-17
1.74985e-18
-4.15494e-17
2.03687e-17
8.41027e-18
-9.3356e-18
-1.29962e-18
-3.06109e-19
-5.97106e-22
3.84668e-18
-2.98935e-18
2.14259e-17
4.88507e-20
4.53157e-20
4.4766e-20
-1.29165e-19
-1.09167e-21
1.3651e-20
1.74241e-20
1.82522e-20
-6.1051e-22
-2.0323e-20
-9.91472e-21
3.92504e-20
-2.89228e-20
-4.48796e-24
4.13186e-21
-4.76462e-23
2.46834e-21
-2.49812e-21
4.95779e-22
1.70618e-20
-4.40737e-20
4.50806e-21
7.979e-20
-8.70819e-20
4.70928e-21
2.58891e-23
-5.49829e-20
-3.95565e-20
8.87448e-20
-2.55668e-18
-2.9087e-19
2.83061e-18
-1.45455e-17
1.06137e-18
-4.2434e-20
1.56966e-17
1.82055e-16
-4.48512e-16
5.52698e-21
1.15649e-20
1.54886e-17
1.52139e-19
-9.48702e-18
1.68592e-18
7.45009e-19
9.60685e-17
-3.70743e-16
-1.76679e-18
9.22211e-18
2.66538e-20
1.37532e-19
-2.55125e-20
-5.11692e-20
2.61477e-20
-3.23034e-19
-1.75894e-20
5.1035e-19
-2.12607e-19
-4.38245e-20
9.08602e-20
1.34932e-20
-3.29463e-19
6.07981e-20
-2.38894e-19
2.62495e-19
-2.8726e-19
1.49097e-16
1.70016e-15
-3.63679e-17
9.8747e-16
1.78492e-16
1.23779e-19
-3.38741e-17
-3.52577e-17
3.16214e-15
-2.8933e-17
3.4676e-17
-1.73409e-19
3.74105e-17
-1.02187e-16
4.37512e-18
-6.25357e-18
4.11583e-18
6.67143e-14
-3.43004e-14
-6.04377e-14
3.74218e-15
-2.03714e-13
-3.45042e-14
-1.4161e-13
8.51359e-14
7.39933e-14
1.10132e-14
-1.58132e-13
5.31163e-14
8.64637e-15
1.33686e-14
2.67669e-14
-3.47747e-14
1.65291e-14
4.43896e-14
-3.08723e-14
2.59024e-14
-1.47474e-13
8.13046e-13
1.14e-13
-1.45287e-13
-4.67519e-13
-1.72456e-12
-1.54414e-12
-3.23936e-11
-3.06063e-12
-3.21997e-13
-9.92821e-13
1.41325e-12
-1.99914e-12
-1.97139e-11
1.01305e-11
-8.4623e-11
1.66956e-10
-1.88064e-11
-9.25197e-11
8.72509e-11
-1.02446e-10
-1.14181e-11
3.47051e-10
-9.12824e-11
-1.64305e-11
1.9574e-10
4.83329e-12
-2.46618e-10
2.95902e-11
3.20023e-10
-3.0694e-10
3.91404e-10
-3.31568e-10
-5.06482e-06
1.80882e-06
4.62406e-06
-1.22616e-06
6.30073e-06
1.68693e-06
-1.29454e-05
3.88759e-06
4.75128e-06
-3.00036e-06
6.67378e-06
1.00542e-06
8.50925e-06
-9.75422e-06
2.76923e-06
-2.86259e-05
2.81577e-05
-1.03655e-05
1.82737e-05
4.55606e-06
-2.51304e-05
1.08679e-06
-2.87512e-06
-1.75714e-07
4.65466e-06
-1.62992e-06
9.35066e-06
8.09291e-07
-1.30677e-05
-2.17538e-06
1.12361e-05
3.24798e-06
1.36019e-05
-1.60886e-05
1.81032e-05
-1.02332e-05
2.6769e-05
-1.54633e-05
5.56401e-05
-2.78518e-05
-1.28042e-05
-2.22896e-05
7.39768e-05
4.25842e-07
-2.30941e-05
-4.98757e-07
-1.42956e-05
1.63821e-06
1.29556e-05
6.32222e-06
-3.36975e-05
1.24175e-05
1.96277e-06
6.40572e-05
-2.63285e-05
-6.11429e-05
-3.95578e-05
8.12061e-05
6.24415e-06
-2.62968e-05
-2.0881e-05
7.02029e-06
9.04629e-06
-2.92387e-05
-4.94068e-06
-1.08783e-05
6.63894e-07
3.20375e-05
-2.89078e-05
-4.136e-06
1.48807e-05
-1.36186e-05
8.77136e-07
-2.60147e-05
7.46639e-05
5.89249e-06
3.34474e-06
-2.24301e-05
6.72175e-06
3.63168e-07
-4.80127e-06
-1.40697e-05
-2.9756e-05
1.83627e-09
4.06273e-10
7.58546e-10
-3.23994e-09
-2.51194e-10
2.84993e-09
4.66818e-10
-1.2521e-10
2.00335e-09
-2.44624e-09
-8.27905e-11
5.78818e-09
1.20151e-09
-2.93957e-09
5.41526e-09
-2.16317e-08
1.48973e-08
7.47938e-06
5.24219e-07
-8.2514e-06
-5.10073e-07
-5.46527e-07
-7.21354e-07
8.21246e-06
-1.13999e-08
-4.59439e-10
7.26194e-07
-4.56374e-07
-8.39232e-06
-3.08848e-08
5.40201e-08
1.23112e-08
2.12019e-08
-3.83673e-08
1.86499e-08
8.41319e-11
-2.30907e-08
1.0614e-08
-4.58208e-07
-8.33759e-08
-1.95897e-09
2.171e-09
1.42406e-08
2.40168e-08
1.35268e-07
-3.61065e-07
7.82721e-09
-3.47381e-08
2.54191e-08
-4.72509e-07
2.15648e-07
-5.97568e-08
3.85706e-08
4.58116e-07
-7.9469e-07
2.97109e-07
-6.56289e-09
-2.90265e-08
-8.09744e-09
4.82671e-08
-1.0609e-08
1.38764e-08
-9.83099e-09
-2.14613e-08
-1.83759e-08
-3.07935e-08
2.78185e-09
4.18875e-08
7.94896e-11
-4.07044e-08
2.26359e-08
-4.18269e-08
1.95062e-08
1.8918e-08
4.20071e-10
3.40804e-08
-5.06172e-08
-2.32986e-08
2.50739e-08
2.25489e-08
3.17829e-08
3.1308e-08
-2.76048e-08
6.67178e-08
-4.16382e-08
1.0494e-07
1.35502e-08
-7.04091e-08
2.91421e-08
-3.38979e-08
5.56837e-09
-7.74916e-08
7.51907e-08
-1.14222e-07
-6.68817e-08
3.8615e-09
8.76892e-08
-3.03118e-08
2.22817e-07
1.43825e-07
-4.40506e-07
1.91889e-07
2.41441e-08
-2.15709e-08
3.22861e-08
7.49789e-08
2.49374e-07
-1.29589e-07
-4.14633e-06
-5.75705e-07
2.19183e-06
-1.19561e-05
5.9594e-06
1.05104e-06
-1.2387e-05
5.33064e-07
5.61681e-06
4.06613e-08
-6.48818e-06
6.4349e-07
-7.42512e-06
-3.87309e-06
1.48771e-05
1.48922e-06
-1.20763e-05
-8.26973e-06
-3.26527e-05
3.67566e-05
-3.95986e-05
1.28113e-05
-3.76096e-05
5.60971e-06
-9.0236e-05
-3.9317e-06
-2.23397e-06
7.31571e-06
-8.06819e-07
-4.55012e-06
3.61053e-06
-3.82819e-06
1.29454e-05
-2.9356e-05
-1.16462e-06
-4.4163e-05
-1.03079e-05
2.76879e-05
2.36177e-05
-7.20445e-05
1.4717e-05
2.72301e-05
-3.2192e-06
-4.11102e-06
-9.37288e-07
6.98368e-06
-2.85921e-07
-3.61425e-06
-7.1886e-09
-3.87137e-06
-1.16456e-06
1.10468e-05
6.78079e-07
-1.67535e-05
1.52996e-05
-6.24997e-06
2.83411e-06
-7.92547e-06
1.25183e-05
-3.17052e-08
-3.51536e-08
-8.7766e-09
7.56244e-08
-1.77856e-09
-3.33497e-08
3.41946e-09
-3.67713e-08
-6.13738e-10
1.28351e-07
3.50365e-08
-2.01429e-07
2.44812e-08
1.01585e-07
6.14025e-08
-2.00519e-07
7.70213e-08
1.02042e-08
3.90781e-08
-9.98281e-09
-4.15607e-08
4.07234e-09
-1.64342e-09
6.80342e-09
2.30722e-08
1.94508e-08
5.52744e-09
5.1683e-09
-8.51714e-08
-3.87623e-09
2.2901e-08
7.6178e-09
8.94691e-09
-1.1781e-08
-3.01606e-09
3.43561e-08
-7.54109e-09
2.74172e-08
-8.74353e-09
-3.16899e-08
-1.24453e-07
-6.72702e-08
2.57974e-07
-1.70593e-07
-5.32514e-07
5.99312e-07
-8.76691e-08
-1.49542e-07
2.30896e-08
2.84868e-07
-4.86629e-07
4.8394e-08
-6.2157e-07
3.96827e-07
-6.3304e-07
3.98067e-07
-1.32977e-09
4.37365e-09
-2.44828e-08
4.16873e-08
3.0877e-09
-9.98389e-10
-3.54366e-09
-3.79506e-08
8.35473e-08
1.93994e-10
4.92543e-10
-1.77229e-09
1.12404e-08
-7.71266e-09
-5.17661e-11
6.38297e-10
-1.18948e-10
5.33054e-09
5.83298e-09
1.98539e-10
-1.07664e-09
-2.05017e-08
1.11703e-07
-1.17626e-07
7.83557e-09
-4.34985e-10
-6.07391e-07
-6.14429e-08
8.42306e-07
-6.35261e-09
-7.77181e-07
-6.55238e-09
2.6393e-09
1.3363e-08
3.32249e-09
-1.08868e-08
6.90421e-09
-6.55821e-08
2.66624e-09
1.3744e-06
-3.93373e-05
-1.27593e-06
3.924e-05
-4.04219e-05
3.73859e-05
4.41085e-06
3.73001e-05
-0.000117059
4.22582e-05
-3.7757e-05
-5.85303e-06
-3.63387e-05
0.000117795
-2.98152e-06
4.02926e-06
-3.43788e-06
2.67233e-13
-2.28867e-13
1.24186e-12
-1.69006e-12
-8.64036e-13
4.75986e-13
3.37828e-13
-1.78765e-13
-1.11906e-12
-6.03073e-12
5.23395e-13
6.46139e-12
-8.75382e-14
-8.06763e-12
-3.59725e-12
5.28762e-12
-3.11167e-12
2.88364e-11
1.769e-11
-3.14757e-10
-6.08644e-11
-6.54991e-12
-1.95673e-11
4.91799e-13
-7.10675e-11
5.58782e-12
-3.20798e-10
-1.66424e-12
5.82427e-11
3.18361e-10
-3.28022e-09
4.93507e-11
-5.01535e-10
1.38103e-11
4.53987e-10
2.22255e-09
-9.30511e-10
-4.76926e-09
5.42265e-09
-7.15798e-09
5.22901e-09
-3.5413e-09
1.35608e-08
-5.57838e-09
1.25837e-08
-1.41199e-09
1.55984e-09
-7.16062e-09
9.38142e-09
-6.63762e-09
2.66529e-08
2.26536e-08
-3.40328e-09
-1.85203e-08
8.57927e-10
-6.9735e-08
-2.84299e-09
1.11856e-07
1.61374e-09
-8.20198e-09
7.95044e-09
-3.80947e-09
-2.23495e-08
-1.62982e-08
2.89058e-08
-2.2838e-08
4.77052e-08
-3.62088e-10
3.45563e-09
-3.24359e-08
-4.99403e-09
4.59352e-08
-4.63045e-09
2.75478e-07
2.72067e-09
-1.28831e-07
-1.09628e-07
-1.66163e-07
-3.83001e-08
4.91809e-07
-3.84641e-10
-1.37433e-07
-6.47113e-07
4.1539e-08
6.96489e-07
1.43432e-07
-9.39619e-07
-2.07036e-07
1.99307e-07
-2.64393e-07
-4.71543e-07
-2.29757e-08
-1.3835e-07
1.4728e-06
9.3034e-07
2.59765e-06
-4.14392e-06
6.39949e-07
-1.99271e-09
6.79004e-07
-9.13932e-07
-8.85705e-08
-3.44877e-07
2.74119e-06
3.86945e-07
2.23782e-06
2.4047e-06
5.0391e-09
6.95695e-08
-4.50643e-08
-9.79714e-08
7.93902e-08
-1.02168e-07
5.29406e-11
-1.09169e-06
1.6162e-06
-4.59236e-07
1.96585e-07
8.65953e-07
-4.11936e-06
7.86473e-07
-4.90602e-08
5.85579e-07
-2.66306e-07
-3.06538e-06
4.39487e-08
2.98256e-06
-4.98104e-06
4.75156e-06
-2.98418e-07
3.77446e-06
-1.21022e-05
1.28669e-06
-8.57598e-07
-2.04092e-07
-1.29684e-06
5.47905e-06
-6.57616e-07
4.02536e-06
2.17205e-06
1.34274e-06
3.45555e-06
9.13922e-07
-5.53049e-06
-6.13399e-08
1.41955e-06
3.65587e-08
3.45527e-06
2.09012e-08
6.54965e-07
4.94418e-06
-4.50159e-06
3.74079e-06
-1.75796e-06
-5.20214e-06
-5.44488e-08
-1.99403e-06
-4.84722e-06
1.20624e-05
-1.12833e-07
-1.82908e-06
-2.23559e-08
-4.15081e-06
-1.27169e-07
-1.54052e-06
-1.06709e-05
-6.8921e-09
-1.52297e-08
-2.10464e-09
2.16725e-08
-2.49369e-09
-2.03776e-08
8.59501e-09
4.20622e-10
-3.09323e-08
2.97067e-08
-3.81164e-08
-1.59633e-08
-2.64461e-08
4.96489e-08
-5.93476e-08
4.64547e-09
-1.41252e-07
2.23851e-09
8.54065e-09
-2.06711e-08
-3.28676e-10
3.21289e-09
-9.7571e-09
6.49996e-09
-9.96957e-09
1.75933e-08
3.80774e-08
9.10769e-08
-1.59023e-07
3.1743e-08
-1.27937e-09
-1.27661e-09
8.02887e-08
7.68887e-09
-2.09047e-08
1.27844e-08
6.11714e-08
-5.40023e-10
-2.05405e-10
1.61249e-09
3.28369e-11
7.23846e-09
7.29113e-10
-7.29486e-09
6.25651e-09
-5.17447e-09
-1.76865e-10
-3.99567e-11
1.81468e-09
-1.50267e-10
6.45749e-12
-8.84772e-11
-6.89724e-10
7.52304e-10
-2.61976e-10
3.19467e-11
6.74573e-10
-1.98537e-10
6.74065e-09
-1.09465e-09
-6.89639e-10
-2.16355e-10
3.13118e-10
-6.83133e-10
-1.64962e-10
-2.22377e-10
-2.35818e-10
2.87919e-11
-3.73122e-10
-2.59972e-10
-3.83241e-12
1.71731e-12
4.0644e-10
-8.90514e-10
2.16522e-11
-1.52826e-11
1.17808e-10
-3.85484e-11
-6.01579e-11
1.8736e-10
-5.86587e-11
-1.38654e-10
-1.82351e-10
-1.10857e-10
-3.37033e-11
1.25817e-11
-1.19907e-11
3.43342e-11
-1.21617e-10
9.68259e-11
-2.26672e-10
1.91217e-11
-5.92904e-13
-8.17446e-13
7.65727e-13
5.72202e-13
-3.50216e-13
3.29695e-12
-1.9315e-12
8.08772e-13
-2.6072e-12
-3.12861e-13
-8.79167e-13
1.91265e-12
-1.72436e-12
1.28313e-12
-1.25114e-13
-4.35704e-13
-3.32e-13
-1.36803e-12
-9.65908e-13
-6.52794e-14
3.03032e-12
2.94659e-13
8.28311e-13
3.41883e-13
1.84929e-13
-1.95093e-12
-3.43627e-12
5.90346e-12
2.40719e-12
7.26718e-12
-1.50852e-12
-2.06406e-11
-3.76022e-12
4.64721e-11
-7.81272e-12
-3.54141e-12
-9.94361e-12
2.26019e-11
-1.52874e-11
-8.27956e-12
-1.27787e-11
7.08439e-12
5.34909e-12
1.37699e-12
2.68481e-11
-5.32811e-11
1.49504e-11
-5.38905e-12
-4.85881e-12
9.85637e-12
-1.26205e-11
5.25132e-13
4.20098e-12
-1.19363e-11
4.12766e-12
-1.79222e-12
-8.27808e-12
-1.18579e-12
7.4929e-12
-1.71295e-12
3.70624e-14
-4.91545e-12
-3.66336e-12
-1.23147e-11
-6.38222e-12
4.29959e-12
8.11914e-13
5.93196e-13
-1.31501e-11
4.97865e-12
-8.7637e-12
9.40173e-12
4.44915e-14
4.6043e-15
-4.96357e-14
-1.06565e-14
-3.91321e-14
1.14369e-13
9.89196e-16
2.00408e-13
-4.4395e-13
-1.0931e-13
1.40562e-15
1.54588e-16
-5.2543e-17
-1.44627e-16
-2.82819e-15
-1.1496e-15
6.67149e-15
3.0334e-16
-4.99421e-17
-9.1461e-17
9.3476e-16
1.41271e-16
3.95296e-17
-1.44879e-16
-8.14996e-18
1.37418e-16
2.99447e-18
8.03969e-15
9.91886e-16
-2.04583e-15
2.21442e-16
-4.40423e-15
-1.18959e-15
1.55369e-14
-2.1487e-15
9.5403e-16
3.15212e-15
3.28266e-16
-5.10149e-15
2.91615e-15
2.87523e-15
-2.14875e-15
4.26282e-15
-3.45017e-15
9.26793e-12
-6.25277e-12
-2.99769e-12
3.73972e-15
-4.14267e-11
-5.26332e-12
5.62739e-11
-4.28859e-11
-2.76408e-12
4.78437e-11
1.53492e-11
-1.04317e-10
2.50017e-11
2.07353e-11
-1.35269e-11
3.37597e-11
-6.38082e-13
-2.31521e-11
-8.6547e-11
-7.50235e-12
1.59277e-10
-1.00257e-11
1.29947e-11
-7.03257e-12
-3.84211e-11
-3.32203e-11
-2.33491e-11
-1.80711e-11
8.0534e-11
3.83473e-13
-1.61811e-11
1.0405e-11
-2.70713e-11
2.2377e-11
4.78685e-12
-3.28133e-13
-3.57042e-11
3.94817e-11
-6.00944e-13
3.5274e-12
1.32551e-12
4.38336e-12
-5.7691e-12
1.906e-10
-1.17423e-10
-1.33367e-10
3.8021e-13
2.07222e-10
9.02812e-12
-3.85049e-12
-1.27583e-10
-6.99248e-13
3.52043e-12
1.11874e-13
2.56448e-12
4.92282e-13
4.12251e-10
3.53383e-10
5.48686e-10
-1.23926e-09
-1.35349e-11
3.93801e-10
7.09953e-11
4.37509e-10
2.42099e-12
-3.74134e-11
4.38665e-10
2.62931e-11
9.0223e-10
-7.06437e-11
-6.34051e-10
1.89733e-09
3.79813e-10
-7.09052e-08
-1.68004e-09
-2.78901e-09
6.18682e-08
3.4779e-08
-4.31323e-08
-7.15557e-08
1.61391e-08
-6.26704e-10
-1.01544e-08
-7.17527e-09
2.46855e-08
-7.3252e-08
1.54121e-08
1.78985e-08
-1.06085e-06
-8.73756e-10
1.49532e-05
9.29193e-06
5.63021e-06
-3.02926e-05
-9.02635e-07
1.20806e-05
1.57055e-07
-1.41229e-07
4.17592e-06
1.8532e-05
1.73805e-05
-3.06941e-05
5.35912e-06
2.49838e-05
7.35348e-06
7.41596e-06
8.56564e-06
-1.81379e-05
-1.43718e-07
1.82335e-05
2.35925e-07
1.21767e-05
8.78982e-06
-3.92069e-05
1.12966e-06
9.99087e-06
1.45562e-05
-2.05261e-05
6.3601e-06
-6.67452e-06
3.16853e-05
-2.51002e-05
3.66956e-05
-3.68195e-05
1.9021e-07
2.82372e-08
-1.11208e-07
-8.38502e-08
-3.61844e-07
-1.70691e-08
7.40726e-07
-8.20106e-08
2.51548e-07
4.32077e-08
-9.35506e-08
-3.86212e-08
-2.28521e-07
2.38496e-07
4.2829e-07
-5.73268e-07
6.47049e-07
-8.45595e-06
-2.72287e-07
4.39179e-06
-5.22234e-08
5.37976e-06
5.18784e-06
-2.54684e-05
-5.48352e-07
4.26165e-06
8.70682e-06
-1.07696e-05
-4.38868e-07
-2.10816e-06
1.28165e-05
2.51815e-05
1.47582e-05
-3.37418e-05
4.05095e-06
1.3503e-05
1.11418e-07
-2.64956e-06
5.44141e-09
-2.53934e-05
-2.84754e-05
-7.01696e-06
7.54108e-05
-3.84728e-07
-2.75209e-05
-2.31183e-05
4.41283e-07
7.77529e-06
-3.97582e-06
-2.67891e-05
9.19137e-06
4.94457e-08
1.00807e-05
1.41264e-05
-2.80536e-05
3.29248e-05
-1.2015e-05
3.60823e-05
-4.32966e-05
6.67858e-05
-1.08852e-05
-3.63142e-07
1.29657e-05
1.18551e-06
3.13134e-06
7.09128e-06
-2.21762e-05
-3.74506e-07
9.94047e-06
1.15777e-05
-6.08827e-06
-9.1081e-07
-2.00799e-06
2.69839e-05
-4.78804e-07
1.1469e-05
9.50062e-07
6.37115e-06
-4.66558e-07
-1.04556e-05
1.94851e-05
-1.04216e-05
-8.85757e-06
-1.33973e-05
6.5066e-05
-6.31522e-06
-6.78441e-08
7.50574e-06
9.4441e-07
-2.19354e-05
8.87621e-06
1.12877e-07
4.9936e-06
-1.64689e-05
2.67638e-05
-1.14116e-05
3.97988e-05
-2.82917e-05
-1.45021e-07
2.692e-05
1.37958e-06
2.37898e-05
2.89352e-05
8.20857e-09
1.47915e-05
2.87325e-05
-4.27425e-08
-2.11118e-05
4.18569e-05
-1.11203e-06
1.69573e-05
2.13176e-05
4.33341e-06
-4.23073e-05
-2.16887e-06
1.7333e-05
1.75536e-06
-1.95648e-05
1.04155e-05
-4.92131e-05
3.46589e-06
3.54198e-06
3.79066e-06
-1.13616e-05
6.08364e-07
2.04167e-06
7.42955e-07
2.50045e-06
1.07125e-06
2.82293e-06
1.08138e-06
1.63919e-06
2.03763e-06
3.40164e-06
6.73178e-06
2.3198e-05
1.17448e-05
2.18668e-05
5.51612e-07
-3.09139e-05
-2.93805e-05
-6.68338e-05
-1.12418e-05
-1.31302e-06
2.34815e-05
-7.74329e-06
-4.10501e-08
-4.07571e-08
-6.99601e-08
-2.489e-08
-4.88119e-08
-3.14768e-10
-4.42084e-08
-2.42737e-08
1.44017e-08
-1.52949e-08
-6.54558e-08
-6.21317e-08
-1.31076e-08
-2.37471e-07
-5.43748e-08
-2.32538e-05
-2.23408e-06
1.41695e-05
1.21528e-05
-3.59029e-05
1.64628e-06
9.27869e-06
1.7123e-06
-1.68677e-05
1.16247e-05
3.66975e-05
1.98862e-05
1.76933e-05
-5.48092e-05
1.44508e-05
1.6788e-05
3.83151e-06
-2.25536e-05
3.30748e-05
-1.55098e-05
9.4757e-06
-7.45673e-06
2.91966e-05
3.59e-06
9.7565e-06
4.75617e-06
2.016e-05
3.77954e-05
2.35494e-07
-4.18344e-05
3.37262e-07
-1.56391e-05
-1.72404e-05
6.91046e-05
5.48113e-07
-1.82907e-05
-1.31002e-05
1.10995e-05
1.47011e-06
2.81307e-06
-3.46831e-05
-3.41466e-05
2.73718e-05
-7.33475e-05
-8.28141e-06
-2.97202e-05
5.52784e-06
3.29675e-05
7.68277e-07
-9.42798e-06
-1.26283e-07
-2.78101e-05
1.95227e-06
-2.03407e-05
-1.90007e-05
4.43474e-05
-4.72953e-05
1.77698e-05
4.5017e-05
1.24314e-05
-8.47992e-05
4.96909e-05
4.20763e-07
6.96043e-05
-0.000102509
0.000101622
-1.54439e-05
-3.8309e-05
8.64997e-07
6.37289e-06
9.77664e-06
1.4652e-06
-1.07335e-05
-9.10942e-07
-3.01837e-05
-1.01845e-06
4.15194e-05
1.7367e-06
-3.05699e-05
1.02766e-05
-3.25557e-05
1.35706e-05
-3.45773e-05
4.52212e-05
-3.2975e-05
3.30267e-05
1.6693e-06
9.92843e-07
-6.45041e-05
3.45875e-05
-5.36225e-05
3.39362e-05
-1.75648e-05
-1.55266e-05
-7.32398e-06
4.05065e-05
-6.10995e-07
-1.67178e-05
-1.44099e-07
-1.44688e-05
1.28125e-05
-5.23404e-05
2.29271e-05
3.3332e-05
3.55567e-05
-0.00010084
-8.99387e-05
-2.31191e-05
-3.61671e-05
-1.01683e-07
-5.36304e-07
1.14341e-05
6.88576e-08
-1.14095e-05
-1.34653e-07
-2.61497e-05
-8.00601e-06
4.55797e-05
-6.14263e-07
-2.55783e-05
7.37313e-06
-4.10123e-05
2.21748e-05
-4.3803e-05
4.3125e-05
-4.06625e-05
-2.37471e-06
-0.000107322
-3.11457e-05
-2.62909e-05
-3.82182e-05
-1.15432e-06
-2.02435e-05
1.22014e-07
-2.57835e-05
2.28869e-05
-0.000113183
9.47614e-06
-4.08118e-05
8.95082e-07
-1.58553e-06
5.25065e-07
3.46963e-06
6.73819e-06
5.21182e-06
-2.31923e-05
-2.8043e-08
4.4747e-08
4.67319e-06
7.63665e-06
-4.14857e-08
1.32336e-05
-6.18096e-06
-2.83799e-06
2.13423e-05
-1.51934e-05
1.69262e-05
-1.89963e-05
-1.94397e-05
-1.12039e-05
-5.00818e-06
3.28556e-05
8.98069e-07
-1.4784e-05
-3.38047e-07
-1.23345e-05
3.08848e-07
1.796e-05
2.61446e-06
-3.33106e-05
1.5877e-05
9.73367e-07
2.13739e-05
-3.34221e-05
3.23648e-05
-4.13707e-05
-1.65293e-05
1.47495e-06
5.5818e-05
1.24952e-05
-1.31015e-05
-4.11166e-05
1.02531e-05
-1.74939e-05
-2.55939e-05
-1.13899e-05
3.81171e-05
-9.5915e-07
-3.78844e-05
-3.28679e-05
3.06756e-05
-5.15514e-05
-9.51686e-06
-2.96834e-05
1.33613e-05
2.56715e-05
-1.74033e-05
1.83715e-05
-1.11775e-05
4.7606e-06
-5.18415e-05
-3.61101e-05
-1.57454e-06
5.60369e-05
-1.26777e-05
-3.46057e-05
2.03474e-05
-2.82604e-05
3.21383e-05
-1.83228e-05
9.05401e-06
3.23572e-05
-2.28615e-05
1.67556e-05
1.36389e-05
-4.85679e-05
1.74952e-05
8.6774e-06
3.30528e-05
2.97378e-05
-4.43134e-05
1.57712e-05
4.96254e-05
-1.85137e-05
5.18835e-05
2.0138e-05
1.32827e-06
5.4602e-07
1.03861e-07
-1.93586e-06
-1.58055e-06
2.34552e-06
7.89874e-06
2.92917e-06
-4.01462e-06
4.06462e-06
-1.16655e-06
5.03106e-06
-7.52991e-06
3.36149e-05
4.82522e-07
-5.5678e-08
-1.57969e-06
-1.84197e-06
-1.50145e-06
-1.89247e-08
9.46453e-07
4.10319e-08
6.8386e-08
1.5663e-08
-4.07911e-08
-4.33675e-08
-4.5304e-07
1.83365e-07
7.29114e-07
7.94956e-07
-3.80311e-07
-1.30609e-06
2.30186e-07
-1.36267e-08
-1.41854e-06
-1.85639e-08
-2.59837e-09
2.7017e-07
7.5279e-09
-3.97441e-08
-2.81117e-08
2.79462e-07
-6.14004e-08
-4.05728e-08
1.77505e-07
2.69248e-07
-3.77287e-07
4.25108e-07
2.3504e-06
-3.35598e-06
5.96333e-07
4.15647e-07
4.7407e-07
7.21657e-07
-5.87629e-07
8.94007e-07
1.75308e-06
1.94775e-08
2.05289e-06
1.59478e-06
9.23359e-14
3.30112e-13
-4.28904e-14
-3.69108e-13
4.51305e-13
-4.35373e-13
7.47381e-13
2.76043e-13
4.66326e-13
1.87518e-12
-5.22864e-14
-9.39365e-13
1.8051e-13
3.06324e-12
-3.90829e-13
-4.16266e-13
-1.17956e-13
-9.29991e-14
-8.04795e-14
2.78153e-13
-6.60139e-14
-7.9462e-14
5.79065e-14
-6.09336e-14
-9.37564e-14
-1.17389e-13
-1.85576e-13
2.2705e-13
-5.92158e-14
-1.38709e-13
2.51696e-14
-1.43023e-13
-2.34014e-13
-4.33061e-14
2.99182e-14
-3.66443e-14
5.22913e-14
-1.49542e-13
5.94134e-14
3.43593e-14
-2.04878e-13
1.38976e-12
5.77319e-10
7.43545e-10
-4.79807e-10
-1.72472e-10
4.12743e-10
-2.86512e-10
8.01267e-10
-1.97519e-09
3.63953e-09
-7.64617e-11
5.1738e-10
-6.97854e-10
1.28559e-10
-2.27082e-10
-4.32581e-11
-8.62056e-11
-1.45307e-09
-1.5699e-09
-2.28835e-09
-5.07347e-10
4.65976e-09
2.05283e-10
-1.17104e-10
-1.10214e-09
-2.02216e-09
1.601e-09
-1.96825e-09
2.5457e-09
-6.50159e-10
4.0126e-10
-3.22372e-09
2.60917e-09
-4.42737e-09
4.62637e-09
-3.14161e-08
-3.365e-10
8.68109e-09
2.41547e-08
7.43351e-09
3.74901e-09
-7.62912e-08
9.93032e-09
3.84306e-10
4.59801e-09
5.45461e-09
-5.35224e-09
7.24583e-09
7.4034e-09
-9.58486e-09
2.90019e-08
2.64387e-09
-1.54187e-06
-1.95636e-06
1.86523e-06
1.63177e-06
1.75453e-06
8.063e-07
-4.30096e-06
2.34131e-06
-1.99148e-06
3.44444e-07
9.24972e-08
1.42802e-06
-8.01399e-07
2.77726e-06
8.89896e-07
1.21235e-08
1.97895e-06
5.90298e-07
2.94133e-06
-4.4571e-07
-1.4456e-07
7.0298e-07
-1.44511e-06
7.49208e-07
-2.47318e-06
4.45297e-06
1.90028e-06
1.36785e-06
-1.30409e-06
3.06189e-06
-3.0303e-07
7.09144e-07
3.09654e-07
-1.49065e-07
-7.07037e-07
-1.12446e-06
2.10917e-06
-2.65034e-07
5.41135e-07
-1.2196e-07
-8.59209e-07
-4.01242e-07
-1.49097e-06
2.43453e-06
-2.48585e-07
7.99926e-07
-2.2903e-06
1.22945e-06
-1.34718e-06
2.15609e-06
1.85422e-06
1.26905e-06
2.32197e-06
3.26417e-07
-5.41191e-06
2.6364e-06
-9.07827e-08
-1.9986e-06
6.00449e-06
-2.21413e-06
1.03995e-08
3.26788e-06
-4.59542e-08
-3.84896e-07
-1.8288e-06
-1.74046e-06
-1.13715e-06
-3.75929e-08
-1.06859e-06
-2.01536e-06
2.10467e-06
-2.40345e-08
7.34031e-07
-3.44933e-06
-6.45899e-07
-5.27142e-07
2.15376e-06
6.06007e-06
5.76001e-07
4.81199e-06
1.96091e-06
-2.45089e-08
-2.62814e-07
8.86592e-08
8.02804e-08
-6.45824e-08
4.91864e-08
-6.25852e-09
5.11255e-08
-3.70989e-07
-4.26849e-08
-1.4987e-08
7.84184e-08
-3.99275e-08
-1.78697e-08
4.88481e-08
-4.53966e-08
7.87055e-08
-7.36232e-10
-5.32795e-10
-2.40189e-09
1.86656e-11
-7.11458e-10
5.38208e-12
2.65007e-11
-6.58917e-10
-1.38803e-09
2.26457e-09
3.48878e-10
-2.93782e-10
-1.85713e-09
-1.6598e-10
-6.32652e-13
8.56271e-09
-3.55652e-13
4.42442e-11
1.07368e-12
-1.1331e-11
7.90337e-11
-4.33339e-11
8.77781e-15
-1.76424e-11
1.53159e-10
-2.18855e-11
2.04393e-11
1.12964e-12
4.81387e-11
-8.50263e-11
5.56896e-13
2.72323e-12
2.09856e-12
-9.59139e-12
-4.79522e-11
-1.05974e-10
-2.6702e-10
2.43081e-12
-1.08342e-11
1.85425e-11
-1.12943e-11
-9.05715e-12
2.31416e-11
8.85531e-12
7.21697e-11
-4.61768e-11
-5.76243e-12
-1.84627e-11
7.07923e-11
-3.568e-11
5.23798e-11
-6.80377e-12
5.69479e-11
-8.15457e-12
-1.40266e-11
5.5908e-11
-4.0743e-11
1.03139e-11
1.19978e-10
-8.94324e-11
-7.23458e-11
-8.01596e-11
2.52269e-11
-1.29525e-10
-4.47811e-11
5.24956e-12
-9.48164e-11
4.00213e-11
2.19204e-11
-2.90703e-12
-5.40935e-11
-5.20114e-12
-3.52465e-12
-3.85678e-12
5.92032e-13
-9.01892e-14
-6.65426e-12
1.12236e-13
-8.13395e-12
-2.3566e-11
0
0
0
0
0
0
0
0
0
1.87856e-19
6.44321e-19
-8.32177e-19
2.39637e-21
1.85371e-19
-3.00857e-21
5.40494e-21
6.41014e-19
-2.37172e-14
-2.25776e-16
2.27302e-14
1.47214e-14
8.9193e-15
8.25851e-14
1.20449e-15
1.84711e-17
-4.02623e-16
1.6e-14
1.94306e-14
-6.76805e-14
1.1007e-13
4.90426e-14
-2.15475e-15
1.05688e-13
6.82059e-47
1.46932e-10
1.7884e-11
1.90482e-11
-1.41143e-10
-3.72266e-11
8.09382e-11
1.3793e-10
1.39874e-11
-1.71582e-11
-8.99915e-11
-1.35122e-11
1.50767e-10
-1.56238e-11
-3.01739e-11
3.20349e-11
-2.93215e-12
-8.10599e-12
2.72846e-11
7.74747e-11
-1.09394e-10
1.43132e-10
-1.35443e-11
-1.19744e-13
3.48234e-13
-4.14143e-13
5.29814e-15
1.04932e-12
-2.36094e-12
-1.87371e-13
-3.95628e-13
1.45988e-12
9.44097e-13
1.87426e-12
-1.6147e-11
4.92778e-13
-7.96472e-14
5.03666e-14
3.74159e-13
-6.65312e-20
-8.90735e-20
-1.84606e-20
-1.81764e-20
1.4655e-21
-6.01697e-21
-1.0763e-18
2.44434e-18
-9.76843e-21
5.21415e-20
5.2343e-20
-3.98537e-20
-4.57619e-19
2.55819e-18
7.38233e-17
-2.29654e-17
4.97398e-18
1.41536e-16
2.19736e-17
3.32243e-16
2.90825e-17
-1.04172e-16
2.18374e-17
7.49617e-15
-5.49703e-15
-1.98488e-15
-3.03095e-14
-1.57613e-14
5.16969e-14
-5.65597e-15
-3.50386e-14
-2.35965e-13
4.91106e-13
-2.66945e-13
1.81182e-14
-2.90056e-13
-1.70158e-14
4.84842e-13
1.71184e-11
-1.71471e-11
3.17978e-14
-2.32155e-16
-8.53883e-11
-3.0675e-12
-2.80113e-11
-8.53701e-11
5.175e-14
6.70876e-15
-2.41494e-14
4.67836e-14
3.29134e-15
9.42972e-15
1.51919e-13
-1.54743e-13
3.88553e-14
1.73287e-14
-3.42824e-12
3.99322e-13
-3.12904e-11
-1.73223e-10
-1.9063e-10
-9.45781e-11
4.9006e-10
-2.91514e-11
-2.62487e-10
1.03542e-10
1.47358e-11
-1.91063e-10
-4.75753e-11
-9.00721e-11
4.91635e-11
-2.24316e-10