/*--------------------------------*- C++ -*----------------------------------*\
| =========                 |                                                 |
| \\      /  F ield         | OpenFOAM: The Open Source CFD Toolbox           |
|  \\    /   O peration     | Version:  v2012                                 |
|   \\  /    A nd           | Website:  www.openfoam.com                      |
|    \\/     M anipulation  |                                                 |
\*---------------------------------------------------------------------------*/
FoamFile
{
    version     2.0;
    format      ascii;
    class       volScalarField;
    location    "0.45";
    object      alpha.water;
}
// * * * * * * * * * * * * * * * * * * * * * * * * * * * * * * * * * * * * * //

dimensions      [0 0 0 0 0 0 0];


internalField   nonuniform List<scalar> 
6576
(
1
1
1
1
1
1
1
1
1
1
1
1
1
1
1
1
1
1
1
1
1
1
1
1
1
1
1
1
1
1
1
1
1
1
1
1
1
1
1
1
1
1
1
0.500118
0.652705
0.652705
0.455105
0.390586
0.649196
0.652524
0.390874
0.390586
4.98132e-07
1.15539e-06
5.12995e-07
2.92376e-06
4.86697e-07
5.30502e-07
1.27624e-06
-1.30075e-60
5.4636e-11
8.78976e-11
3.80869e-11
-1.63675e-48
-6.45213e-61
1.1851e-11
2.45835e-13
1.14751e-13
1.86739e-13
1.3564e-12
1.06121e-11
6.47331e-15
2.47613e-11
0.000912038
0.00247604
0.000671981
0.00089783
0.000671954
0.000671954
0.000671981
0.00651877
0.00747439
0.00912506
0.00652026
0.00652388
0.0114044
0.00654668
0.977162
0.98191
0.956259
0.980991
0.971724
0.982174
0.982386
0.52712
0.545554
0.565189
0.33451
0.334782
0.570044
0.33451
0.355448
0.428451
0.485369
0.373229
0.355448
0.372195
0.490568
0.518151
0.512028
0.512321
0.507488
0.454612
0.4535
4.39399e-38
-3.46895e-71
0
7.6926e-66
0
1.01131e-13
1.5537e-12
0.32153
0.860919
0.946053
0.947501
0.849516
0.999875
0.97572
3.24409e-38
7.43908e-38
8.29676e-38
-7.04855e-23
-1.59436e-32
-1.36638e-19
-1.06622e-22
3.65482e-09
1.50979e-07
3.31399e-07
3.61935e-09
3.65482e-09
1.30393e-08
6.60225e-08
3.83851e-08
8.15187e-08
1.43758e-08
4.54774e-09
4.60195e-08
1.35702e-08
5.70112e-09
2.12673e-08
2.13256e-08
1.56398e-08
2.85916e-08
2.16056e-08
2.26162e-08
6.601e-08
4.00994e-09
3.32588e-09
5.01862e-09
1.51959e-09
1.51529e-09
1.53586e-09
3.51708e-09
1.52006e-09
1.53985e-09
2.83785e-09
3.62082e-09
2.5794e-09
4.08132e-09
7.3055e-09
1.49913e-09
1.4702e-09
6.66539e-10
2.27701e-10
1.29704e-09
1.31331e-09
2.56608e-10
9.39631e-10
8.89235e-10
3.0188e-10
6.25897e-10
7.63208e-13
4.82837e-15
1.53368e-12
3.93864e-14
4.85147e-15
5.94252e-14
2.08415e-13
7.24229e-12
2.87822e-14
1.39163e-16
5.0151e-15
1.39099e-16
1.51139e-15
4.8422e-15
1.39099e-16
1.39452e-16
6.10118e-12
3.04956e-12
7.81536e-13
8.56375e-13
5.75251e-12
6.90091e-12
8.12781e-13
1.31063e-12
3.07757e-13
4.50094e-14
7.88326e-13
5.16814e-16
2.69664e-14
2.79619e-14
2.70655e-16
6.84119e-17
1.53317e-16
7.32363e-17
1.07228e-16
1.76275e-16
6.84119e-17
1.935e-16
4.43623e-18
2.5251e-18
2.87403e-16
2.71907e-14
1.60926e-13
2.57969e-14
4.71861e-12
2.63874e-16
2.99437e-16
1.1907e-13
8.14512e-12
1.15165e-12
6.64244e-16
5.68394e-15
1.10508e-14
1.47256e-14
2.86546e-15
2.87972e-15
2.8734e-15
7.0875e-15
1.39579e-10
1.46548e-12
4.37564e-11
1.62844e-12
1.45738e-12
1.45724e-12
1.45835e-12
1.25556e-09
3.7556e-09
6.52975e-09
1.64511e-09
1.25533e-09
1.13828e-09
1.13481e-09
2.05471e-09
1.93583e-09
9.15719e-09
1.20272e-08
5.19932e-07
2.10361e-08
7.19325e-09
1.27849e-07
6.18914e-07
1.07696e-06
1.08666e-06
2.88558e-07
5.11017e-07
5.29024e-07
1.08666e-06
1.05975e-06
0.286481
0.286475
0.286734
0.286217
0.286217
0.370585
0.286975
0.598299
0.360418
0.427844
0.427758
0.427758
0.430221
0.427758
0.590109
0.430638
0.440294
0.0979687
0.593064
0.593288
0.593064
0.413982
0.592504
0.593397
0.592425
0.427844
0.427758
0.553553
0.591144
0.455447
0.459504
0.454939
0.455431
0.455538
0.555978
9.08483e-05
0.000127551
0.000107368
9.82033e-05
4.7218e-05
0.00071108
0.000312659
0.362835
0.0987902
0.000243451
0.164159
0.0142774
0.000362989
0.00024015
0.000124147
0.000189628
0.00111107
0.00576959
0.00171054
0.00928499
0.00174568
0.0143193
0.00835388
0.000794743
0.000776847
0.000780784
0.000776847
0.000776847
0.00105179
0.00105035
0.000932795
0.000940886
0.00094112
0.00325766
0.00114276
0.00092286
0.000923106
0.00092294
0.00092393
0.00126577
0.00134411
0.00134411
0.00134411
0.00136159
0.163871
0.43066
0.295377
0.0409152
0.29629
0.30734
0.313264
0.655673
0.519505
0.656947
0.655673
0.286499
0.439075
0.286734
0.286916
0.286448
0.605998
0.6041
0.605998
0.374737
0.106938
0.0321315
0.0880316
0.0936225
0.655666
0.205516
0.279376
0.000776967
0.000776863
0.000779973
0.000807442
0.000805173
0.00162061
0.0007777
0.00175956
0.00175652
0.00175626
0.00475986
0.0032374
0.00176046
0.0061604
0.00175663
0.00175627
0.00741501
0.0109657
0.00751033
0.0123063
0.0173576
0.0271537
0.0131286
0.00114704
6.24626e-05
0.000322364
6.15215e-05
0.000329888
6.15215e-05
6.14982e-05
0.00273078
0.000967895
0.000718092
0.0210876
0.114374
0.000370904
0.000116308
0.000116064
0.000121807
0.962587
0.962587
0.962587
0.81967
0.947417
0.962587
0.962587
2.80925e-08
2.83012e-08
2.80925e-08
2.94707e-08
2.94543e-08
8.67813e-08
8.46107e-08
2.25003e-06
3.79656e-07
3.94683e-07
1.35606e-06
2.28221e-05
4.75505e-06
4.14473e-07
6.44642e-05
7.50359e-05
7.46016e-05
5.55913e-05
2.65182e-05
2.10282e-05
5.51804e-05
6.85411e-05
0.000224862
0.000559467
6.58834e-05
0.000265779
0.000141973
6.24115e-05
0.000316165
6.21312e-05
0.00171036
0.00202802
0.0017975
0.00133634
0.00683141
0.00122125
0.00120198
0.0884389
0.110907
0.00435504
0.278043
0.0891787
0.229788
0.166175
0.000805614
0.000684975
0.0469006
0.00355099
0.121981
0.000727203
0.305035
0.319418
0.319418
0.319586
0.252513
0.319235
0.31926
0.319418
0.334432
0.30079
0.313191
0.334902
0.320383
0.319919
0.314877
0.318727
0.22252
0.202128
0.299656
0.299914
0.334902
0.000188323
0.000208239
0.000196541
0.000545971
0.000232971
0.000400688
0.000555513
0.000208987
0.000182837
0.000250488
0.000238292
0.000238769
0.000202716
0.000322693
0.000185493
0.00018281
0.00018281
3.61087e-06
3.09192e-06
0.000203472
1.74559e-05
2.10848e-06
2.70439e-06
2.50515e-06
2.5318e-06
3.95618e-05
4.08749e-06
2.83022e-06
2.18091e-06
1.96162e-06
3.04638e-06
2.15918e-06
2.72452e-06
3.04633e-06
0.000123989
1.58378e-06
1.5743e-06
1.55269e-06
1.56117e-06
1.57392e-06
1.55182e-06
1.53823e-06
4.26091e-08
6.83519e-08
9.47191e-08
4.26015e-08
4.91882e-08
4.24162e-08
1.40483e-07
6.97508e-08
4.26015e-08
3.33524e-08
2.90451e-07
8.19705e-07
7.33982e-07
5.7754e-07
4.35328e-07
2.35952e-07
6.77988e-07
1.83992e-06
1.24773e-06
3.85944e-07
2.34538e-07
1.03633e-06
6.64429e-07
2.84491e-07
3.44901e-07
4.87553e-07
3.41864e-07
1.36132e-07
5.96462e-07
3.27759e-07
9.89555e-10
1.03982e-09
5.72754e-10
4.00245e-09
4.86173e-09
7.14662e-11
1.14099e-10
1.39638e-10
4.7671e-11
2.43634e-12
6.12236e-11
2.45368e-12
4.6764e-10
4.0908e-10
2.3559e-10
9.07294e-11
2.36163e-10
1.15196e-10
7.34187e-11
2.1903e-10
2.37543e-07
4.73228e-07
3.60009e-07
5.12536e-08
3.0326e-08
2.18382e-08
5.48365e-06
1.73455e-06
2.37943e-06
4.24453e-06
8.61057e-07
1.65428e-06
5.72814e-06
6.17913e-07
4.03938e-07
4.71981e-07
2.25193e-05
5.77245e-06
1.79451e-06
1.36389e-06
4.04365e-07
4.03949e-07
1.45798e-05
1.45022e-05
1.45798e-05
1.44911e-05
2.48381e-05
2.39041e-05
5.04861e-05
0.000860662
0.000860662
0.000846874
0.000850593
0.00104635
0.0100065
0.000847286
0.981893
0.24713
0.317626
0.982146
0.872465
0.994583
0.636798
0.97276
0.981469
0.907568
0.966744
0.908537
0.98703
0.987213
0.00431562
0.0151452
0.0240233
0.00428453
0.0103901
0.00426663
0.0190812
0.193153
0.24232
0.257751
0.258941
0.171508
0.335862
0.241851
0.12435
0.03473
0.480317
0.251705
0.436774
0.552076
0.454962
0.552053
0.466707
0.470148
0.469547
0.389071
0.129469
0.417742
0.417171
0.416782
0.213855
0.128724
0.137904
0.128724
0.379596
0.43104
0.298561
0.43104
0.285222
0.429222
0.174032
0.588719
0.59044
0.563597
0.588768
0.426629
0.179335
0.593094
0.593295
0.593153
0.594279
0.593288
0.219232
0.063998
0.06631
0.100169
0.0439816
0.087467
0.0894691
0.565575
0.337212
0.342102
0.333351
0.592287
0.454795
0.455419
0.590586
0.00138035
0.00258831
0.00110359
0.00118166
0.00118416
0.00228223
0.0011059
0.56498
0.186771
0.551178
0.00136159
0.222145
0.398639
0.556828
0.586198
0.590278
0.477451
0.0640134
0.391717
0.291048
0.452764
0.287928
0.383443
0.385507
0.385507
0.385594
0.386041
0.396853
0.687645
0.351427
0.481557
0.345086
0.695622
0.70357
0.710015
0.226976
0.709236
0.474876
0.623618
0.490419
0.696929
0.406376
0.569464
0.734957
0.450216
0.724645
0.734898
0.734827
0.301968
0.730255
0.716445
0.716514
0.716445
0.716514
0.527135
0.605477
0.713449
0.713917
0.716514
0.524792
0.734584
0.734608
0.734468
0.734584
0.734438
0.680139
0.734355
0.389015
0.309997
0.734989
0.734989
0.29009
0.305816
0.724802
0.398884
0.0410253
0.0290699
0.342554
0.177924
0.259444
0.247501
0.428701
0.280682
0.410928
0.289513
0.43875
0.47781
0.47695
0.974556
0.988271
0.879742
0.981386
0.988599
0.921223
0.988233
0.986744
0.969558
0.995177
0.99225
0.995184
0.995206
0.995203
0.967804
0.967803
0.961402
0.874882
0.97625
0.961904
0.962038
0.00478625
0.342158
0.154879
0.192109
0.49072
0.0238862
0.443093
0.0186543
0.00474177
0.00143424
0.0300122
0.0417495
0.0279901
0.0200062
0.0155891
0.0014276
0.0183556
0.0014276
0.0103658
0.0681311
0.0131291
0.0104139
0.0660086
0.0294389
0.0274803
2.52946e-09
1.793e-08
7.92569e-09
1.3932e-08
1.61573e-08
4.10391e-09
2.64175e-09
4.69485e-09
2.98099e-09
4.99329e-09
3.49695e-09
1.90022e-09
4.99103e-09
4.87998e-09
1.61029e-09
1.5137e-09
1.51542e-09
6.27173e-09
1.96911e-08
2.0615e-05
1.15892e-05
1.828e-05
2.0615e-05
4.5276e-06
1.33542e-06
1.21707e-05
6.07252e-06
5.88706e-06
9.88233e-06
2.10637e-05
5.61357e-06
6.0554e-06
5.97663e-06
0.000118739
0.000294952
0.000119536
0.000108825
0.000114543
0.00011816
0.000139626
0.514171
0.451595
0.261211
0.51418
0.514172
0.517637
0.369308
0.0338764
0.0720063
0.223024
0.0141323
0.213528
0.173374
0.275732
0.173028
0.478949
0.110305
0.479835
0.479991
0.110305
0.291821
0.32716
0.352226
0.480111
0.310921
0.00725137
0.150942
0.28939
0.244706
0.0133499
0.0112603
0.164224
0.28939
0.256772
0.187811
0.326388
0.27853
0.270746
0.00160011
0.000435063
0.00135849
0.000458289
0.000168905
0.000779922
0.000831585
2.16046e-05
1.81467e-06
2.50308e-06
1.16796e-05
3.05139e-06
1.0791e-05
6.41875e-05
4.48613e-07
1.66625e-06
2.96839e-07
2.67376e-07
2.76004e-07
2.67352e-07
2.67308e-07
1.57853e-06
1.59159e-06
1.61466e-06
2.67226e-07
3.59908e-07
7.4225e-07
4.5191e-07
8.17374e-07
8.20861e-07
2.67699e-07
1.64436e-06
1.5484e-06
1.65222e-06
7.61998e-07
1.19452e-06
1.6662e-06
1.67669e-06
3.52795e-07
6.99808e-07
1.90702e-07
1.94998e-07
9.20109e-07
0
0
0
0
4.32384e-22
0
0
7.78194e-09
2.37614e-08
2.03676e-10
2.37983e-08
2.35868e-08
2.03676e-10
4.79526e-10
5.13135e-06
4.20087e-06
4.30202e-06
6.05829e-06
4.9561e-06
1.54917e-07
1.54267e-06
6.05829e-06
1.79147e-06
4.14424e-09
4.04786e-08
2.49054e-08
4.67359e-07
4.57045e-08
4.94623e-08
6.32675e-08
5.20817e-15
3.35249e-16
1.39291e-14
3.08522e-16
3.18223e-16
2.5743e-15
8.87827e-14
6.23427e-12
1.03236e-11
7.24765e-12
7.33396e-13
1.79517e-12
1.77703e-12
1.79412e-10
2.60733e-10
2.14583e-10
2.07165e-11
2.07165e-11
4.38694e-12
2.27706e-10
7.21146e-07
1.57827e-06
2.05739e-10
5.59477e-10
1.35427e-10
7.55379e-11
1.37653e-10
4.24101e-10
6.60208e-06
7.77447e-06
6.63585e-06
6.64327e-06
1.62718e-05
6.78749e-06
2.12058e-05
1.37233e-05
6.81654e-06
1.04415e-05
5.0094e-06
5.86244e-06
1.86555e-05
6.48956e-06
5.02129e-06
5.7966e-06
4.86074e-05
3.88506e-05
2.69588e-05
4.24672e-05
4.48252e-05
4.87627e-05
1.42566e-05
1.04891e-05
5.59432e-06
1.60871e-05
6.82704e-06
5.59432e-06
3.55912e-05
2.08257e-05
5.59432e-06
2.53258e-05
0.000941013
0.000646154
0.00102796
0.000658274
0.000659756
0.000948746
0.000637127
0.643703
0.643703
0.643703
0.643691
0.527093
0.505531
0.495889
0.59637
0.596365
0.59637
0.395769
0.466422
0.373367
0.40673
0.372027
0.596365
0.527735
0.594428
0.594458
0.594428
0.59429
0.472221
0.448174
0.52497
0.524922
0.524979
0.578111
0.524922
0.593998
0.556717
0.580742
0.524922
0.596274
0.469523
0.552053
0.552374
0.429222
0.276305
0.26728
0.000776842
0.000777263
0.00096347
0.000961306
0.000776848
0.000776841
0.000776844
0.719039
0.40572
0.724071
0.50946
0.276701
0.284957
0.278007
0.284215
0.286423
0.385374
0.734724
0.734932
0.718636
0.728864
0.728849
0.728864
0.728505
0.728864
0.519552
0.728448
0.703284
0.728864
0.21061
0.69821
0.698132
0.698132
0.669663
0.176387
0.443795
0.69821
0.631316
0.689181
0.689181
0.55067
0.182336
0.689181
0.0603471
0.02032
0.196844
0.041129
0.0200502
0.0200283
0.0200263
0.0202139
0.084363
0.0394164
0.0503839
0.0203745
0.0257111
0.0200283
0.821324
0.64237
0.315095
0.317091
0.341651
0.307646
0.42656
0.975014
0.975014
0.975014
0.627718
0.724733
0.633043
0.70359
0.419606
0.0175966
0.856664
0.0910697
0.92769
0.101739
0.120597
0.102616
0.432957
0.868208
0.868205
0.868208
0.445896
0.462318
0.0215001
0.0125762
0.00477995
0.00477995
0.00497279
0.0215024
0.0101443
0.000678403
0.000767722
0.000678536
0.000699578
0.00408689
0.00323104
0.00265491
0.00657994
0.00657173
0.00657681
0.0275068
0.0143496
0.0115406
0.013504
1.29477e-07
9.05157e-08
1.81354e-08
3.97166e-06
1.2502e-06
2.92409e-07
8.0505e-07
7.02945e-07
7.64969e-07
4.32642e-07
5.08372e-07
2.70371e-07
3.05718e-06
6.07972e-07
2.19747e-07
2.79189e-07
2.7068e-07
3.14095e-07
1.04591e-06
2.87079e-07
7.01185e-07
3.97022e-05
3.40418e-05
2.87787e-05
3.40418e-05
3.98577e-05
0.000185211
9.04279e-05
0.000137125
0.000174912
3.9796e-05
0.000151917
0.000171459
0.000141372
0.000184907
0.000367257
0.000222818
0.000135387
8.26759e-05
7.25415e-05
0.000138831
0.000139454
0.000114899
0.000137068
0.439869
0.412582
0.477956
0.335695
0.227292
0.364661
0.319706
0.409985
0.0128705
0.220323
0.478099
0.658059
0.415424
0.22922
0.26898
0.278313
0.278317
0.278302
0.254119
0.254182
0.238719
0.49102
0.49102
0.490943
0.275888
0.0280943
0.491023
0.378477
0.254119
0.277373
0.278305
0.314825
0.491023
0.11506
0.399283
0.27487
0.517637
0.00094273
0.000684768
0.000677437
0.000536385
0.00203719
0.000671396
0.000964353
6.76757e-05
0.000788598
0.000514249
9.12667e-05
7.02976e-05
0.00136155
0.000695998
0.000859648
0.000859936
0.000928727
0.000895883
0.0015327
9.17984e-05
9.17984e-05
9.17984e-05
9.17984e-05
8.44715e-05
1.48808e-05
5.39068e-05
5.14599e-05
3.39777e-05
0.000164242
3.33996e-05
6.84923e-05
0.000126319
6.96041e-05
4.24162e-08
4.15669e-07
2.05637e-07
4.2408e-08
4.24162e-08
3.19708e-07
6.91871e-07
7.45304e-07
5.15763e-08
4.92964e-08
1.32824e-07
1.34641e-07
3.28111e-07
4.24483e-08
3.00006e-07
1.09269e-06
2.35445e-07
4.24307e-08
2.34e-07
6.71704e-07
1.36635e-07
1.38404e-07
8.22806e-07
6.6255e-08
1.53813e-07
8.40206e-07
-1.4413e-22
2.93645e-16
2.45046e-09
4.07839e-09
1.21545e-07
9.10069e-08
4.21385e-09
2.30164e-08
4.87891e-07
6.07393e-08
4.62625e-09
4.89649e-08
1.59177e-08
-8.08607e-54
1.46943e-14
1.98586e-18
4.9797e-34
5.72107e-16
3.24443e-16
4.04302e-18
-1.09776e-54
-4.14005e-56
-2.43992e-58
-3.56914e-26
-8.20949e-26
1.4954e-15
8.93939e-18
-2.6731e-41
-5.3867e-25
-1.44144e-25
-2.22594e-63
-2.22236e-61
-5.29076e-105
-2.26646e-34
1.16006e-43
3.9425e-35
-5.73187e-34
2.84734e-19
2.38649e-22
-2.87621e-29
2.95285e-25
6.51447e-32
6.24827e-32
6.51445e-32
-1.17968e-85
4.14736e-24
4.82457e-24
-8.63392e-86
7.95142e-25
1.98131e-24
3.57734e-28
1.81231e-23
6.42552e-24
6.29703e-24
6.36134e-24
6.36134e-24
6.30713e-24
6.40892e-24
0.000107907
0.00014805
0.000344941
0.000344446
0.000246084
0.000242633
0.000344953
0.000213952
0.0002376
0.000342896
0.000344922
0.000254355
0.000344812
0.000320321
0.000140486
3.19799e-07
3.96914e-05
3.19799e-07
3.11195e-07
0.000231184
9.37347e-05
4.02967e-05
4.13925e-05
3.01864e-05
4.38633e-07
2.00185e-05
5.94968e-07
5.75562e-06
1.71109e-05
1.16508e-05
1.15242e-05
3.57402e-05
1.15059e-05
1.89834e-05
1.61483e-05
2.10324e-05
2.17239e-05
9.82004e-06
5.52366e-06
2.83301e-06
1.15217e-07
9.60127e-07
1.16348e-07
9.33195e-07
7.40399e-05
0.000201351
2.83672e-06
2.82956e-06
3.80715e-06
1.23686e-06
1.21274e-06
5.18081e-06
8.6502e-06
7.67317e-06
1.7107e-07
2.81372e-06
0.000166058
1.1061e-05
8.93613e-06
4.1502e-06
1.93654e-07
1.64176e-06
2.0138e-05
0.000148977
0.000133563
0.000530165
0.000510544
0.000125391
0.000245608
0.000124282
0.000722588
0.000409359
7.19777e-05
0.000345513
0.00091877
0.000380785
3.01451e-06
1.41352e-06
1.2654e-06
2.94317e-05
0.000154347
2.13707e-05
3.17454e-06
0.603178
0.75991
0.985741
0.977971
0.733097
0.949697
0.980077
0.974968
0.975534
0.962641
0.917234
0.974634
0.828445
0.955114
0.963683
0.847622
0.844783
0.956803
0.962708
0.963715
0.894451
0.627231
0.810121
0.810121
0.496701
0.568777
0.773823
0.509273
0.526177
0.78771
0.822957
0.686352
0.71929
0.525115
0.525119
0.497075
0.809063
0.494301
0.523506
0.494301
0.55659
0.642691
0.526322
0.643691
0.529727
0.587717
0.587816
0.587717
0.569588
0.586948
0.495903
0.594109
0.511058
0.479243
0.473481
0.152209
0.475353
0.107773
0.0249595
0.167367
0.11265
0.236151
0.0455466
0.0972343
0.333331
0.0365223
0.0213932
0.0761332
0.69821
0.226589
0.384146
0.702935
0.702863
0.702935
0.702935
0.56032
0.47157
0.700473
0.614078
0.702935
0.470979
0.00471127
0.00468787
0.00488883
0.00470272
0.00668966
0.00468787
0.00468772
0.0145137
0.188583
0.21661
0.0349057
0.00758415
0.00916377
0.196086
0.00268488
0.0197461
0.0043022
0.00227183
0.00226505
0.00627272
0.00455902
0.0841824
0.0650994
0.0661952
0.39944
0.0591941
0.19982
0.130385
0.0316345
0.040124
0.00184571
0.0017782
0.0018188
0.0011647
0.00100355
0.428216
0.139763
0.00348845
0.00103097
0.0185217
0.00100349
0.00100584
0.0093222
0.00431392
0.00326506
0.00102836
0.000883563
0.00299462
0.004666
0.000553575
0.00526533
0.0312705
0.00734632
0.0280952
0.0044224
0.021177
0.00995072
3.07871e-05
0.0236378
0.00817714
0.0130745
1.32312e-05
1.16738e-08
7.36201e-07
2.56774e-06
3.5662e-07
3.05876e-07
9.20964e-07
8.96831e-07
0.00102398
0.00167363
0.00115408
0.00309747
0.00741333
0.00550266
0.00424671
0.824573
0.841903
0.875933
0.748929
0.967697
0.891493
0.748527
0.804232
0.474732
0.707929
0.832588
0.832588
0.832588
0.832588
0.748527
0.904011
0.748439
0.918954
0.972305
0.501983
0.480483
0.474736
0.629738
0.804017
0.92175
0.943852
0.972473
0.972305
0.884572
0.295531
0.0165581
0.0329216
0.0165076
0.65847
0.227282
0.227282
0.227282
7.25333e-05
7.25333e-05
8.46029e-05
7.25333e-05
7.25333e-05
0.00029571
8.56205e-05
6.07516e-05
0.000203626
2.96521e-05
0.000160536
0.000361301
3.8909e-05
5.68637e-06
7.97505e-05
1.80724e-05
8.75556e-05
1.35845e-05
2.89861e-05
5.298e-06
4.28765e-06
4.7478e-06
9.76423e-06
6.16047e-06
6.94977e-06
5.45183e-06
4.86752e-05
3.48612e-05
2.77938e-05
7.8039e-06
1.32019e-05
2.82772e-05
2.54333e-05
1.39357e-07
3.36873e-08
3.45152e-08
9.33737e-08
3.4819e-08
5.71877e-08
3.47427e-08
1.90275e-12
1.46569e-13
5.185e-12
2.81448e-14
1.10978e-13
5.7201e-09
1.21011e-09
3.55973e-18
-5.13764e-37
7.73938e-20
1.29779e-23
5.97469e-42
1.59324e-23
2.61269e-24
9.18671e-25
9.23829e-25
8.11377e-24
4.07034e-24
-4.09821e-86
5.8196e-25
-1.34891e-214
-3.10539e-214
-5.86927e-216
1.69956e-35
2.30705e-64
0
1.78515e-34
4.93399e-28
0
6.50375e-39
-6.97427e-76
0
-2.83292e-52
1.21258e-35
-3.66842e-50
1.61923e-83
1.67448e-38
-5.15734e-48
-2.21822e-26
1.25882e-14
4.13371e-06
7.57821e-12
7.57821e-12
1.37583e-10
2.92081e-08
1.37584e-10
0.129402
0.701019
0.999871
0.999871
0.999875
0.999524
0.982395
0.00361322
1.614e-05
0.00364497
1.56491e-05
0.00106827
0.00113571
0.0750412
0.000968697
0.0333711
6.50384e-05
0.000962159
0.00106387
0.253187
0.00016097
2.71559e-06
0.000115775
6.96722e-06
7.46153e-16
6.65439e-05
0.000661537
8.69116e-06
0.00281831
0.00101675
0.0020444
0.000116807
0.00307993
0.00157177
0.00329726
7.73944e-08
9.45961e-08
7.25362e-07
7.13803e-08
7.07928e-08
4.85182e-07
7.25285e-07
1.47676e-07
2.51187e-07
1.44784e-07
1.42391e-07
3.33068e-07
2.25907e-07
5.70261e-07
2.25712e-07
3.33068e-07
2.43333e-08
2.05052e-08
6.61542e-08
2.38838e-08
6.63224e-08
2.21946e-08
2.19116e-08
2.03226e-08
2.03567e-08
2.03567e-08
3.93931e-08
3.12744e-08
1.32074e-07
1.68611e-07
3.81176e-07
1.26233e-07
1.46782e-07
4.1681e-07
5.13666e-07
4.46466e-07
4.10796e-07
1.92743e-09
1.6981e-09
1.74351e-09
1.69272e-09
1.69281e-09
1.69279e-09
1.69767e-09
1.7072e-07
6.4092e-07
2.29262e-07
3.17151e-07
1.97479e-05
1.80469e-07
2.81096e-06
0.523208
0.523243
0.523208
0.629856
0.523208
0.548484
0.756097
0.879128
0.863932
0.84845
0.92934
0.885063
0.545649
0.689745
0.619638
0.821911
0.886711
0.930951
0.930948
0.930951
0.805875
0.930948
0.795206
0.783071
0.791231
0.862607
0.807616
0.956345
0.956367
0.90713
0.783146
0.783071
0.782946
0.957821
0.91482
0.915047
0.91482
0.963803
0.956411
0.963848
0.892302
0.939586
0.897649
0.973623
0.973108
0.972579
0.9733
0.914882
0.933661
0.963837
0.524893
0.524384
0.524893
0.968715
0.759908
0.569071
0.977369
0.95534
0.793484
0.885311
0.970884
0.976762
0.943784
0.976693
0.94943
0.977134
0.987915
0.733778
0.909414
0.48595
0.573573
0.619466
0.947935
0.951111
0.0155675
0.0155675
0.0332963
0.200684
0.518889
0.415198
0.138919
0.00751305
0.00795592
0.00746055
0.0110148
0.0267939
0.00744698
0.00751305
0.756006
0.757981
0.757981
0.750254
0.757907
0.757981
0.757981
0.728282
0.743733
0.743733
0.743733
0.743733
0.729213
4.79587e-06
0.000859285
0.00169995
4.9827e-06
9.35296e-05
0.0333424
0.0474772
0.17688
0.169281
0.23867
0.413502
0.645438
0.740268
0.963973
0.966549
0.887866
0.96442
0.982609
0.984216
0.948469
0.982763
0.987518
0.987518
0.987518
0.987515
0.976612
0.987515
0.987518
0.921948
0.971411
0.951808
0.987509
0.986591
0.987504
0.968105
0.92942
0.909295
0.909218
0.461128
0.438935
0.361757
0.987493
0.987491
0.897988
0.808083
0.0113936
0.016541
0.0110703
0.0185031
0.0526091
0.0302345
0.061523
2.56428e-05
2.45428e-08
9.85071e-05
7.59139e-05
1.7739e-05
6.37791e-05
4.50679e-06
3.26214e-07
3.39936e-08
2.23092e-07
1.49874e-07
1.7482e-07
2.42504e-08
3.00998e-08
1.54507e-08
3.7367e-09
3.29272e-09
1.91866e-07
4.15338e-08
3.04132e-08
2.81069e-08
7.23575e-09
6.98655e-11
1.07927e-08
2.23911e-08
6.67178e-11
6.52045e-11
9.75623e-08
7.89602e-10
2.08237e-10
4.24101e-10
5.53745e-11
4.49989e-11
0.000111254
5.02743e-05
4.26283e-05
0.000132015
5.50408e-05
1.17186e-05
5.72208e-06
0.554082
0.559205
0.991169
0.92025
0.711969
0.0467589
0.848422
7.6646e-05
6.09035e-05
6.1341e-05
0.000400189
0.000100945
6.11284e-05
0.000249972
0.000878322
0.00243882
1.84769e-06
0.00281831
0.00227009
0.00093136
0.00224988
2.42158e-15
1.06435e-22
3.90797e-12
5.31521e-05
8.55827e-05
5.61613e-05
9.83951e-05
0.000227682
0.000100821
0.000285122
7.2566e-15
3.03275e-05
0.000166039
1.0332e-05
1.0332e-05
1.0332e-05
1.45469e-05
3.26401e-05
1.37e-05
1.40507e-05
3.61254e-06
6.21038e-06
3.06577e-07
2.84597e-07
2.90622e-06
1.49582e-05
5.88084e-07
6.86628e-07
3.98097e-07
4.52809e-07
6.77333e-07
3.11359e-07
3.88365e-07
1.95298e-10
1.9572e-10
6.42433e-11
5.9518e-11
1.84813e-11
2.24582e-11
5.44551e-11
1.68764e-08
9.55084e-09
7.92741e-09
1.16215e-08
1.35949e-10
1.30797e-10
1.79276e-09
1.08629e-07
1.23693e-07
1.45415e-07
7.73394e-08
8.02984e-08
1.61097e-07
4.46774e-07
4.23263e-07
5.23148e-08
6.78427e-08
1.27538e-06
6.08095e-06
2.21776e-06
3.51005e-06
3.89295e-07
1.39702e-06
1.47434e-06
1.29082e-07
1.65657e-06
1.15536e-06
3.41636e-06
1.28674e-06
1.22409e-06
0.0591939
0.0330228
0.39071
0.0943017
0.175576
1.88176e-06
0.0545439
0.574106
0.64448
0.193081
0.61213
0.611875
0.456776
0.296658
0.229087
0.281381
0.175189
0.476464
0.612126
0.611973
0.536278
0.64437
0.612196
0.75148
0.523208
0.686696
0.276249
0.302098
0.419474
0.767835
0.794468
0.793602
0.766106
0.69764
0.930948
0.845854
0.0219987
0.0178794
0.0178716
0.132407
0.0801873
0.137086
0.0319991
0.987502
0.987502
0.543168
0.622117
0.367402
0.970057
0.895602
0.00142755
0.0014276
0.0014276
0.00622651
0.00457833
0.544378
0.452954
0.416909
0.266607
0.0192169
0.432753
0.878947
0.00924338
0.00903988
0.00917384
0.176713
0.159611
0.522066
0.386492
0.573173
0.225022
0.597403
0.101962
0.00470429
0.967567
0.966396
0.687318
0.804624
0.694844
0.834523
0.407701
0.600895
0.633378
0.972178
0.97425
0.671635
0.691103
0.600895
0.533572
0.621854
0.478179
0.83144
0.824715
0.608174
0.881029
0.754048
0.65089
0.391803
0.784749
0.679273
0.678479
0.85455
0.67778
0.813816
0.853922
0.67595
0.75663
0.755218
0.755259
0.676014
0.754502
0.801856
0.801722
0.80176
0.801844
0.801823
0.775701
0.340082
0.805355
0.812477
0.740563
0.898353
0.898353
0.898353
0.846425
0.885952
0.898339
0.879005
0.898338
0.84147
0.896089
0.987064
0.983097
0.941459
0.996396
0.996481
0.967432
0.967765
4.31188e-05
2.6576e-05
2.90041e-05
2.36894e-05
2.81372e-05
2.89301e-05
3.96656e-05
2.03258e-05
8.67841e-06
8.91164e-06
1.03113e-05
1.31732e-05
1.12869e-05
9.24749e-06
3.31812e-05
3.8863e-05
3.8034e-05
1.63014e-05
3.2293e-05
2.96568e-05
1.64841e-05
8.19815e-05
1.12829e-05
0.000149455
6.39033e-05
7.88616e-05
0.000295372
0.000139548
0.00121168
0.00174477
0.000645984
0.0633113
0.000340906
0.000750244
0.00515682
0.00273623
0.00161049
0.000984457
0.000341411
0.000926122
0.000348478
0.000339072
1.47683e-05
8.58868e-06
1.64541e-06
1.66087e-05
3.2471e-06
7.88629e-07
4.33942e-06
8.99459e-05
7.94683e-05
0.000126845
0.000250841
0.000237789
0.00021965
0.000344429
0.000344328
0.000344328
1.79542e-05
1.79972e-05
1.79576e-05
0.000724711
1.83577e-05
1.79576e-05
1.79531e-05
4.56878e-06
2.04271e-05
1.30486e-05
1.35466e-05
2.04271e-05
8.88026e-07
1.08937e-06
3.74558e-06
2.61386e-05
1.7391e-05
5.96369e-07
6.93472e-07
5.99742e-07
1.05371e-06
1.07878e-06
1.07853e-06
1.08027e-06
3.47892e-07
3.6585e-07
9.95685e-07
1.18251e-06
1.1833e-06
9.91064e-07
1.18328e-06
9.9184e-07
9.93434e-07
-4.15066e-27
-2.00217e-27
-4.07077e-27
-1.92748e-29
2.54353e-09
1.9501e-07
7.55084e-09
1.4658e-15
1.24792e-12
2.44055e-12
2.19119e-18
1.06357e-12
6.61585e-13
5.92963e-17
5.89966e-13
9.81878e-18
4.75643e-07
4.75643e-07
9.21728e-07
1.45378e-06
4.75643e-07
1.74915e-06
4.43333e-06
1.15176e-06
1.15176e-06
1.15176e-06
1.1573e-06
2.26977e-06
1.15176e-06
1.15176e-06
0.37731
0.376801
0.377733
0.412474
0.412027
0.213376
0.0970076
0.438404
0.438404
0.4384
0.438413
0.438402
0.438411
0.4384
0.413743
0.438372
0.156076
0.448214
0.448215
0.448215
0.447977
0.164546
0.433408
0.172912
0.296531
0.612141
9.86035e-09
1.06523e-08
1.84902e-08
1.05204e-07
4.67559e-07
2.19921e-08
6.58386e-08
3.86095e-05
2.34487e-05
0.00017098
5.61583e-06
5.61556e-06
7.00149e-05
5.64891e-06
0.00251768
0.000256559
0.000808822
0.000956937
0.000150343
0.000562774
0.000918055
1.54052e-05
6.13735e-05
1.80254e-05
1.54054e-05
1.54052e-05
1.54494e-05
1.54054e-05
0.000100064
0.000186609
2.84378e-05
3.67679e-05
1.54265e-05
1.53692e-05
1.53875e-05
0.0108789
0.0109133
0.0108969
0.00553855
0.00153584
0.00608458
0.0109265
0.00381968
0.00809105
0.00382259
0.0038203
0.0045963
0.00381957
0.00382188
0.00746116
0.00767104
0.00265006
0.00699959
0.00194993
0.00394048
0.00394048
0.00393542
0.0045112
0.00873923
0.00395022
0.00536003
0.0872004
0.0876495
0.0751096
0.020679
0.0199076
0.00840101
0.00807295
0.0286073
0.097642
0.0521597
0.0371738
0.0186106
0.0072653
0.0625443
0.80201
0.80201
0.803279
0.785523
0.785488
0.785488
0.785261
0.700558
0.785523
0.785333
0.773497
0.775869
0.773497
0.773497
0.387203
0.675787
0.777363
0.777374
0.77734
0.777353
0.777413
0.767209
0.333016
0.696263
0.785523
0.278229
0.46876
0.719764
0.856954
0.0189894
0.25831
0.0801532
0.346288
0.571398
0.520912
0.571083
0.571398
0.502717
0.50707
0.501945
0.792271
0.790281
0.790617
0.502941
0.501924
0.622894
0.503067
0.571398
0.502199
0.502721
0.729731
0.618486
0.792271
0.570142
0.544821
0.7108
0.556427
0.710543
0.51052
0.511396
0.976285
0.853502
0.975517
0.697502
0.953991
0.51052
0.879076
0.872638
0.989352
6.61052e-05
0.000330669
6.24957e-05
6.93304e-05
3.85502e-05
0.000252942
6.09085e-05
0.000343527
0.000342139
0.00027136
0.000343685
0.000343689
0.000343465
0.0003432
1.42178e-07
1.45616e-07
1.41947e-07
3.29988e-07
3.30523e-07
1.86653e-07
2.92344e-07
6.34243e-07
2.96042e-07
5.94447e-07
2.8654e-11
2.85617e-09
1.78525e-08
2.8654e-11
2.95617e-14
2.78862e-08
6.56245e-08
7.74842e-09
4.13348e-28
8.00963e-09
6.22085e-12
4.3751e-09
2.79155e-09
-4.93254e-31
8.68388e-11
1.88508e-09
6.71868e-10
-3.33544e-60
3.04306e-10
3.6623e-91
-8.61404e-59
6.69919e-62
1.87261e-52
-2.85345e-45
1.31041e-12
8.93735e-12
2.50984e-16
1.10525e-11
3.553e-12
3.91761e-22
-7.31816e-69
7.86292e-14
3.6146e-14
2.99656e-20
-5.92444e-38
-3.92043e-102
7.37557e-19
9.11694e-19
-1.27361e-102
1.38475e-19
3.68421e-19
6.04615e-29
2.84359e-05
2.85803e-05
1.31515e-05
2.57349e-05
3.14397e-06
2.26118e-06
4.13157e-06
0.267734
0.267735
0.267735
0.212318
0.0653522
0.23429
0.366604
0.366609
0.366609
0.0203039
0.146869
0.366609
0.149107
0.147128
0.301829
0.412687
0.413075
1.50973e-07
5.34869e-07
8.31436e-07
8.45422e-07
1.49828e-07
1.22685e-06
3.57005e-06
3.74699e-06
5.62382e-06
3.77305e-06
4.1938e-06
4.67308e-06
1.02357e-05
1.62281e-05
7.9143e-07
7.87021e-07
7.9143e-07
3.98085e-06
1.06256e-05
1.17123e-05
2.56137e-05
1.35321e-06
7.79124e-07
2.07694e-06
8.56237e-07
7.41628e-07
2.22068e-07
8.29368e-08
2.29963e-08
3.9739e-08
4.93091e-08
5.93829e-09
8.04292e-09
2.29297e-08
5.93441e-09
8.79479e-07
2.16131e-07
3.39531e-06
2.5937e-06
7.12647e-06
0.000135094
1.03352e-05
0.000885488
8.03122e-05
0.00010691
0.000378533
0.000895906
0.000211673
1.13929e-05
4.87701e-05
4.87701e-05
4.87719e-05
4.87701e-05
4.87719e-05
4.87563e-05
4.87701e-05
0.00019531
0.000105649
3.70715e-05
5.44819e-05
5.81408e-05
4.52551e-05
3.72072e-05
1.18837e-05
5.59432e-06
2.51586e-05
2.03114e-05
4.33894e-05
4.52818e-05
3.14499e-05
1.37763e-05
5.85709e-05
1.37763e-05
5.23637e-05
2.84063e-05
4.14161e-05
2.84063e-05
5.61234e-06
8.02023e-06
5.66027e-06
1.03098e-05
5.72113e-06
7.78401e-06
2.56081e-05
2.06576e-05
8.51356e-06
0.00092312
0.00742732
0.00315615
0.0143193
0.0114346
0.0143011
0.00761542
0.0126558
0.00424565
0.00813347
0.00420639
0.0215881
0.0178315
0.00782
0.0114574
0.0141574
0.0141552
0.0118506
0.0130175
0.0113931
0.0119667
0.00393505
0.00611986
0.00397628
0.00402316
0.00412674
0.00416261
0.012067
0.0068289
0.012834
0.0068549
0.057348
0.0233895
0.0313114
0.0197923
0.0687601
0.297549
0.570797
0.319566
0.413929
0.711947
0.133349
0.777363
0.77735
0.777176
0.776275
0.776323
0.776275
0.776352