/*--------------------------------*- C++ -*----------------------------------*\
| =========                 |                                                 |
| \\      /  F ield         | OpenFOAM: The Open Source CFD Toolbox           |
|  \\    /   O peration     | Version:  v2012                                 |
|   \\  /    A nd           | Website:  www.openfoam.com                      |
|    \\/     M anipulation  |                                                 |
\*---------------------------------------------------------------------------*/
FoamFile
{
    version     2.0;
    format      ascii;
    class       volScalarField;
    location    "0.45";
    object      p;
}
// * * * * * * * * * * * * * * * * * * * * * * * * * * * * * * * * * * * * * //

dimensions      [1 -1 -2 0 0 0 0];


internalField   nonuniform List<scalar> 
6576
(
-429.015
-453.508
-420.264
-428.371
-436.43
-415.866
-415.999
-401.16
-422.748
-420.194
-417.693
-410.041
-396.851
-412.513
-319.837
-338.659
-374.27
-369.906
-342.077
-334.406
-378.266
-406.337
-414.643
-486.527
-314.086
-270.686
-196.498
-456.917
-460.354
-455.774
-448.456
-438.411
-400.115
-302.608
-285.663
-300.337
-328.723
-325.071
-319.228
-321.159
-358.69
-402.527
-351.264
1628.04
1274.6
1752.79
1408.14
1554.74
1808.71
1834.72
1586.48
1725.04
-3.64895
-4.22268
-3.42583
-4.03845
-4.909
-5.51952
-4.26133
-2.90068
-3.28132
-2.95685
-2.79466
-2.8443
-2.82229
-2.90533
-1.68717
-1.87165
-1.97954
-1.99785
-1.90039
-2.25555
-2.10406
11.44
10.9661
10.9263
10.8384
11.3047
11.1266
10.8203
8.97024
8.73819
9.53156
10.1191
9.77688
9.91773
9.5967
190.312
88.8862
63.6766
64.8996
92.7535
123.884
187.817
266.812
266.814
308.51
251.256
259.679
309.71
337.229
651.111
811.208
597.923
686.954
673.512
590.028
539.914
1812.03
1806.52
1800.63
1737.15
1842.86
2101.05
-3.13081
-2.86677
-2.57545
-2.58084
-2.41032
-2.37485
-2.79066
-20.0252
-12.4854
-98.8863
-132.692
-112.858
-15.1267
9.40892
-2.07574
-3.21766
-2.65237
-3.10642
-4.22229
-2.47085
-5.13524
-7.22533
-6.79321
-7.38456
-4.64325
-5.16423
-4.81311
-5.11587
-6.31294
-5.17936
-7.89002
-4.07541
-2.68831
-4.33901
-4.05061
-8.82033
-9.65489
-10.486
-8.47516
-12.0459
-12.0248
-9.76657
-5.52588
-5.01494
-3.87982
-5.00908
-4.49023
-3.24838
-2.75612
-3.56383
-3.72156
-5.43415
-5.91015
-5.28739
-5.35732
-6.33576
-6.36115
-5.62364
-4.29562
-4.10679
-3.8008
-4.26013
-4.12395
-3.55029
-3.70483
-3.64796
-3.53939
-3.8988
-3.89872
-3.81492
-3.91409
-3.95361
-3.7592
-4.09694
-3.96293
-3.97278
-3.80509
-3.83159
-3.67091
-3.81276
-3.86617
-3.80526
-3.90044
-5.20336
-3.89192
-4.53592
-4.3453
-4.83359
-4.1474
-4.0013
-2.66874
-3.34519
-3.82037
-4.52484
-3.84523
-4.49816
-4.81575
-4.10111
-5.49445
-2.82425
-0.650999
-2.71003
-5.09516
-5.38043
-3.35914
-3.31268
-3.37929
-3.3843
-3.33165
-3.35025
-3.4168
-3.50088
-3.42396
-3.52856
-3.4907
-3.52951
-3.61351
-3.56622
-3.80837
-3.83878
-3.84428
-3.764
-3.79054
-3.77575
-3.77792
-4.35099
-4.14882
-4.32031
-4.11667
-4.06952
-4.2807
-4.28375
-5.11467
-5.61952
-5.59823
-4.94439
-4.72976
-5.05585
-4.89349
-5.29549
-5.37527
-9.00276
-10.3033
-11.446
-7.08956
-8.49292
-8.56716
-9.95041
-11.0972
-14.5167
-14.9964
-7.61931
-6.53767
-10.9719
-12.4993
914.967
910.547
773.609
1082.31
797.188
717.179
1343.76
726.248
1238.96
1100.13
1111.73
1040.05
972.881
664.682
878.434
408.868
-168.248
-116.566
-12.111
-60.805
6.40617
-114.208
-201.138
-106.102
-192.802
1061.56
1006.65
1046.35
96.8498
319.921
-156.127
378.895
320.157
11.4046
187.431
3.51961
3.11478
3.22989
3.32138
3.68359
3.61494
3.32475
6.67843
1.92489
1.48959
5.56191
3.67882
2.93956
2.60136
2.72123
2.74455
-0.321671
-0.177171
-1.01922
0.00424769
1.27013
0.997652
0.756639
-183.499
-184.092
-183.5
-184.263
-184.057
-183.072
-182.942
-181.758
-183.161
-183.832
-183.378
-185.375
-184.352
-184.21
-183.268
-181.98
-174.656
-170.169
-159.814
-171.935
-169.93
-164.918
-163.422
-160.214
-166.385
411.055
787.922
355.253
415.885
506.352
260.193
493.726
1184.96
1044.42
1083.18
1187.87
958.771
364.363
855.952
1082
1388.08
-166.073
-174.705
-148.378
-149.625
-157.55
-188.159
-194.146
-183.356
-184.338
-183.392
-183.38
-184.952
-183.559
-183.154
-1.07827
-1.68317
-1.52469
-1.50154
-1.96567
-1.38022
-1.83099
-1.63863
-1.43629
3.18358
5.12503
5.04943
4.85065
4.3556
3.32561
2.76218
7.13876
8.09167
6.9166
8.13283
8.58417
7.87616
8.21398
7.39266
7.38953
14.3242
14.2267
13.7285
12.3219
13.9646
14.6254
14.1828
21.0125
5.73282
-51.9521
38.0383
9.04175
5.20646
-6.72933
-5.48745
-4.89649
-4.725
-5.66973
-5.02851
-5.05101
-4.68534
-4.08375
-3.79652
-3.43628
-3.13058
-3.31988
-2.77563
-2.82446
-4.49799
-4.15445
-3.20625
-5.17311
-5.42891
-4.42148
-3.62407
-6.37368
-4.55886
-6.51634
-6.22585
-5.5627
-6.59923
-6.30373
-6.95097
-6.5679
-4.53013
-4.13235
-0.187454
-10.2793
-6.58538
-3.3511
-4.16063
2.68456
-5.3368
3.9318
-2.37265
3.68878
-12.5909
-3.49115
8.71239
9.20489
9.88804
4.87999
0.00616806
5.12752
1.00256
-3.08177
12.2841
11.3754
13.057
-8.32016
25.3297
28.4779
3.61463
-4.95515
12.1322
-2.26483
-9.66285
7.23585
0.208993
-9.17973
26.3149
17.6659
-1.3876
-11.2251
2.82269
-7.9177
-13.0778
-11.3103
-11.6244
-2.94519
-2.42905
-9.70033
-14.604
-15.1179
-9.26802
-10.3064
-15.2103
-15.2524
-13.0308
-14.6883
-4.35056
-15.4029
-2.82491
-3.70157
-4.70952
-2.69278
-2.27894
-2.85693
-2.56884
-3.28104
-3.18335
-2.96694
-2.30734
-3.837
-1.96363
-2.15842
-2.97463
-2.41688
-2.28624
-1.41377
-2.87741
-2.17315
-2.90859
-2.80612
-2.51679
-2.60913
-2.91973
-2.64992
-2.63301
-2.32464
-2.75219
-2.6414
-2.68651
-2.64427
-2.64315
-2.50547
-3.01068
-3.18937
-3.10964
-3.30072
-3.15891
-3.22319
-3.12016
-3.52299
-3.33807
-3.43542
-3.57963
-3.42223
-3.31626
-3.42196
-3.91597
-3.73421
-3.55774
-3.80176
-3.69689
-3.73358
-3.89558
-5.10757
-5.1358
-4.74601
-5.05349
-5.33649
-4.27086
-4.10157
-4.19053
-4.09976
-4.20042
-4.11889
-4.22047
-3.75686
-3.57573
-3.6158
-3.79317
-3.63143
-3.62665
-3.74981
-2.62919
-2.3432
0.236639
-3.79143
-0.397001
-3.11314
-4.22149
1.25916
1.29664
1.25999
1.37097
1.31742
1.31246
1.35931
1.29129
1.18123
1.25998
1.43619
1.29055
1.37725
1.23608
1.18258
1.30847
1.99192
2.10242
2.00442
1.97712
1.90185
1.91943
1.83865
3.32964
3.54149
4.55397
4.11848
3.71001
4.69351
4.1679
9.01553
-0.720553
4.71673
3.43008
8.6689
-17.0937
15.3746
-60.8625
-27.9477
-25.0853
-9.41464
0.00688592
-13.9094
3.84133
-180.156
-178.855
-180.555
-181.961
-181.213
-181.251
-181.495
-174.657
-167.431
-188.054
-197.305
-194.931
-171.96
-178.428
-194.482
-190.204
-142.115
-216.162
-163.912
-198.846
-279.578
-238.607
-269.779
-115.456
-67.0288
-191.128
-165.244
-194.611
-174.744
-169.9
-178.976
-144.282
-185.146
-158.666
-158.303
-137.31
-109.142
-122.742
-157.239
-149.609
-169.81
-214.101
-216.198
-200.885
-334.597
-242.68
-236.129
3.66436
-42.0975
-39.2138
-119.611
-148.02
-167.625
-184.833
-173.327
-160.334
-171.144
-141.125
-163.753
-125.792
-54.473
-99.3576
-124.096
-97.7585
206.129
230.576
214.401
-181.189
-176.894
-179.273
-178.813
-176.183
-177.015
-179.261
-31.9229
-184.168
-76.1817
-174.002
-169.347
527.694
89.5691
132.373
507.53
-298.804
22.6536
610.667
685.205
660.246
1209.16
-78.9688
1.15013
-26.035
30.0794
-53.2373
18.7483
-68.9748
286.304
195.482
148.868
135.957
259.616
-0.395046
-54.8178
42.2649
-10.5305
447.346
325.791
276.106
-196.145
-228.487
-231.827
-180.335
-194.619
-131.436
-19.8104
-186.295
-173.101
-145.751
94.1489
51.3135
36.5002
28.0276
4.77977
-110.293
-29.7205
47.8202
-23.6541
-19.0041
-223.963
-145.583
168.719
-54.4382
-78.6459
13.8442
-154.824
-190.618
-33.1964
-130.732
-140.683
-123.148
-119.964
-183.398
-186.124
-178.886
-200.757
-178.875
-155.681
-194.866
-155.017
-157.668
-140.263
-119.212
-182.955
-153.926
-153.859
16.5721
-15.6411
18.6106
10.7938
-7.04108
5.90058
-6.23687
-23.8322
-27.098
-45.3831
-67.2722
-44.8218
-48.3322
-46.1968
-50.7639
-25.2233
-36.6192
-30.5488
-36.4178
-42.2956
-8.269
-2.21431
1.17682
-10.8766
4.69714
6.53843
3.78829
-1.31406
0.219307
0.541662
-1.74632
0.441006
1.75868
-0.932912
0.144029
-0.768079
-0.872073
-0.0971001
-1.51305
26.7402
28.3625
24.8385
23.8825
25.507
21.1096
19.7808
-1.17752
-1.094
-0.738927
-2.76485
-3.35804
-3.3501
-2.65516
-1.27884
-0.511216
-1.41862
-1.67027
-1.22702
-1.64302
-2.08019
-3.57672
-4.26276
-4.20044
-3.68408
-5.35347
-21.1609
-21.2624
-18.021
-21.6281
-22.2834
-21.8819
-20.4298
-13.9099
-13.0081
-18.1933
-8.70631
-12.6272
-15.7361
-11.3189
5.16344
5.28974
3.69573
5.26258
5.60336
6.21688
3.83813
14.2306
-15.8586
1.02427
15.0473
-16.3611
-4.21282
10.3412
12.6258
-8.47734
12.245
5.41959
3.97201
-2.46795
7.49716
-11.0729
3.05067
-3.07918
-5.69684
5.50683
4.28979
-12.9542
-7.78253
-8.29791
-17.7319
-25.0253
-20.5538
-2.55429
-2.59257
-22.4623
17.1414
10.9883
-9.18477
-20.3615
-14.3544
8.59249
5.81735
-11.6969
1.57732
-1.69033
-2.19101
-1.30593
-1.02197
-1.66301
-1.45537
-0.958359
-2.55795
-1.71572
-0.896679
0.192542
-0.772597
0.103699
0.835233
-2.45109
-2.30376
-2.34412
-2.44916
-1.77085
-2.41582
-2.39347
-2.57575
-1.96655
-2.26112
-3.31041
-2.75208
-2.7704
-2.55187
-2.70623
-2.82771
-2.69216
-2.51913
-2.75844
-2.92059
-2.53469
-2.60994
-2.76815
-2.7527
-2.91311
-2.61146
-2.6863
-2.70275
-2.64122
-2.8444
-2.76624
-2.91507
-2.83185
-2.74786
-2.84593
-2.90649
-2.91845
-2.87107
-2.88799
-2.95047
-2.89264
-2.87283
-2.89492
-2.74313
-3.0314
-2.87505
-2.80934
-2.96369
-2.78818
-2.84456
-2.83931
-2.8522
-3.57784
-3.55532
-3.78371
-3.48775
-3.44755
-3.60139
-3.51051
-3.76136
-3.77427
-3.74301
-3.79466
-3.70142
-3.74951
-3.66804
-3.945
-3.91455
-3.97576
-4.06835
-3.92545
-4.10482
-3.52897
-2.9527
-4.22029
-5.30212
-4.79585
-5.21577
-6.90888
-4.68964
-5.1674
-5.04929
-5.18398
-5.35243
-4.81456
-4.63167
-5.81049
2.92767
2.49313
2.58089
2.88965
2.51583
2.53986
2.66982
2.61042
2.73129
2.21367
2.12548
1.90537
2.36554
2.54583
2.36083
2.06272
2.51131
2.32428
2.19151
2.15042
2.34474
2.54342
2.25719
3.25881
3.35247
3.30572
3.14535
3.45282
3.16457
3.44145
3.42653
3.1173
4.18368
4.05363
4.14114
3.84923
3.97457
4.12317
4.09535
27.9427
-103.918
29.9862
38.2728
-14.4272
239.872
52.629
-0.769968
-124.479
36.9443
-110.298
54.0452
12.0274
13.4075
-129.148
-34.0918
132.6
-62.4751
-56.9069
-32.6489
-8.47515
41.6529
24.9518
-129.916
-92.5221
-131.671
-104.513
28.8801
-143.952
-45.2207
-119.484
14.0167
-80.9527
-353.495
-147.229
-295.87
-103.056
-149.274
-134.548
-184.799
-185.574
-183.549
-183.132
-183.475
-183.937
-184.267
-13.1109
-160.088
-120.938
-65.5745
-41.284
-126.581
-77.9727
-86.327
-143.677
-88.9273
80.0361
-247.091
-62.2585
-127.383
43.2007
-43.5653
-13.7833
-15.4048
1.03407
74.9894
27.9751
6.77498
22.248
42.7839
-47.3734
-33.1206
73.8661
11.7871
26.9711
149.127
55.5387
-32.6991
-20.4304
-41.4348
-62.2204
-57.6522
-59.1408
-46.497
-47.0839
-50.2578
-40.6277
-43.9791
-52.7648
-33.4522
-22.6713
-6.0499
-23.9903
-15.2819
-38.9867
-39.7466
167.596
205.365
271.064
258.806
219.033
199.622
157.678
111.763
91.3005
194.274
173.398
209.372
152.854
145.122
21.9435
29.6354
28.8781
-4.0914
5.57739
26.5571
26.0124
-0.516724
-73.9112
40.9754
25.0287
11.3262
17.6506
3.5907
10.1823
6.65771
10.6644
11.3906
10.595
10.293
10.2241
11.2889
11.389
11.0257
11.0162
11.1037
10.7084
10.783
9.12471
9.38122
10.5821
10.2801
10.184
9.34632
9.59959
-6.99493
-5.7467
-6.72303
-9.54106
-9.48949
-7.79798
-8.32228
-18.6577
-20.9695
-23.1977
-16.7848
-13.5999
-17.6082
-19.3424
-14.9777
-17.4081
-10.7888
-8.29206
-10.8024
-15.9309
-15.3211
-4.58033
-2.00778
-5.37872
3.27077
-0.153916
-4.92649
-1.96686
3.18471
3.78022
4.95176
4.00078
3.62906
3.82795
4.11327
5.44185
6.83097
5.01658
4.12333
4.56515
3.21152
3.30937
3.9399
3.09549
9.93514
9.01152
-3.89019
-1.17672
-9.57686
-3.394
-7.32961
2.22872
3.75953
-2.75555
0.972988
2.0817
15.5708
-0.0171248
9.89338
2.80546
6.5225
8.92725
-2.57319
-9.95059
4.419
-13.5747
20.1163
14.7236
-8.49412
3.60422
-0.766592
-1.22369
12.5078
10.6145
8.88807
-7.00378
5.79684
6.58719
-9.83572
6.85534
14.4119
-7.9431
-8.23701
-12.0253
-8.04993
-9.57255
-10.5891
-13.2677
-6.1722
-6.98731
-4.47097
-6.1735
-5.82887
-1.89573
-3.05811
-2.51523
-4.93677
-2.49178
-3.90297
-4.89021
-6.75802
-6.30597
-6.45006
-4.9824
-5.89318
-5.93216
-5.35811
-2.0646
-2.34636
-3.03845
-1.59381
-2.44399
-2.42235
-1.51738
-2.62591
-2.74476
-2.64092
-2.70866
-2.49087
-2.5494
-2.55757
-2.59761
-2.58066
-2.61022
-2.61075
-2.62869
-2.98855
-2.84245
-3.00663
-2.95583
-3.22767
-3.02064
-3.17842
-2.49572
-2.5196
-2.60337
-2.59383
-2.64834
-2.81515
-2.68512
-2.7396
-2.6287
-2.67931
-2.91589
-2.97537
-2.88885
-2.83944
-2.8749
-2.87468
-2.89936
-2.93475
-2.91928
-2.84958
-2.89372
-2.86975
-2.84997
-2.85182
-2.85389
-2.84188
-2.82289
-2.91814
-2.90135
-2.9389
-2.85944
-2.87529
-2.90447
-2.87284
-2.89801
-2.84674
-2.80454
-2.95423
-2.92122
-2.94287
-2.96895
-2.95359
-2.98429
-2.97984
-2.89377
-2.95849
-2.96009
-2.9728
-2.92479
-2.974
-2.9778
-2.973
-2.99731
-3.00016
-2.99244
-3.00407
-3.00573
-3.00331
-3.13891
-3.0598
-3.13973
-3.07188
-3.14583
-3.07748
-3.1181
1.91729
2.11347
2.22154
1.88589
1.67134
1.88372
2.05537
2.48626
2.59539
2.59632
2.36211
2.64583
2.26383
2.45445
1.8808
1.66208
1.55594
1.67797
1.54082
1.6069
1.38027
2.50695
2.46923
2.68186
2.36457
2.11601
2.3797
2.34496
2.46789
2.41316
2.5506
2.53988
2.54563
2.50249
2.7717
2.74769
2.65475
2.41293
2.39737
2.44963
2.41493
2.37672
2.39608
2.40798
2.56011
2.76524
2.815
2.86718
2.93475
2.91192
2.84833
2.73281
2.5718
3.22371
3.31984
3.00986
3.33804
3.39798
3.26519
3.43604
3.35815
3.11668
3.0816
3.21433
2.86238
3.26473
3.28601
3.21194
3.08661
3.62972
3.62642
3.64671
3.5997
3.60046
3.61279
3.61692
3.57608
3.57915
3.43236
3.43131
3.41741
3.41082
3.50891
130.414
59.3707
110.655
53.1878
37.1656
51.7783
85.596
76.2608
45.348
102
92.7384
90.5252
132.234
95.2278
153.282
183.615
125.189
127.118
201.378
119.505
144.505
127.978
89.359
20.4257
166.497
135.381
99.8683
18.1728
186.525
185.335
151.006
237.053
228.222
241.388
243.44
242.756
232.442
106.621
208.344
207.421
146.326
121.955
-71.9405
-94.2215
-33.1232
-58.6075
58.8048
-4.71233
216.646
-134.984
23.9121
-77.3907
-29.833
56.1237
-162.803
-199.153
-156.842
-179.559
-176.282
-150.321
-160.582
-8.9994
-59.4656
-30.8425
-19.1493
-17.515
-11.2824
-4.8686
58.3977
2.33057
-25.3773
257.577
631.216
584.213
483.903
407.206
442.736
440.794
181.794
523.162
444.029
303.572
304.747
301.48
298.723
300.466
304.241
300.887
330.455
339.785
320.919
301.475
318.76
337.863
332.054
-11.5201
-13.7875
-15.6588
-6.44568
-8.23009
-11.8564
-9.45242
-9.35687
7.2417
0.510602
11.0716
11.2576
-6.35393
-21.8219
-3.2052
-8.51147
5.28369
2.71112
6.89853
4.90511
4.36399
20.9167
6.85138
1.90869
3.73268
2.95932
2.44227
4.39484
-4.81309
3.1015
-3.0528
-8.70988
8.33796
7.70732
5.62783
7.41536
6.91975
0.826786
6.2067
4.25652
5.01799
8.55023
7.66191
8.84273
7.66378
7.99024
8.50961
8.26659
9.01212
5.13563
14.0883
3.90334
7.52145
15.4013
14.2048
14.0996
-2.94175
2.74181
-3.6808
1.10925
0.659319
3.64747
70.1278
114.313
83.9189
102.069
171.817
119.941
89.7079
7.48968
5.19609
13.7624
22.373
17.1258
11.3516
42.6329
93.1242
172.255
120.816
129.449
192.465
-2.05162
24.5096
27.72
5.12131
8.7258
204.262
98.5949
197.931
43.9762
98.5802
16.8871
14.2372
8.85074
-1.61537
4.63215
-0.616614
4.44406
1.27327
2.96228
3.401
3.13124
4.14659
4.65497
-1.06611
2.97147
-3.81179
-5.3919
-4.46956
-0.74473
-3.62368
-3.87538
-7.19704
-2.54436
-1.13733
0.748815
-5.00117
-2.23676
-18.6147
-19.9606
-16.5416
-18.4653
-15.2471
-10.4674
-15.5818
-7.03359
-8.9198
-8.52458
-9.38471
-8.52393
-9.36558
-8.63746
-3.18292
-3.33269
-3.85282
-3.50031
-3.26379
-4.34413
-3.80051
-3.27093
-3.31727
-3.37494
-3.32929
-3.2815
-3.33545
-3.38869
-2.917
-2.95009
-2.93116
-3.00007
-2.9656
-3.00744
-3.00688
-3.00416
-3.01848
-3.05444
-2.99338
-2.95702
-2.99156
-2.96485
-2.98655
-2.95003
-3.00948
-3.01801
-3.01376
-3.00256
-3.00219
-3.01841
-3.03126
-2.90616
-3.20235
-2.83409
-2.9386
-2.93925
-2.68661
-3.17701
-2.83006
-3.0637
-6.25025
-3.13686
-5.54891
-5.54738
-3.16086
-6.95999
-5.0932
-5.45497
-236.662
-50.7017
-48.0175
-29.9233
-54.7921
47.751
-1.67862
-2.00774
-0.49691
-0.797804
-1.92105
3.03232
1.29926
0.0689947
-3.90192
-1.83896
-0.558125
-4.45253
1.50181
-1.15918
-1.78228
-2.14536
-2.30532
-2.45219
-2.31733
-2.14024
-2.07778
-0.788218
-1.80088
-1.6455
-2.57302
-2.42999
-3.01472
-2.62574
1.47096
1.23477
1.22023
1.34728
1.00636
0.644983
1.21256
-0.898112
-0.190298
-0.794893
-0.555964
-0.96628
-1.19256
-0.552772
-0.854364
-1.57688
1.63576
1.61872
1.42707
1.46016
1.03624
1.43115
1.65837
1.56995
1.55563
1.14854
1.27882
1.44062
1.04699
1.33025
1.93678
1.81984
2.21378
1.98974
2.25059
2.27835
2.55789
3.85206
3.59979
3.78712
3.81206
3.85455
3.79935
3.90571
3.41755
3.44447
3.31649
3.26389
3.10971
3.27028
3.39063
25.6125
26.3431
26.6299
17.7113
9.74194
6.85272
15.4248
15.0599
54.1182
11.0438
-39.8412
5.08019
19.1919
16.8229
-18.9061
13.5646
30.046
-8.29749
-4.74362
-60.2304
-35.5488
-20.2349
20.9923
233.601
154.851
192.047
166.343
159.818
189.343
171.248
149.655
254.49
169.713
255.036
207.673
259.636
181.443
182.526
184.7
190.853
151.932
167.971
155.082
120.325
220.121
122.359
99.3242
188.951
209.374
162.166
229.961
245.434
238.372
207.136
178.875
195.382
195.055
244.888
208.811
173.562
-14.7601
-8.22565
-30.2938
-29.139
-14.3427
-45.6173
-36.4582
96.3295
103.669
96.2661
184.148
111.666
193.876
143.573
293.655
257.597
307.412
240.592
265.394
304.211
253.406
345.492
335.831
340.294
309.836
304.136
318.005
324.26
1195.22
708.066
1585.11
691.086
839.165
926.2
1227.35
348.347
106.388
327.591
230.598
724.045
434.163
41.282
35.74
38.0107
37.842
33.7925
40.5542
40.6268
40.0572
29.7256
76.4369
37.1789
35.1641
75.8262
82.9436
153.588
220.948
105.468
263.309
252.87
157.554
207.106
426.46
308.829
401.05
391.014
413.468
312.135
379.343
261.177
244.518
262.036
407.069
281.704
352.336
271.793
288.156
264.115
261.031
176.72
25.5422
25.1206
142.092
175.501
87.4193
85.31
28.3368
16.9316
38.0255
29.8238
24.5472
14.2369
24.1612
23.5655
31.3804
33.7825
33.6737
36.0155
28.0955
22.8347
24.3698
22.7206
29.1074
16.6645
24.4784
19.5444
26.3752
-3.26052
-3.13583
-3.00013
-1.97382
-2.55946
-2.57735
-2.75619
-3.47015
-3.54788
-3.50761
-4.0776
-3.99262
-3.92846
-3.83238
-5.84544
-4.95505
-5.25613
-4.09563
-4.05302
-4.88653
-6.12319
-6.15594
-5.89827
-1.7236
-4.78684
-4.27452
3.91711
-5.82381
0.673253
33.9689
-20.341
-5.3185
-2.69316
-1.07232
-1.26337
-2.3349
-1.25754
-0.31335
-1.88286
-1.91934
-0.635077
0.488413
1.06841
0.685751
1.18706
1.23458
0.514615
-2.10835
-2.08595
-2.41852
-3.0625
-2.9578
-2.7739
-2.61297
-2.80158
-2.3962
-2.48812
-3.36043
-3.2151
-3.1146
-2.58575
-2.49976
-2.90754
-2.4098
-2.586
-2.31304
-2.80343
-2.97091
-2.83179
-2.95533
-2.85265
-2.7458
-2.61727
-2.18212
-2.35451
-2.61925
-2.26602
-2.4945
-2.91588
-2.80693
0.875112
0.342427
0.103108
0.548356
0.272133
0.385428
0.930945
1.81096
1.64436
2.3486
1.9088
1.77465
1.99997
2.47516
2.95201
3.12853
3.64475
2.76162
2.62276
2.76062
3.08322
3.47712
3.60525
3.23184
2.88629
3.08934
3.23311
3.13376
3.49083
3.35489
2.41416
2.72403
2.71847
2.4314
2.60567
2.75291
2.6744
4.29298
2.88484
1.53305
1.09458
0.0904575
3.12778
2.08491
5.32013
0.76486
1.39285
17.6044
9.81863
9.35202
2.20589
-1.2593
0.163707
2.07248
33.9788
-9.67994
1.39527
-0.470433
22.1482
11.7322
22.9716
29.1846
36.6441
5.24219
10.1343
37.5035
23.6083
27.7014
15.7393
16.0513
11.5963
-33.3709
199.399
8.56345
11.8872
13.8134
17.7995
19.9971
13.307
16.9769
41.7433
42.5598
44.2248
25.4688
19.8971
35.2156
33.8622
-0.807747
-1.07563
-1.73955
-0.0532761
-1.73977
-7.43772
6.62326
14.5894
7.80566
5.38984
17.9174
15.7705
3.17433
2.0229
2.45196
-9.27779
-4.8708
7.91113
7.10039
27.9062
3.6461
-6.67921
3.11306
-1.59891
50.6942
80.0842
56.1262
88.4409
55.6677
58.9399
27.7087
170.295
165.448
154.355
127.362
153.05
159.413
167.345
342.444
281.532
262.047
263.259
203.594
171.658
234.466
631.959
305.782
562.445
2730.69
1293.5
2384.15
2370.83
2807.7
3083.56
2259.23
2637.11
889.786
3124.01
2219.39
2578.67
2768.16
659.277
978.39
884.723
-141.203
520.377
-195.86
423.335
610.944
2916.78
1945.67
52.2882
385.434
404.082
382.182
462.104
132.934
197.061
-27.873
78.3009
383.403
186.906
203.372
151.114
178.34
132.597
137.358
110.743
-0.643404
-1.22613
-0.692697
-1.79833
-0.259609
1.02499
0.157005
-4.32796
-5.41393
-5.01692
-3.47418
-4.92664
-4.20929
-3.30463
12.7023
12.9967
9.96944
10.4526
15.0005
14.4146
12.0551
-0.838616
-6.77228
-8.61944
-5.46908
-4.79261
-7.44694
-6.30624
-2.2954
0.773119
-2.51207
7.92997
6.25571
4.35609
6.40473
-11.7314
-7.52258
-5.69107
-19.7019
-15.4803
-3.04818
-13.3572
1.24758
1.12874
1.2528
1.47062
1.09359
1.03965
1.26113
1.36844
1.63654
1.53886
1.44937
1.4144
1.47501
1.63104
1.45
1.35384
0.917403
0.50931
0.912158
1.38895
1.22366
0.769357
0.84322
-1.95048
-1.6289
-1.28318
-1.71445
-1.30367
-1.21919
-1.64587
-2.58794
-2.52025
-2.57902
-3.06252
-2.98504
-3.15175
-3.31032
-3.10455
-3.39948
-3.28784
-2.99559
-2.96052
-2.91917
-3.79753
-3.6771
-3.239
-3.82554
-3.45563
-3.47204
-3.39403
-3.18638
-3.30896
-3.61703
-3.63273
-3.66692
-3.65918
-1.59232
-1.48062
-1.22929
-1.44743
-1.36645
-0.855203
-1.05775
-1.03444
-1.15874
1.52553
1.14488
1.16257
1.36244
1.09653
1.26622
1.49346
2.18915
2.21378
2.34431
2.29668
2.20267
2.37175
2.13611
15.6569
9.35367
9.36135
1.66954
9.58062
0.776817
3.32547
-5.29425
8.71879
16.9204
8.69914
2.8804
10.0032
6.83548
-6.93809
7.6006
1.49343
3.97002
1.94846
2.40626
4.70146
1.43202
3.03142
-2.08248
12.5696
10.3582
3.58163
3.48772
3.51566
3.59204
3.54874
3.52647
3.57852
4.07143
4.36406
4.25329
4.48803
4.34469
4.25826
4.26899
4.41459
4.30312
4.63458
4.48451
4.40359
4.55037
4.65296
2.98425
3.17753
3.4278
2.58223
2.62724
2.65881
2.78596
2.04552
2.33506
2.4466
2.30228
2.46547
2.1445
2.35463
-1.73622
-1.50337
-2.86848
-1.13627
-0.779717
-1.40416
-1.91694
0.0587201
-0.910055
0.312619
-2.48659
-1.15039
0.267671
-0.692976
-1.53071
-2.03356
-1.51605
-1.17292
-1.72341
-5.53838
-5.1166
-7.12174
-7.89218
-7.4324
-10.0959
-10.7949
-6.68212
1.19162
0.971432
0.573193
-2.08422
0.129842
-2.77248
-3.16567
-3.33751
-2.89435
-1.03514
-3.92078
-4.45949
-4.41164
113.069
499.272
378.58
53.619
-135.407
-75.3687
-8.76537
15.3299
183.106
45.2988
318.777
-2.58114
17.0331
124.516
32.7189
-121.13
125.568
130.766
75.5536
51.8526
79.13
-49.4696
48.0815
-157.848
93.1998
7.23375
-382.775
-366.934
-347.062
-381.621
-390.444
-380.727
-381.485
-275.383
-99.9408
-109.486
-110.538
-237.437
160.656
-131.954
-111.188
-146.344
63.3947
162.336
-97.3707
179.822
-12.0139
-249.26
-259.743
87.067
310.118
98.237
164.181
89.515
-138.626
-63.4627
-52.7377
23.8916
-86.1867
86.4674
-166.303
-200.354
-119.037
-99.6307
-30.5531
-265.794
-146.068
-206.021
-175.703
2.99801
3.21114
3.15908
3.32169
3.27643
3.27643
3.20065
3.21178
2.91206
3.09897
3.04476
2.84062
3.10393
2.9666
-2.78975
-2.58606
-2.01035
-1.67683
-1.79218
-2.79451
-2.6354
-3.66285
-3.84156
-3.78059
-3.13129
-2.87352
-3.62493
-2.94197
-2.73121
-2.60325
-3.0716
-3.41885
-3.08564
-3.2728
-2.97971
-3.07098
-3.17126
-2.95305
-3.02054
-3.14781
-3.50706
-3.01704
-3.29058
-2.90233
-2.98638
-2.85779
-2.75787
-2.7729
-2.78954
-2.76407
-2.94464
-2.79871
-2.75123
-2.64086
-2.85887
-2.62244
-2.58528
-2.73064
-2.66244
-2.82304
-2.6239
-2.61137
-2.73715
-2.63654
-2.5657
-2.70274
-0.966954
-0.879756
-0.798428
-0.721009
-0.63842
-0.764981
-0.80579
2.09247
-0.2559
0.412574
-0.966494
2.14127
-0.717182
9.20476
1.21118
12.9388
3.18437
-1.45051
1.84706
3.39796
1.67521
6.75889
7.04344
1.86038
3.4079
3.15919
3.20217
3.46145
3.47459
3.32778
3.29127
3.16352
2.99125
3.08441
3.0766
3.13502
2.98046
3.10242
3.41721
3.40317
3.37654
3.2722
3.33152
3.29454
3.34516
3.51465
3.44259
3.52079
3.59696
3.5355
3.4604
3.5433
3.57419
3.52903
3.59193
3.58346
3.58741
3.55213
3.5084
3.82791
3.74118
3.77726
3.82666
3.8086
3.75715
3.6997
3.63843
3.67588
3.5978
3.66338
3.62553
3.5977
3.55731
2.90858
2.75565
3.12786
3.14258
3.29231
3.0946
2.92513
3.6938
3.57554
3.60897
3.62254
3.51374
3.51644
3.62924
3.52801
3.50981
3.17994
2.97551
2.91023
2.22339
2.79299
2.18443
2.22056
2.4052
2.07084
2.43192
1.91832
2.26482
3.38801
3.06411
3.13957
2.9141
2.5364
3.49403
3.33373
2.5335
2.48082
1.08689
-0.030903
-0.514496
0.599432
0.312964
-0.00599628
0.809333
3.03584
4.3387
3.63016
3.01442
3.18669
2.51382
2.57336
0.773612
-0.41912
0.141218
-0.418117
0.828028
1.48251
1.70729
2.53049
2.45457
0.800919
2.18311
2.17879
1.88125
2.46177
2.44339
2.95147
4.64897
3.86921
5.10687
4.74253
3.45762
36.3355
29.3104
87.9892
48.7087
52.1215
50.4409
46.5705
122.46
59.4664
-12.4317
374.648
253.685
357.696
198.674
132.523
344.779
228.946
12.9228
86.2821
39.6284
63.6717
-63.5319
81.655
156.291
360.786
246.182
390.424
306.42
355.128
458.232
556.114
393.473
365.625
213.5
-61.7962
53.6221
146.986
-144.932
-239.485
177.716
-1.15638
49.4918
77.3266
75.8537
71.1766
119.73
73.887
47.4754
472.108
479.744
412.155
482.681
484.545
479.77
451.781
82.5624
215.519
247.644
180.776
219.24
470.951
340.373
279.705
367.606
3.99989
51.9611
34.6436
27.9631
77.5371
135.766
42.4637
25.6648
106.104
-102.936
-27.339
-83.5785
-95.3667
-146.858
-51.1096
-97.8203
-361.084
-351.435
-247.399
-358.474
-367.593
-273.974
-323.102
-368.532
-375.08
-379.281
-360.027
-360.797
-381.545
-372.467
-370.268
-365.652
-369.419
-370.739
-369.809
-371.85
-369.883
-395.989
-421.95
-386.131
-374.471
-425.305
-392.94
-384.865
-266.888
-455.536
-392.225
-459.317
-515.204
-344.758
-430.785
-202.071
-87.5565
-472.778
-386.739
-454.6
-209.187
-363.66
-369.058
-341.443
-292.252
-335.344
-71.9363
-186.85
-431.435
-326.199
-176.084
69.9069
-441.646
-404.896
-452.509
-464.601
-436.913
-369.199
-379.242
-369.928
-369.734
-374.766
-369.291
-368.217
-367.557
-371.227
-371.251
-372.431
-371.219
-376.707
-371.978
-378.678
-376.016
658.611
489.165
597.741
286.114
559.977
544.118
227.439
1773.62
1814.59
1795.82
1148.03
1571.75
1743.21
1231.03
1264.57
1376.53
1394.1
1253.98
831.77
1130.57
1153.08
1204.21
1312.4
1548.9
1442.18
1487.25
1503.98
-321.408
-218.53
-289.767
-281.912
-335.413
-355.987
-323.154
-87.5425
-170.33
-139.38
-34.183
-55.3321
-190.684
-109.386
-134.388
-85.4961
-6.94486
-138.152
-148.101
-129.873
-95.1746
6.28319
6.21053
5.93365
5.72798
5.89487
6.50071
6.03915
7.58028
7.47631
8.53399
7.68847
7.20905
6.52253
8.44021
9.44689
9.20378
8.23641
7.7769
6.5812
9.09372
8.99977
7.56187
8.02145
10.7828
10.9568
13.7498
11.2623
10.2952
11.0435
12.2006
6.6846
38.7853
4.46708
22.7073
-38.5629
-3.83988
14.0222
-5.2401
-2.53053
10.4123
9.40861
-12.8758
7.81951
-6.52717
6.94223
7.86017
2.72929
23.785
-1.89908
23.222
19.8609
4.34799
0.729604
3.53996
2.63839
2.7834
5.75376
7.74047
3.05599
3.43648
2.91619
2.91229
2.84665
2.95061
2.9831
3.08012
2.77467
2.99804
3.05408
2.98641
2.65729
3.06004
2.79371
2.52855
2.36879
2.13195
2.0494
2.22856
1.87483
1.59573
1.93608
2.17762
0.824721
1.31978
1.39021
1.07724
0.818032
0.530762
0.995228
-0.64322
-0.866673
-0.235125
-0.428803
-0.679891
-0.533374
-0.2053
-0.777077
-0.679552
-0.718886
-0.550311
-1.00124
-0.887906
-0.619857
-1.28433
-0.957008
-1.33211
-1.2107
-1.46965
-1.91017
-1.61936
-1.91483
-2.00288
-1.78881
-1.53481
-1.80673
-2.51389
-2.57389
-2.46882
-2.14928
-2.54832
-2.43458
-2.34218
-2.88941
-2.65717
-2.64484
-2.67488
-2.38146
-2.58961
-2.83611
-2.73491
-2.77195
-2.64956
-2.51577
-2.6598
-2.85877
-2.81244
-2.90965
-2.8176
-2.74246
-2.4425
-2.71395
-2.68656
-2.73351
-2.98695
-3.02579
-3.51913
-2.65807
-3.76627
-3.26204
-3.6647
-3.64716
-3.1768
-2.48653
2.94255
-20.2139
5.67628
-2.89774
5.7442
6.67946
-3.38629
-2.42533
-35.1945
-8.48574
4.0646
0.194993
7.56696
3.29497
0.916271
-7.98241
-1.3042
-0.450201
-0.649972
-0.222735
-0.562955
-1.4708
-0.841598
-0.371826
-0.966671
-4.30146
-10.1622
-1.04823
-0.369171
0.636964
-3.65613
-2.92549
3.1397
2.75267
2.05358
1.8302
1.69769
2.46222
2.28549
1.78188
1.59372
1.6603
0.955943
0.988867
0.87099
1.22462
3.51839
3.29879
3.48514
3.71281
3.54382
3.59422
3.71063
3.63987
3.36305
3.37033
3.21746
3.29356
3.67614
3.7251
3.73543
3.56808
3.48452
3.65865
3.68066
3.92135
3.80148
3.89867
3.83832
3.90358
3.92018
3.91658
3.91206
3.8082
3.84661
3.83707
3.81121
3.77327
3.81671
3.3175
3.46868
3.46588
3.03918
3.23255
3.78373
3.73083
3.71915
3.71162
3.91242
3.73021
3.68833
3.66199
3.59911
3.51835
3.70899
3.67205
3.71881
3.70837
2.60318
2.78655
2.69386
2.50904
2.31811
2.73229
2.75361
1.68948
1.59009
1.51634
1.30519
1.26273
1.34631
1.25846
1.60353
1.64014
2.55528
2.39865
2.29685
2.25369
1.81462
2.14791
2.47046
1.26681
1.17962
1.23814
1.43796
1.45465
1.41267
1.34953
1.62739
1.2759
1.27173
1.37252
1.27184
1.8509
1.87743
2.2315
1.95898
2.01468
2.53005
2.32752
3.54333
3.20216
3.03563
2.96424
1.69898
3.53159
3.29293
5.77695
6.26492
6.11795
6.07081
7.10136
6.58283
6.7329
4.80515
6.8589
4.82852
4.69275
3.81518
5.55429
5.51736
7.67742
7.7672
8.01786
8.0562
7.67738
8.88555
8.27008
7.70973
7.46708
8.48009
7.7676
7.40716
9.78899
7.87266
9.75576
8.05593
9.11708
8.82533
9.45802
4.75934
3.59786
9.30913
1.63493
5.41166
6.10982
2.98842
406.416
346.797
379.729
705.712
566.416
656.914
470.192
511.052
447.271
536.83
498.813
579.145
489.996
711.225
663.286
666.337
603.188
667.471
665.985
568.036
618.643
650.562
764.33
709.949
626.641
708.699
-224.556
-183.333
-338.361
-316.468
-233.056
-376.114
-376.311
-318.12
-231.836
-311.854
-347.186
-300.331
-323.588
-390.358
-63.8461
60.2364
-1.90847
-212.128
-168.679
-434.32
-472.991
-375.161
-240.98
-423.98
-144.94
-71.5774
-67.0316
-326.457
-349.69
37.1745
143.237
-2.8479
-62.6619
-117.621
-48.7177
-35.304
-398.113
-380.644
-400.999
-399.083
-177.477
-312.567
240.831
166.935
111.309
363.867
694.86
562.431
291.835
284.082
438.9
336.252
417.309
492.233
572.496
485.539
502.476
678.778
539.337
581.979
775.292
751.878
749.089
970.493
787.375
326.339
471.854
513.509
564.454
421.607
420.083
479.318
597.49
329.559
467.2
481.408
407.95
371.483
682.904
708.581
756.269
503.004
594.149
654.429
700.546
767.861
758.1
664.939
579.057
550.804
490.446
575.781
690.738
629.966
545.409
185.99
255.776
273.061
207.581
435.069
70.6555
35.5388
22.8668
81.8895
153.148
30.8041
24.1307
35.8738
42.5863
42.6821
35.7103
40.5276
6.43507
3.7716
6.39766
12.1639
8.87069
2.75937
6.76534
4.45041
1.47363
3.94396
5.46923