/*--------------------------------*- C++ -*----------------------------------*\
| =========                 |                                                 |
| \\      /  F ield         | OpenFOAM: The Open Source CFD Toolbox           |
|  \\    /   O peration     | Version:  v2012                                 |
|   \\  /    A nd           | Website:  www.openfoam.com                      |
|    \\/     M anipulation  |                                                 |
\*---------------------------------------------------------------------------*/
FoamFile
{
    version     2.0;
    format      ascii;
    class       volScalarField;
    location    "0.45";
    object      p_rgh;
}
// * * * * * * * * * * * * * * * * * * * * * * * * * * * * * * * * * * * * * //

dimensions      [1 -1 -2 0 0 0 0];


internalField   nonuniform List<scalar> 
6576
(
2756.74
2731.37
2740.04
2745.1
2761.62
2769.02
2744.31
2748.3
2763.58
2753.84
2795.66
2778.74
2767.36
2776.27
2744.5
2750.23
2717.08
2743.53
2746.81
2793.77
2725.36
2784.08
2788.06
2740.75
2773.14
2804.25
2853.89
2767.02
2726.72
2731.3
2750.91
2711.8
2750.1
2773.12
2765.5
2787.69
2761.76
2789.98
2746.67
2769.31
2733.42
2726.45
2753.13
1715.23
1405.5
1857.95
1499.48
1622.87
1894.54
1938.14
1658.78
1787.01
-0.721133
-1.29295
-0.487451
-1.1299
-2.00751
-2.60739
-1.34703
0.0274324
-0.379489
-0.0629061
0.0861438
0.0627868
0.105822
-0.00350309
1.05874
0.900536
0.805788
0.800616
0.871804
0.569195
0.69441
13.6663
15.1037
12.9391
13.098
13.2516
13.1174
12.8551
17.2936
18.0081
20.8727
18.7403
18.2047
23.8117
18.2482
506.991
432.904
411.28
434.373
433.206
467.994
506.187
343.059
352.896
375.391
317.31
316.972
392.155
394.475
656.413
828.869
621.755
702.344
678.815
613.213
557.549
1830.2
1831.21
1805.12
1768.3
1858.81
2116.96
-0.220254
0.070087
0.335108
0.345492
0.516011
0.525181
0.109374
873.108
2351.69
2535.95
2518.68
2286.91
2756.43
2739.69
0.850589
-0.291328
0.284489
-0.206412
-1.32228
0.439683
-2.22471
-5.39037
-4.97112
-5.53585
-2.82143
-3.36869
-3.01755
-3.29394
-4.35967
-3.23915
-5.96308
-2.14848
-0.78758
-2.43834
-2.12368
-6.75761
-7.6053
-8.39702
-6.46497
-10.0095
-9.96205
-7.73003
-3.46319
-2.92598
-1.83027
-2.95954
-2.41441
-1.21198
-0.745986
-1.51429
-1.69829
-3.2795
-3.71608
-3.1196
-3.24208
-4.19424
-4.19336
-3.48213
-2.12877
-1.91367
-1.6471
-2.11956
-1.95711
-1.436
-1.56427
-1.5074
-1.4251
-1.52082
-1.49447
-1.45008
-1.54925
-1.5625
-1.4075
-1.77152
-1.62438
-1.60795
-1.32202
-1.36166
-1.16156
-1.35595
-1.43565
-1.32218
-1.44364
-2.73343
-1.40885
-2.02658
-1.88852
-2.40308
-1.69061
-1.51824
-0.0980929
-0.761413
-1.26287
-1.99361
-1.28771
-1.94065
-2.28452
-1.27652
-2.69617
-0.0390424
2.09476
0.062028
-2.29684
-2.60841
-0.683344
-0.623753
-0.716651
-0.747934
-0.668998
-0.687599
-0.780435
-0.912676
-0.809489
-0.953501
-0.902506
-0.967584
-1.07786
-1.0043
-1.3428
-1.41263
-1.39185
-1.2853
-1.33811
-1.3496
-1.32549
-1.99927
-1.78397
-1.99488
-1.73868
-1.66525
-1.92899
-1.90576
-2.85492
-3.39917
-3.35161
-2.64522
-2.45687
-2.76982
-2.63374
-3.06201
-3.11551
-6.85247
-8.19239
-9.3078
-4.95239
-6.3295
-6.45603
-7.81196
-9.15502
-12.5613
-13.0689
-5.71769
-4.60973
-9.04287
-10.5966
920.896
924.022
788.985
1092
814.421
751.667
1362.93
774.005
1258.27
1167.3
1167.63
1108.33
1040.42
743.091
980.327
494.602
12.0389
-78.731
207.197
141.253
223.982
44.4357
41.3321
111.596
40.1171
1111.09
1073.05
1124.96
261.095
440.537
-16.3068
486.211
439.571
142.83
333.15
4.77114
4.37876
4.45671
4.55248
4.88511
5.53247
4.76156
632.243
170.882
3.64559
291.698
29.7473
5.35635
4.76793
4.67053
4.83855
2.22864
7.90941
2.14818
12.8295
4.62279
19.6979
11.9298
-182.863
-183.438
-182.916
-183.539
-183.38
-182.345
-182.161
-181.126
-182.449
-183.146
-181.762
-184.505
-183.672
-183.479
-182.588
-181.35
-174.091
-169.646
-159.198
-171.319
-169.372
-115.148
-44.4462
-82.4152
-154.282
415.998
793.048
357.178
444.04
528.669
281.494
514.986
1190.62
1053.08
1085.07
1197.32
971.976
420.131
895.661
1113.87
1402.87
-147.656
-168.182
-134.356
-135.964
-79.9814
-152.922
-153.667
-182.866
-183.802
-182.925
-182.929
-184.549
-182.837
-182.71
1.49422
0.777902
0.972341
3.56439
1.6502
1.08437
4.37255
0.822542
1.09693
12.5726
18.7894
14.4331
19.3472
23.873
34.7356
18.1545
9.81708
9.37579
8.53192
9.40188
10.1388
9.15915
9.46905
11.8988
9.81864
16.9415
46.9866
187.872
14.4646
15.6803
16.3115
15.907
1488.06
1485.43
1453.04
1276.73
1415.65
1459.61
1472.97
-3.11814
-2.51404
-2.31627
-3.31355
-2.64606
-2.66842
-2.27647
-1.65212
-1.34313
-0.969709
-0.674799
-0.838379
-0.311516
-0.344688
-1.97615
-1.59347
-0.618072
-2.65841
-3.01038
-1.98904
-1.08262
-3.83283
-1.61447
-2.82971
-3.70532
-2.53666
-3.91394
-3.83328
-3.83914
-4.08414
2.20767
3.47436
6.73016
-4.4709
12.6727
2.22958
1.31382
232.615
277.946
17.6307
715.72
238.125
575.265
426.719
13.36
13.5642
135.002
16.5304
311.538
9.55068
792.304
887.937
899.097
890.239
718.694
891.437
916.75
911.927
892.649
802.836
853.942
896.832
859.01
879.711
850.683
893.907
648.86
586.081
798.896
793.696
888.105
-4.44357
-9.5772
-7.84889
-7.14614
0.659366
1.64089
-5.22171
-11.1119
-11.696
-5.61777
-6.77845
-11.6484
-11.8047
-9.20467
-11.2415
-0.880446
-11.9949
0.0750226
-0.842677
-1.24848
0.280534
0.623233
0.060142
0.321308
-0.410572
-0.179645
-0.0185206
0.624214
-0.907337
0.952226
0.747407
-0.0779499
0.441906
0.599818
1.84947
0.0535777
0.757809
0.0328385
0.0984856
0.387853
0.305975
-0.00466348
0.030403
0.0342445
0.316397
-0.0587325
0.0783562
-0.00618597
0.0625951
0.0372468
0.148571
-0.448645
-0.652966
-0.532445
-0.710596
-0.542892
-0.660124
-0.531325
-0.941777
-0.714373
-0.839583
-1.01231
-0.82902
-0.69467
-0.827637
-1.45406
-1.259
-1.06903
-1.31342
-1.18278
-1.21831
-1.40727
-2.84781
-2.91546
-2.49939
-2.75432
-3.06359
-2.02425
-1.88124
-1.93079
-1.82688
-1.90126
-1.87228
-1.94759
-1.5847
-1.42985
-1.45678
-1.59474
-1.45928
-1.4545
-1.55138
-0.457041
-0.196823
2.39667
-1.59222
1.77525
-0.940934
-2.02303
3.01609
3.03387
3.03784
3.07296
3.03999
3.06271
3.09025
2.92142
2.85043
2.90302
3.06166
2.91585
2.98297
2.86742
2.83864
2.93825
3.52037
3.60409
3.54619
3.47878
3.44573
3.46191
3.44873
5.30881
5.56953
6.59124
6.18416
6.04783
16.9737
6.18137
1105.55
282.613
356.001
1074.44
983.126
1041.33
710.174
974.364
1042.33
976.609
1095.63
1014.71
1062.42
1106.31
-175.899
-165.504
-160.849
-177.868
-172.093
-177.31
-165.944
-44.8774
-11.1737
-11.6993
-16.7274
-70.5632
44.3685
-16.0975
-110.693
-165.382
206.96
-39.5214
136.345
164.525
31.958
139.266
62.0585
213.876
274.235
29.0653
-95.0196
47.2625
67.5061
83.0912
-52.051
-71.0529
-101.031
-83.5157
77.1189
112.922
55.7101
126.356
7.78591
109.734
-61.5422
56.801
39.9689
65.8862
-55.9323
-23.7874
-148.554
202.067
171.972
177.404
94.8127
50.4468
-96.3245
-162.084
-148.885
-127.58
-155.4
-110.161
-129.714
57.6361
68.34
29.7343
-7.07292
94.318
324.578
331.216
360.375
-180.471
-175.905
-178.721
-178.212
-175.638
-176.282
-178.736
109.218
-142.272
68.7647
-173.351
-101.985
574.901
170.105
224.857
608.417
-204.609
33.7467
667.365
699.771
688.833
1219.77
-43.3598
26.8045
-5.45352
37.1831
-35.9656
36.5025
-20.1671
301.634
203.806
166.648
166.26
271.77
45.4653
-34.1289
69.4313
20.1635
467.022
328.371
298.091
-188.91
-218.356
-226.485
-160.478
-162.685
-115.746
-4.12162
-171.882
-138.315
-134.99
104.912
54.5422
66.0977
49.8132
23.429
-69.5699
-3.4474
83.6061
9.47069
-8.06231
-193.712
-109.545
179.66
-24.1934
-36.3303
40.225
-128.864
-161.753
6.13296
-101.062
-121.307
-94.6721
-71.6531
-115.168
-179.505
-172.966
-160.175
-153.043
-111.243
-158.989
-81.6996
-102.212
-75.3847
-77.2694
-131.01
-72.2294
-84.8555
336.675
334.931
342.282
358.926
369.624
356.921
396.256
455.84
431.489
464.534
362.928
412.799
435.449
411.432
423.948
474.92
422.325
421.624
442.433
404.25
463.618
1.35569
199.35
81.1897
113.683
271.145
18.1606
243.491
11.5702
4.00885
0.011611
22.0145
30.9358
17.7119
14.2057
10.1191
0.785442
13.1137
0.20822
36.7359
87.3405
37.4495
34.22
84.4333
49.4756
45.574
0.753781
0.850471
1.16611
-0.780971
-1.40043
-1.4188
-0.697583
0.652461
1.39381
0.52582
0.287309
0.704281
0.314562
-0.0963339
-1.51404
-2.1738
-2.1509
-1.67394
-3.31703
-18.9618
-19.0695
-15.7869
-19.4424
-20.1586
-19.7375
-18.2356
-11.6982
-10.8364
-15.9997
-6.48842
-10.4693
-13.5507
-9.1073
7.55899
8.02825
6.10769
7.63692
8.01921
8.66995
6.30831
1176.34
987.268
589.071
1178.52
1160.62
1153.46
846.641
91.3621
157.296
526.805
38.9872
485.457
388.897
635.858
406.872
1136.79
259.849
1128.03
1126.98
263.809
677.471
771.708
810.753
1116.8
714.625
-1.2019
349.766
713.681
593.271
52.5391
41.0709
391.85
699.724
611.315
471.834
853.191
708.138
712.068
4.96696
1.5033
4.671
2.78956
1.36196
3.10272
3.78007
0.327767
1.08782
1.89561
2.99708
1.98168
2.90577
3.81315
0.335485
0.499364
0.481463
0.323772
0.975815
0.357112
0.405749
0.321878
0.944282
0.623456
-0.53748
0.0342446
-0.0224597
0.274154
0.0945198
-0.0532499
0.10705
0.380446
0.154023
0.018498
0.34919
0.30149
0.144648
0.16013
0.0221676
0.298532
0.222211
0.19264
0.243107
0.0819542
0.160118
0.0218003
0.0682292
0.152219
0.064657
0.00410127
0.00558755
0.0267366
0.00537001
-0.0263849
0.00516879
0.00738955
0.0115796
0.0442072
-0.273033
-0.0768227
0.00699491
-0.124025
0.0116518
-0.0671702
-0.0229768
-0.0214624
-1.0159
-0.980135
-1.24798
-0.872031
-0.859217
-1.03932
-0.922128
-1.30017
-1.29994
-1.25554
-1.3072
-1.18768
-1.26205
-1.1543
-1.58016
-1.56285
-1.65034
-1.6641
-1.54748
-1.72247
-1.1729
-0.583493
-1.83795
-2.8935
-2.41351
-2.80715
-4.64915
-2.46772
-2.91727
-2.75015
-2.91111
-3.06643
-2.55483
-2.39822
-3.55077
4.97749
4.51885
4.64401
4.95278
4.57197
4.64297
4.77619
4.68805
4.82123
3.96156
3.87718
3.63214
4.08748
4.27367
4.08615
3.76294
4.23331
4.05758
3.8645
3.83496
4.00564
4.23813
3.92284
4.78552
4.84537
4.85423
4.67976
4.95894
4.7836
5.01058
4.95907
4.70681
6.91098
6.38846
6.93728
6.26658
6.35048
6.86134
6.43889
653.545
538.608
674.205
697.711
511.883
765.968
555.667
532.454
400.9
546.647
244.536
484.334
356.654
378.044
208.72
491.288
626.207
469.949
458.35
498.212
522.262
475.981
444.283
298.552
322.101
281.617
352.043
429.698
315.757
371.045
363.071
429.56
398.807
-33.5987
207.001
73.0912
144.267
-0.777206
16.1582
-184.122
-184.851
-182.827
-182.437
-182.891
-183.307
-183.59
13.3504
-139.803
-75.259
-43.242
-25.4898
-106.564
-58.4422
-58.8751
-116.012
-61.8811
83.8986
-223.909
-39.5901
-115.249
55.3344
-39.0949
17.4941
15.888
17.8869
98.6052
53.8574
43.1769
35.5795
53.1846
-18.6217
1.13678
97.926
22.8073
45.2633
159.528
77.6697
-26.66
12.7845
-22.1264
-50.991
-33.4959
-47.063
-42.8591
-15.9235
-44.1753
-38.141
-40.943
-49.177
-29.8324
-5.86534
0.315808
-16.5716
-12.757
-34.429
-36.7105
394.248
399.582
354.039
338.129
295.487
284.693
264.301
483.257
488.415
552.958
396.199
447.502
394.185
394.81
305.326
42.6537
617.984
62.7746
655.658
101.172
111.131
90.1481
294.409
812.938
785.58
794.697
408.684
396.83
32.3317
19.6663
16.4308
17.2329
16.789
33.0354
21.1951
13.1625
13.4086
12.8774
12.8687
16.7798
15.3186
14.6697
18.1791
18.2271
19.7323
45.0772
29.3242
24.6548
26.9239
-5.15098
-3.91596
-4.86615
-7.65046
-7.63032
-5.94058
-6.43764
-16.7119
-19.0104
-21.213
-14.8525
-11.6943
-15.671
-17.3837
-13.0153
-15.4193
-8.83948
-6.32948
-8.8647
-13.9421
-13.3577
-2.51323
0.00731615
-3.36035
5.29945
1.85885
-2.60151
0.200989
5.44531
6.06958
6.99172
6.2605
5.8963
6.09699
6.43765
8.29724
9.3528
7.34334
6.37061
6.76324
5.53037
5.59955
6.19542
5.42569
865.554
795.388
919.359
653.151
440.075
697.627
615.925
800.57
30.8871
435.882
925.337
1256.36
819.01
450.208
562.444
567.125
578.917
580.557
526.26
523.032
498.812
1058.85
1079.63
1072.78
576.124
65.7992
1045.83
815.938
534.198
568.894
576.369
686.078
1066.17
258.238
910.623
633.983
1186.6
-3.27447
-4.23223
-8.06
-4.43802
-2.3549
-6.70392
-8.65033
-3.64743
-2.73586
-0.831506
-3.60734
-3.3401
4.02696
1.15155
2.07596
-0.369296
2.19388
0.752733
1.39501
-4.18105
-3.77203
-3.88743
-2.39108
-3.34773
-3.57657
-2.88434
0.578416
0.211994
-0.142794
0.976695
0.185646
0.379058
1.1712
0.0544157
-0.0502892
0.0792631
-0.0414845
0.15003
0.280623
0.247212
0.194176
0.248607
0.192759
0.192463
0.148247
-0.351282
-0.179652
-0.330002
-0.263927
-0.564357
-0.357843
-0.541401
0.309003
0.309911
0.186721
0.211315
0.180969
-0.0118826
0.0937682
0.153472
0.251224
0.226905
-0.0225156
-0.0553769
0.000388423
0.0276536
0.0185247
0.00256246
-0.0496328
-0.0267718
0.0151036
0.032141
0.0308872
0.0285713
0.0397142
0.0465005
0.0181515
0.00838637
0.0536565
0.00984311
0.0266293
-0.00040639
0.0422625
0.0264092
0.00774279
0.0130867
0.0081945
0.0463207
0.0753801
-0.0278718
0.00512907
-0.00600175
-0.0688788
-0.0535218
-0.0737031
-0.0692561
-0.0208582
-0.111856
-0.0740393
-0.126172
-0.051874
-0.0748029
-0.104893
-0.0489881
-0.0995774
-0.106809
-0.0684266
-0.106336
-0.125519
-0.0968184
-0.336105
-0.230708
-0.350059
-0.269061
-0.369298
-0.248382
-0.315288
4.65347
4.93361
5.48959
5.22337
4.79756
4.96864
5.35878
5.3778
5.52695
5.75947
5.60068
5.63353
5.50214
5.59914
4.71735
4.13718
4.16934
4.13993
4.02905
4.66883
4.12938
4.81568
4.82143
4.99524
4.63751
4.46019
4.6267
4.62996
4.75194
4.65838
4.73004
4.73062
4.71174
4.73815
4.97444
4.93419
4.86957
4.54448
4.55949
4.5928
4.5523
4.54219
4.50718
4.54709
4.63527
5.05458
4.76589
4.83123
4.92709
4.87286
4.83553
4.67505
4.54724
5.18305
5.30403
4.97294
5.55909
5.35062
5.20047
5.38855
5.32925
5.06431
4.91326
5.32237
4.92728
6.05144
6.07669
5.2324
5.35544
5.46111
6.40893
5.88654
5.36005
5.84493
6.76241
5.84763
5.22329
5.21058
5.10301
5.06777
5.28257
5.08815
5.13003
986.837
1127.97
1470.51
1453.73
1106.65
1411.87
1463.39
1502.39
1446.67
1472.18
1410.4
1516.17
1300.71
1467.25
1432.09
1330.85
1235.28
1371.66
1428.3
1373.03
1331.54
802.05
980.958
912.785
700.514
761.69
962.464
572.855
808.792
1137.01
1147.37
1095.3
1108.69
876.211
892.078
771.806
1124.78
652.225
806.773
733.523
767.864
737.001
445.758
547.164
489.311
505.456
646.148
590.259
808.275
443.776
526.094
428.749
419.114
483.479
-44.4792
-158.936
-50.5561
-149.579
-168.445
-103.915
-132.24
1.37594
-56.8182
-23.966
4.25379
-13.9034
-9.12702
0.530767
62.0685
9.49961
-13.2452
269.28
642.918
588.524
514.084
431.272
458.036
463.504
204.398
558.271
473.764
304.497
305.593
302.511
299.871
301.812
305.236
302.032
332.967
372.962
364.713
307.758
320.037
339.641
371.717
-9.00451
-0.444518
-12.109
-4.08312
-5.95815
-6.98757
-5.58475
49.8187
54.8957
46.3088
278.74
53.0742
127.882
62.5521
18.6095
17.8984
7.65001
4.94837
9.13145
6.70535
5.97764
366.434
116.471
5.49883
5.41095
18.3151
3.99261
5.99967
2.90023
7.21224
0.246717
-7.19357
10.0447
11.4307
10.6856
8.80281
12.6769
29.2054
13.328
30.2247
9.71599
31.0608
19.0653
9.87645
32.672
17.5469
22.4267
9.29603
10.7639
6.91497
15.8314
5.682
9.27374
17.1547
15.9318
17.6433
1.80905
6.48491
3.5991
15.8343
12.0407
12.6932
1534.35
1576.08
1616.21
1400.41
1823.48
1665.1
1407.03
1509.22
879.934
1315.21
1533.22
1549.86
1530.71
1540.11
1386.21
1709.83
1417.03
1716.56
1846.07
939.052
912.747
903.275
1168.7
1514.95
1762.56
1731.42
1841.88
1713.19
1640.58
574.738
46.5789
70.8867
30.863
1245.26
443.423
457.473
448.309
5.16035
5.64133
5.36827
6.30238
6.83895
1.39602
5.06321
-1.75398
-3.04137
-2.48555
1.49123
-1.03701
-1.62787
-5.04776
-0.22276
1.01165
3.07289
-2.86166
-0.037729
-16.5103
-17.8847
-14.478
-16.378
-13.1408
-8.38602
-13.5299
-4.6226
-6.56774
-6.20206
-7.14705
-6.24767
-7.05549
-6.30681
-0.699456
-0.823215
-1.38276
-1.04324
-0.780591
-1.91343
-1.34359
-0.608267
-0.64147
-0.738559
-0.666632
-0.592563
-0.672772
-0.752309
-0.0107932
-0.057022
-0.0512417
-0.106717
-0.0459602
-0.11847
-0.139812
-0.110804
-0.14265
-0.204899
-0.08543
-0.0227769
-0.10989
-0.0384983
-0.0601994
-0.0131626
-0.109419
-0.117954
-0.103184
-0.0919857
-0.095997
-0.125359
-0.151355
0.00176879
-0.268114
0.0607059
-0.0306598
-0.0576076
0.221324
-0.283978
0.0761136
-0.183854
-3.48263
-0.384205
-2.76814
-2.77978
-0.419537
-4.19235
-2.29936
355.079
1685.85
2729.48
2745.37
2737.23
2685.19
2766.61
11.2404
0.866745
12.4501
2.07525
3.87247
8.95857
214.198
5.34259
86.7719
1.00123
4.72369
1.15715
678.719
1.96708
1.09831
1.03036
0.600763
0.44696
0.74649
2.58747
0.819983
9.78852
3.81332
6.70806
0.581162
8.97818
4.17747
9.27717
3.90168
3.69182
3.69197
3.80427
3.48962
3.15556
3.69745
1.71769
2.39949
1.78148
1.98099
1.59744
1.42345
2.03785
1.70908
1.01313
3.96125
3.97048
3.79207
3.83821
3.44066
3.8092
4.01014
3.91733
3.87674
3.50907
3.62625
3.76176
3.42092
3.67799
4.21054
4.1193
4.47387
4.26358
4.49836
4.52597
4.77914
5.89724
5.63182
5.79288
5.84409
5.91286
5.83139
5.91146
5.16522
5.21926
5.05113
4.98553
4.83796
4.99168
5.14291
864.544
879.091
880.698
1043.88
876.194
923.737
1258.86
1343.61
1337.03
1304.43
1378.28
1378.97
858.707
1059.5
943.43
1267.93
1418.04
1412.17
1388.81
1357.79
1192.16
1422.25
1265.91
1366.29
1278.53
1414.7
1313.26
1492.56
1507.04
1445.01
1263.24
1398.84
1293.3
1487.48
1408.88
1463.55
1406.69
1447.98
1480.67
1471.57
1336.11
1402.49
1369.94
1386.72
1460.28
1387.4
1390.88
1388.64
1396.86
1413.32
863.596
857.77
865.105
1378.07
1087.68
861.296
1389.27
1437.32
1178.58
1232.15
401.934
436.655
411.982
441.374
418.101
399.432
387.538
372.789
422.313
273.089
370.165
328.829
501.093
476.811
296.047
260.207
311.463
275.004
367.747
375.224
273.607
346.796
337.32
341.479
311.203
308.028
319.187
325.228
1207.81
720.684
1589.76
723.296
871.703
950.772
1251.92
373.872
112.904
353.657
256.664
759.885
478.888
42.8309
38.6537
42.1347
39.3912
35.5068
92.5413
115.283
313.993
296.428
442.383
675.512
1047.65
1197.92
1569
1669.01
1578.13
1592.21
1778.06
1744.24
1619.73
1747.92
1931.48
1826.82
1944.99
1883.05
1863.39
1804.17
1897.33
1788.31
1827.97
1811.06
1975.21
1874.32
1936.04
1849.86
1804.86
1783.85
1756.75
930.857
760.784
621.857
1768.16
1775.62
1589.85
1416.25
48.5633
46.2487
57.8828
61.396
112.736
66.4392
127.013
25.2813
33.0271
35.5768
35.4169
37.6913
29.8471
24.5152
25.9994
24.3367
30.6974
18.3333
26.121
21.1867
27.9912
-1.2022
-1.09067
-0.968112
0.0585843
-0.553642
-0.571551
-0.724118
-1.35929
-1.41076
-1.35734
-1.96672
-1.8555
-1.76507
-1.69506
-3.57258
-2.69532
-2.95699
-1.87531
-1.80643
-2.33187
-3.74997
-3.78628
-3.3554
0.618795
-2.48738
-2.0151
1373.54
1354.39
2435.76
2343.35
1748.22
111.899
2104.34
1.81293
1.59366
0.551195
2.47559
2.5936
0.946925
1.4464
4.37196
9.69823
3.71397
11.062
9.98807
6.38296
9.26122
0.771487
0.820194
0.474494
-0.0066242
0.220644
0.282374
0.602946
0.760232
0.803668
1.21318
-0.448991
-0.188354
0.279765
0.352219
0.424919
0.0569869
0.513729
0.416765
0.634703
0.164003
-0.0234421
0.112718
-0.0438526
0.0587599
0.162684
0.326137
0.591669
0.393256
0.167157
0.533687
0.279535
-0.116568
0.0188896
3.30129
2.80803
2.55557
3.00082
2.75087
2.83789
3.35713
4.1715
3.99174
4.66969
4.25618
4.14828
4.34732
4.79624
5.21202
5.37543
5.86542
5.0347
4.92212
5.03389
5.33085
5.61954
5.7206
5.38664
5.05685
5.29675
5.39254
5.32234
5.62004
5.51255
4.61585
4.8965
4.88108
4.63239
4.78526
4.90157
4.84923
114.901
64.9571
705.878
179.966
326.869
4.98374
103.42
1024.34
1119.06
340.188
1127.6
1135.44
851.319
556.707
421.327
530.653
328.442
842.386
1052.56
1055.33
930.366
1114.84
1098.24
1235.78
880.959
1126.99
460.106
515.362
721.827
1264.8
1291
1298.53
1274.59
1064.27
1383.07
1453.17
43.9829
41.4586
42.6295
219.746
145.027
225.961
68.6632
1326.18
1301.04
758.445
851.487
517.93
1296.98
1222.42
0.881607
0.581883
0.013589
4.78462
1.84842
286.043
262.823
255.931
165.861
17.8617
274.102
512.389
9.4938
7.95327
8.3279
86.3541
85.7739
303.116
235.962
359.49
131.207
315.336
63.9251
1.92052
516.815
520.248
378.344
433.851
372.276
417.169
213.667
367.791
390.255
511.997
524.166
409.071
422.844
380.64
461.72
436.856
387.831
470.848
431.181
355.552
477.574
669.616
329.739
587.192
2742.38
1321.48
2417.45
2423.98
2832.05
3095.68
2294.39
2669.68
916.303
3130.63
2265.71
2602.37
2794.6
672.624
991.736
889.64
-106.781
554.798
-170.714
434.378
636.344
2921.05
1969.03
1231.9
1541.44
1586.06
1507.03
1662.7
1336.13
1351.3
1150.15
1170.77
1523.15
1544.26
1581.1
1482.92
1574.69
1502.88
1518.58
1467.01
0.626501
0.010173
0.533004
-0.578953
0.938045
2.22356
1.39539
-2.99194
-4.07989
-3.70909
-2.19108
-3.61329
-2.89838
-2.02288
14.7203
15.0121
11.9696
12.4109
16.9625
16.3715
14.0137
1.33139
-4.71737
-6.26894
-3.3353
-2.60051
-4.81534
-3.96102
2.25437
6.38299
0.831266
138.482
8.94453
7.8651
18.9049
-3.85067
-1.94712
-1.42612
-16.8711
-11.366
-0.131663
-10.4962
3.87391
3.72583
3.8715
4.04829
3.66376
3.62982
3.83411
4.19017
4.45953
4.44124
4.68726
4.65106
4.6002
5.04038
4.89439
4.83355
3.65006
3.2822
3.6582
6.03961
3.944
3.54213
3.58924
0.887126
1.21323
1.55172
1.09522
1.49823
1.55542
1.15561
0.315941
0.434865
0.377667
-0.158971
-0.0549028
-0.256076
-0.379127
-0.199597
-0.489264
-0.403932
-0.083116
-0.0217048
-0.00481361
-0.886141
-0.778858
-0.301857
-0.940457
-0.544788
-0.561201
-0.46767
-0.249516
-0.382605
-0.706442
-0.722133
-0.766279
-0.759082
1.12731
1.21272
1.45092
1.25906
1.31376
1.78559
1.60933
1.61949
1.52147
3.84771
3.50651
3.51209
3.71321
3.4713
3.61769
3.82482
4.43398
4.4323
4.6023
4.51522
4.45001
4.61659
4.40726
819.712
822.246
825.254
902.172
898.266
471.042
215.748
906.309
908.788
915.829
897.251
902.946
903.166
888.442
859.673
908.374
325.584
876.572
856.863
875.009
870.95
325.181
863.978
314.744
558.504
1111.26
5.35968
5.23949
5.25431
5.37025
5.30131
5.25199
5.33038
5.47685
5.72209
5.7915
5.796
5.67908
5.62179
5.577
8.52483
5.80511
6.81993
6.82301
5.80894
6.5002
6.9954
4.20711
4.46963
4.64044
3.76507
3.83676
3.86838
3.96879
3.21608
3.64439
3.56804
3.46003
3.62609
3.2517
3.48853
8.71066
9.1301
7.28184
4.78608
1.58429
5.01269
8.57176
4.42443
7.20456
4.80758
1.62657
3.77171
4.63328
3.54812
5.91067
5.36474
1.74251
6.07258
1.02648
-1.6686
-1.18196
-3.32071
-3.79249
0.0675378
-6.28349
-6.0639
51.9715
61.3075
49.5869
14.9903
12.3688
6.13535
3.26167
16.9124
62.2598
31.0619
24.351
9.63567
1.03757
36.1778
153.119
549.862
408.137
65.3185
-103.063
-36.8309
19.4416
58.914
194.806
77.6367
356.049
24.6092
23.8099
171.953
46.306
-97.443
138.508
143.706
80.3209
85.2243
112.504
-24.599
58.8952
-135.885
97.329
16.0295
104.307
352.027
520.005
-361.943
-141.992
-298.711
-39.6242
355.184
461.309
522.236
535.054
317.469
741.698
430.024
847.379
807.742
1040.74
750.12
502.428
917.342
597.088
380.305
287.108
621.262
1223.17
856.022
1124.14
804.156
530.003
799.148
615.477
895.531
540.425
727.602
1000.02
797.008
1059.19
752.322
1159.3
344.673
927.348
813.676
1006.22
5.44897
6.23482
5.55989
5.69579
5.60954
6.0907
5.6118
6.27053
6.00291
5.97685
6.10387
5.93504
6.12725
6.02461
-0.170504
0.00691628
0.569471
0.890335
0.801263
-0.175148
-0.0420514
-0.767946
-0.960783
-0.872657
-0.350352
-0.131994
-0.857078
-0.147887
0.0365969
0.138352
-0.303618
-0.519376
-0.159908
-0.381212
-0.101282
-0.218817
-0.271802
-0.027324
-0.115831
-0.26938
-0.595596
-0.0792945
-0.379113
0.0345416
-0.0600247
0.0685701
0.152724
0.137687
0.110535
0.136003
-0.0384349
0.0943555
0.128696
0.267104
0.0753676
0.272386
0.296397
0.177325
0.245518
0.105072
0.277934
0.282572
0.190959
0.265295
0.315107
0.204345
1.69932
1.81392
1.81495
1.93827
1.93599
1.8335
1.82392
636.983
624.055
635.306
500.204
159.773
564.427
839.422
816.965
843.168
51.5802
338.328
827.251
344.381
342.049
653.834
896.426
875.771
5.46214
5.25366
5.27096
5.50397
5.54197
5.42369
5.36571
5.23833
5.09636
5.14608
5.15233
5.18534
5.09521
5.20301
5.35443
5.36667
5.32691
5.26835
5.31431
5.30605
5.35733
5.46611
5.40608
5.4605
5.5606
5.52521
5.44908
5.50543
5.45299
5.38158
5.43136
5.3834
5.41362
5.40465
5.33461
5.7127
5.59843
5.62723
5.71468
5.67868
5.83478
5.57572
6.70868
5.39314
5.38637
5.96288
6.73764
5.55541
5.21827
4.57115
4.44578
4.83176
4.86026
4.98244
4.75715
4.61526
5.46807
5.24588
5.18943
5.21566
5.14018
5.15056
5.22354
5.05682
5.00271
4.74226
4.54385
4.54143
3.74867
4.271
3.62382
3.68177
3.83127
3.60644
3.90557
3.4106
3.71145
4.80261
4.4556
4.56745
4.36185
4.004
4.93817
4.77643
3.99606
3.9525
3.62912
10.8837
4.92355
20.037
16.4169
19.4084
11.9675
19.7055
10.674
15.0196
9.09727
30.1664
25.5011
13.1089
14.3454
16.2929
16.2541
14.2568
16.4673
14.9843
16.1743
7.38939
9.5576
5.56975
7.26063
7.49559
6.96415
15.6685
10.1166
16.1465
12.4508
61.0509
29.6497
35.5604
23.835
82.7264
220.008
475.738
253.47
328.049
524.549
139.44
161.281
108.502
16.1662
386.21
285.653
395.782
246.967
160.402
356.342
260.923
49.8988
113.185
46.3513
110.732
-37.6157
94.7107
180.774
364.866
266.256
400.934
335.477
389.749
471.119
575.674
417.504
376.132
242.482
-47.4131
61.9803
161.221
-135.553
-211.754
207.452
26.2216
110.828
153.582
142.163
94.713
183.166
117.972
102.972
502.899
496.378
448.332
522.981
519.809
500.585
619.568
230.379
456.303
370.164
392.451
448.187
626.151
585.585
532.401
564.648
74.028
376.4
348.567
345.128
422.694
398.62
134.044
184.562
418.217
365.333
453.961
423.785
317.8
266.032
393.429
329.552
-350.445
-276.631
-147.766
51.6212
-276.476
178.345
81.7031
-339.01
-352.714
-336.109
-93.878
115.298
191.54
-218.928
-344.521
-351.532
-345.484
-355.625
-354.151
-352.797
-355.265
-54.8067
38.9722
-222.308
194.839
283.396
-100.155
-228.421
200.69
11.0467
62.8513
20.6773
165.475
177.782
135.002
253.078
380.434
136.699
280.983
59.6928
388.291
223.716
211.532
158.797
194.915
156.119
406.506
339.35
191.159
281.428
331.433
623.497
267.055
192.641
269.501
141.153
277.547
302.101
74.9785
-354.731
-353.707
-359.256
-356.585
-353.165
-353.861
-358.034
-359.13
-359.567
-358.603
-361.633
-358.372
-366.062
-362.905
795.405
660.307
808.488
451.892
866.716
691.462
385.409
1834.35
1870.1
1860.96
1264.01
1677.1
1847.56
1336.71
1372.78
1481.61
1493.37
1360.32
954.546
1278.5
1231.44
1316.81
1376.57
1613.43
1493.75
1544.62
1571.8
119.909
204.854
121.811
-0.221368
-306.196
-346.748
-56.3959
369.645
247.902
356.052
371.024
347.821
229.489
316.862
429.4
482.673
514.423
380.542
360.266
420.387
434.263
8.09597
11.2853
7.1584
6.93942
7.07968
8.45046
7.27721
31.4615
21.7124
21.9653
32.8169
9.80103
20.2825
34.1628
12.082
14.7162
10.7947
17.0604
9.74353
12.5742
26.7721
25.3281
37.2886
48.4409
34.3251
44.5029
48.5437
46.8235
48.3189
29.4801
1436.8
1440.52
874.834
25.5359
829.328
1551.73
907.874
1544.5
1385.74
1004.74
975.704
1306.02
1582.93
1549.04
1436.01
1253.79
1552.12
1708.72
1216.1
1734.76
705.739
44.4356
856.402
56.1236
4.49914
28.8445
252.427
885.592
5.05706
5.68336
4.87427
6.43714
4.78695
5.06943
5.45034
5.15638
4.79781
5.06745
5.20987
5.03615
4.72726
5.139
4.94239
4.76981
4.43786
4.37868
4.3094
4.44919
4.14874
3.89526
4.20931
4.42524
3.20723
3.68924
3.74651
3.45962
3.2267
2.93942
3.37761
1.84435
1.64712
2.23938
2.05871
1.8339
1.9542
2.25599
1.84181
1.91306
1.86059
2.01602
1.59137
1.73098
1.97276
1.39588
1.68379
1.33496
1.48265
1.24998
0.870778
1.12217
0.852975
0.791205
0.979002
1.20672
0.96108
0.359029
0.325315
0.417245
0.697365
0.324604
0.438343
0.504463
0.0483372
0.254291
0.26663
0.214626
0.468624
0.286755
0.0862456
0.161166
0.137263
0.23338
0.347459
0.229701
0.064517
0.110848
0.0267812
0.092556
0.154554
0.408524
0.163349
0.203879
0.170076
-0.0492106
-0.11432
-0.607665
0.0972715
-0.961899
-0.470918
-0.888233
-0.842311
-0.395659
0.263371
915.689
901.081
917.562
909.789
909.823
913.985
426.348
910.835
661.106
129.02
798.993
783.433
802.496
794.327
201.805
384.704
1.31844
2.14596
1.93644
2.32416
2.00574
1.16996
1.75441
2.20014
1.69511
699.939
685.64
230.945
4.5193
308.577
239.925
708.293
5.36063
4.99987
4.31394
4.13289
3.97236
4.71013
4.55897
4.03471
3.8597
3.93943
3.26569
3.28176
3.18057
3.5088
5.71786
5.47244
5.64463
5.85926
5.71704
5.76744
5.91014
5.75547
5.51905
5.51303
5.41332
5.46445
5.73008
5.76599
5.80252
5.66144
5.5516
5.7258
5.77402
5.97529
5.86857
5.93948
5.90539
5.99693
6.01353
5.98365
5.89592
5.76578
5.79106
5.74237
5.74252
5.70458
5.77429
5.26207
5.45263
5.42411
4.99175
5.34834
5.72915
5.66214
5.66367
5.66983
5.89636
5.6878
5.62283
5.69613
6.44642
5.95807
5.69945
5.55878
5.91736
5.76526
4.59553
4.80977
4.95976
4.68268
4.37491
5.0339
5.02766
3.46534
3.34488
3.25738
3.00177
2.98602
3.06918
3.00762
3.35353
3.41558
4.3158
4.1328
4.05065
4.04062
3.57838
3.90842
4.25737
2.89681
2.84892
2.88115
3.0586
3.05352
3.0453
2.98462
3.27795
2.92338
2.94566
3.04766
2.92317
3.43566
3.44698
3.78851
3.57124
3.58097
4.09207
3.91685
9.03643
7.23993
6.29994
8.82391
8.74145
14.4315
22.7102
7.5329
7.7684
7.9289
7.76102
9.00043
9.3311
9.45822
37.5974
30.8589
38.7445
38.9644
37.3471
30.3652
19.7225
9.1829
9.06413
9.39288
9.37538
9.02648
10.3245
10.1562
9.86036
17.8464
26.7244
9.06451
9.39378
33.0404
30.1716
42.6319
13.1653
10.851
39.2828
19.255
64.7578
30.6349
50.1057
47.1174
10.6502
11.4563
94.0566
424.507
350.504
394.321
716.974
577.662
661.057
499.308
541.93
470.739
560.227
534.756
605.63
531.1
721.963
692.973
701.709
617.608
678.333
689.484
577.283
644.026
656.921
799.301
731.809
652.075
750.576
360.422
379.129
248.629
65.5489
255.936
24.6055
14.8445
123.542
365.762
153.257
161.517
287.285
103.325
194.934
288.88
402.039
334.427
350.391
346.333
199.407
198.478
67.437
203.932
193.357
158.864
214.313
487.944
267.585
44.7125
220.871
337.872
192.84
180.382
94.3755
156.671
159.295
-137.775
-140.941
-161.299
-58.4854
45.4176
-76.4361
417.038
360.789
306.637
510.516
825.669
769.614
452.593
469.488
587.292
442.351
552.454
550.647
698.143
522.433
547.331
704.481
579.325
610.968
810.808
774.05
750.96
981.737
803.324
334.184
475.879
515.987
575.99
444.174
445.597
489.247
619.514
361.942
481.982
493.237
427.804
406.071
684.718
719.057
779.037
518.615
648.991
665.016
708.646
785.656
774.873
677.137
696.749
713.293
684.014
636.781
738.101
727.708
694.386
446.247
525.033
444.751
415.413
621.285
127.517
218.188
65.7546
426.591
405.924
38.3882
32.2382
43.1964
54.8809
49.3588
43.5661
47.6945
27.9376
21.3713
23.6406
39.6981
37.2877
31.1455
36.0306
5.6089
2.5742
5.08314
6.68603
6.90675
5.89806
6.81426
10.1016
15.3738
9.87291
8.96308
7.42879
9.62709
13.8553
14.055
14.0318
9.8329
10.5794
10.296
9.43043
8.91121
24.0723
8.61192
7.04754
22.1386
19.8676
15.6203
16.4725
16.6969
32.499
17.2251
32.3196
31.4146
750.78
258.502
1061.1
1055.33
1006.21
1041.04
964.706
3.07462
3.06909
3.05273
2.93345
2.96994
3.03231