/*--------------------------------*- C++ -*----------------------------------*\
| =========                 |                                                 |
| \\      /  F ield         | OpenFOAM: The Open Source CFD Toolbox           |
|  \\    /   O peration     | Version:  v2012                                 |
|   \\  /    A nd           | Website:  www.openfoam.com                      |
|    \\/     M anipulation  |                                                 |
\*---------------------------------------------------------------------------*/
FoamFile
{
    version     2.0;
    format      ascii;
    class       surfaceScalarField;
    location    "0.45";
    object      phi;
}
// * * * * * * * * * * * * * * * * * * * * * * * * * * * * * * * * * * * * * //

dimensions      [0 3 -1 0 0 0 0];
oriented        oriented;


internalField   nonuniform List<scalar> 
13152
(
1.01683e-06
2.03145e-05
-1.68837e-06
-1.96429e-05
1.87408e-05
-1.70821e-05
-6.41957e-07
-3.46397e-06
4.25193e-05
-3.46473e-05
3.54221e-05
-2.46314e-06
2.12057e-05
-7.5496e-05
2.85261e-05
-2.44024e-05
6.04841e-05
-1.60896e-05
-2.95591e-05
-2.84566e-05
7.41054e-05
3.83546e-07
-1.67633e-05
2.90083e-07
-2.99281e-05
7.52561e-07
7.83655e-06
5.15422e-06
-2.9754e-05
7.80299e-06
3.23651e-07
-5.08723e-06
-1.55664e-05
-2.98611e-05
-8.65555e-06
-1.46377e-05
-5.13659e-06
2.84299e-05
-7.48219e-08
-8.66657e-06
8.58351e-08
-1.41581e-05
-5.54483e-07
5.66868e-06
-3.05689e-05
1.62336e-05
-2.93233e-05
2.98554e-05
2.93784e-05
-4.99346e-07
3.48403e-08
-1.52776e-05
-2.99239e-05
9.76698e-08
-7.49556e-05
3.25008e-07
1.59945e-05
3.0234e-05
-5.35667e-08
7.46583e-05
3.57755e-05
1.26623e-05
2.54107e-05
-7.38485e-05
3.86274e-07
-7.42894e-07
3.61322e-05
1.24066e-05
2.65403e-07
-1.87344e-05
7.36603e-05
7.78819e-05
2.91519e-05
-7.43132e-07
-2.93862e-05
9.77423e-07
-1.64133e-05
-2.6866e-05
7.24312e-05
1.6555e-07
-1.7322e-05
-8.08147e-06
8.01316e-06
2.33862e-07
5.30805e-06
-3.07115e-05
-4.96551e-06
-1.38874e-05
-2.90436e-05
-1.3786e-05
1.32532e-07
2.91628e-05
2.51657e-07
6.69793e-05
3.37155e-06
-2.16092e-05
-4.87416e-05
-3.06934e-05
7.71091e-06
8.99617e-05
-2.14088e-05
-5.913e-06
-6.07952e-05
-3.35245e-05
0.000102031
-6.34185e-06
-7.60626e-05
7.0909e-06
-7.90148e-06
-2.05983e-05
3.84281e-06
-2.66491e-06
-1.54928e-05
-1.41888e-05
-2.97362e-05
-6.14442e-06
4.26352e-05
-1.12753e-05
-2.52155e-05
4.5116e-05
-2.0865e-05
-3.03953e-05
-5.10557e-05
-8.73144e-05
1.92157e-05
1.26658e-05
-5.27464e-05
2.00757e-05
-1.21351e-05
-8.11883e-05
5.02086e-05
-0.000155837
7.7705e-06
1.0421e-05
1.5601e-06
-1.97516e-05
-6.20847e-06
3.80764e-06
1.01714e-05
6.07864e-06
-1.86523e-06
-1.37411e-05
-8.34717e-06
2.81671e-05
-2.02445e-05
4.63843e-06
9.11897e-06
-2.78033e-05
4.57981e-06
-4.21433e-06
-8.75669e-06
-6.411e-06
1.9382e-05
2.20206e-06
-7.43431e-06
1.0179e-06
-8.05199e-06
1.49732e-06
-4.95419e-06
-5.65295e-06
3.1728e-06
-7.43102e-06
-3.93425e-06
1.68849e-06
-1.53934e-05
-4.24521e-06
7.83117e-06
-3.6447e-06
4.17714e-07
-4.60419e-06
-9.28041e-06
2.70291e-06
1.44087e-05
-5.0692e-06
-7.85586e-06
-2.93667e-06
-8.60379e-06
1.42434e-05
-1.22105e-05
9.69168e-06
-1.5134e-05
-2.14568e-06
-3.15935e-05
-1.54114e-05
4.80506e-06
1.43527e-05
-3.74638e-06
2.71892e-05
5.97e-06
-4.85705e-05
2.1441e-05
1.05532e-05
-2.06867e-05
-5.41918e-06
4.04586e-05
-2.20106e-05
-2.42248e-06
2.93292e-05
-4.53697e-05
4.5351e-05
-2.42372e-05
-1.56871e-05
-1.06089e-05
5.05332e-05
2.91454e-07
-3.34462e-05
8.91751e-06
-1.73587e-05
1.96305e-06
2.73244e-05
1.10069e-05
-5.569e-05
2.52083e-05
4.07917e-06
3.74146e-05
-5.98539e-05
5.2014e-05
-1.37382e-05
-1.90425e-05
-1.06721e-05
4.34528e-05
7.54271e-07
2.36246e-06
-1.6855e-05
-2.5973e-05
7.68479e-06
-2.62471e-05
2.19749e-05
6.63467e-06
1.10328e-05
-5.41349e-05
2.90081e-05
-4.39483e-05
4.0311e-05
1.53569e-05
4.1506e-07
-1.63092e-05
5.3727e-07
-2.78664e-05
-8.15657e-06
5.13799e-05
2.90101e-06
-3.03524e-05
-1.26054e-05
-5.26048e-05
5.70536e-05
-5.68331e-05
2.79185e-05
-6.23645e-05
1.26607e-05
-0.00014955
2.36621e-05
1.89607e-05
4.49729e-05
-8.75957e-05
-1.68492e-06
9.27779e-06
1.60692e-05
5.52504e-06
1.17507e-05
2.05837e-05
3.3667e-05
2.35468e-06
2.37541e-05
3.01746e-05
-1.64804e-05
-2.8729e-06
-1.02061e-05
2.95594e-05
1.47094e-05
1.02404e-05
1.25926e-05
-2.63014e-06
1.44666e-05
7.10116e-07
6.38661e-06
3.14367e-06
4.58149e-06
8.72124e-06
-1.09776e-06
3.04901e-06
-4.91732e-06
2.62747e-05
8.64639e-07
-2.45739e-05
-2.56546e-06
-2.56857e-05
-2.69965e-05
7.89569e-05
-2.92316e-07
-2.45287e-05
-2.49549e-05
2.66023e-05
-1.93972e-06
2.39934e-05
-7.3477e-05
-3.53246e-06
3.13825e-06
-4.11296e-06
-1.71587e-05
-0.000298662
0.000107669
0.000208151
-0.000190094
6.88177e-05
0.000104117
0.00021406
0.000327436
7.19776e-05
-5.35413e-07
-2.62444e-06
-3.18294e-05
0.000211476
0.000220546
-7.02218e-06
0.000516153
8.89282e-05
-2.28302e-05
-9.20259e-05
2.59279e-05
-0.000114734
-5.86203e-05
0.000262282
-7.23485e-05
-6.52153e-05
0.000134907
5.01021e-05
-0.000277035
8.17146e-05
7.91204e-05
-4.72122e-05
7.03065e-05
-6.94584e-05
3.76146e-05
0.000113052
-2.5623e-05
-0.000125044
6.34427e-05
-5.4849e-05
2.9021e-05
-2.59914e-06
0.000179094
9.67479e-05
-2.42595e-05
-0.000127337
2.92717e-05
9.64972e-05
-7.48556e-05
0.000101528
-0.000124738
2.1845e-05
-3.2927e-05
6.15681e-05
-5.04861e-05
-5.88988e-05
5.55993e-05
2.51447e-05
8.01724e-05
-0.000171998
-2.22748e-06
-8.67604e-05
0.000144587
-7.03818e-05
9.3299e-05
-5.03455e-05
6.01361e-05
-7.55376e-05
-8.06226e-05
-1.79208e-05
5.87905e-05
3.97529e-05
4.61928e-05
-2.81453e-06
-0.000124001
-1.35575e-05
4.18296e-05
-2.12619e-05
1.01854e-05
6.9867e-05
1.01882e-05
-3.42647e-05
5.78436e-05
-3.64406e-05
-3.49605e-05
1.43384e-05
8.53348e-05
1.8372e-05
-4.46244e-05
4.28957e-05
-4.24426e-05
1.53025e-06
4.36608e-05
-2.74843e-06
3.9545e-05
3.57705e-05
-0.000117758
3.98165e-05
1.25876e-06
-3.63704e-05
-4.39698e-05
-4.79843e-05
8.86546e-06
-9.45635e-06
-2.75747e-06
-1.36097e-05
-2.98219e-05
1.28618e-06
3.42774e-05
-5.7417e-06
1.21974e-05
3.35547e-05
-7.5574e-05
1.26473e-05
8.36224e-07
-6.17515e-06
2.68097e-05
1.36429e-05
2.37735e-05
3.60609e-06
-3.72458e-05
-1.04299e-05
6.0323e-05
-3.28268e-05
-3.58272e-06
5.34611e-05
-6.25143e-05
6.98409e-05
-1.2245e-05
4.88505e-06
1.60824e-05
-8.72242e-06
1.57977e-05
2.64054e-06
-3.06833e-05
4.67081e-07
2.02158e-05
-4.73346e-06
5.36379e-06
1.54521e-05
5.93262e-06
-8.02549e-06
4.51159e-05
-1.78983e-05
-2.67504e-05
-6.1169e-06
7.14486e-05
-2.36355e-06
1.61046e-06
-1.43292e-05
-7.57163e-06
-2.04949e-05
-1.66171e-07
2.82327e-05
-9.35789e-06
-6.84842e-06
8.63472e-06
1.02681e-06
-3.08796e-05
1.95674e-05
-1.03991e-05
-1.60168e-05
-2.48101e-06
4.82563e-06
-1.41978e-05
2.17852e-06
2.26486e-06
-4.55356e-05
-4.91625e-06
4.8187e-05
-4.43753e-05
5.59672e-05
-9.32707e-06
6.22668e-05
-0.000152178
5.8263e-05
-5.14562e-05
-1.1723e-05
-5.33846e-05
0.000159835
9.49243e-06
-6.90979e-06
2.0303e-05
-6.19831e-05
-1.14385e-05
6.65995e-05
6.82208e-06
9.62619e-05
1.45857e-05
-0.000172831
0.000121886
-3.70628e-05
-6.22093e-05
-2.33689e-05
-1.22714e-05
-4.31158e-05
9.09667e-05
-8.86522e-05
0.000189484
0.000180404
0.00016727
0.000165425
-0.000513099
-6.97802e-06
0.000157491
2.9891e-05
0.000164818
-4.52625e-06
-0.000188645
-0.000144804
0.000498267
-0.000173462
-1.97091e-05
2.37649e-05
-3.18021e-05
3.64527e-05
-1.63715e-05
2.18076e-06
1.71738e-05
-2.98308e-06
2.8443e-05
5.52044e-06
-5.0335e-05
2.24153e-05
8.20839e-06
-3.34877e-05
-5.82378e-06
5.64852e-05
-2.57209e-05
-1.07498e-05
3.79912e-05
-5.81917e-05
5.45827e-05
-1.46075e-05
5.00735e-06
2.20309e-05
-1.24308e-05
1.85085e-05
2.33693e-05
1.80518e-05
5.46407e-06
-5.14358e-06
2.01923e-05
8.32059e-06
2.71652e-05
-1.02778e-05
-1.18319e-05
5.70489e-05
1.38246e-05
1.52323e-05
-3.02148e-06
-1.68154e-05
4.60463e-06
-2.56766e-05
-5.39978e-06
4.63087e-05
-2.19331e-05
-6.76497e-06
3.15468e-05
4.18749e-06
-5.25497e-05
2.01349e-05
-3.33894e-05
4.81245e-05
-5.11349e-05
1.12019e-06
2.57585e-05
-2.46686e-05
-2.21011e-06
2.41689e-05
1.14884e-08
-2.30602e-05
-2.10035e-05
7.0931e-05
-1.9767e-05
2.13577e-05
-1.57921e-06
2.43286e-05
-6.71557e-05
3.10683e-06
-2.7527e-06
2.76679e-06
4.13147e-05
-5.60192e-06
-3.8494e-05
2.78129e-06
-6.54341e-05
-1.10093e-05
-5.31419e-05
-1.78941e-05
4.99724e-05
5.86058e-06
-9.4327e-05
4.41343e-05
8.61934e-06
1.39462e-05
1.30901e-05
-2.11757e-05
1.27042e-05
4.53763e-05
-1.61529e-05
1.78477e-05
-5.62048e-05
6.02415e-05
4.47868e-06
-8.11039e-06
-5.66098e-05
-8.17252e-05
-3.00315e-05
-7.43915e-05
-2.85503e-06
-8.23063e-05
8.30613e-05
2.0562e-05
-0.000159478
-0.00010642
0.00015945
-0.00016025
0.000157683
-5.56989e-05
-0.000164677
6.2693e-05
-0.000232912
-1.0608e-05
0.000401203
-9.80687e-05
-0.000190542
0.000324867
7.24382e-06
-0.000496788
0.000190891
0.00019667
-0.00027147
0.000451753
-0.000362295
-1.75281e-05
6.47381e-06
1.51544e-05
-4.10013e-06
2.28427e-05
5.59058e-06
-4.59614e-05
1.30537e-05
1.62628e-05
-1.01365e-05
2.18179e-05
3.47304e-06
2.6074e-05
-3.06199e-05
1.12262e-05
-5.86364e-05
6.04639e-05
-3.25297e-05
6.00187e-05
1.3632e-05
-4.61944e-05
2.92018e-06
-6.74936e-06
-3.81758e-07
1.08161e-05
-3.68496e-06
2.23535e-05
1.82221e-06
-3.09251e-05
-3.78535e-06
2.57571e-05
7.7142e-06
2.86707e-05
-3.45627e-05
4.1301e-05
-2.27708e-05
5.1876e-05
-2.69906e-05
0.000118934
-7.08983e-05
-2.2759e-05
-4.04859e-05
0.000134143
2.44762e-06
-6.99715e-05
-3.37444e-06
-2.31952e-05
2.88383e-06
2.18592e-05
1.08235e-05
-5.58779e-05
2.11535e-05
3.58946e-06
0.000114112
-4.54946e-05
-0.000138589
-6.44831e-05
0.00013811
9.59404e-06
-4.42651e-05
-3.37355e-05
1.69858e-05
1.92793e-05
-6.71902e-05
-9.4699e-06
-2.47533e-05
1.16759e-06
5.67702e-05
-5.07384e-05
-7.1994e-06
3.06816e-05
-3.13639e-05
1.84987e-06
-5.28763e-05
0.000140328
1.32854e-05
6.27445e-06
-5.09237e-05
1.42901e-05
8.45192e-07
-9.53645e-06
-2.90498e-05
-5.40004e-05
2.08635e-05
6.70199e-06
6.73447e-06
-3.43e-05
-2.33672e-06
1.98268e-05
3.37343e-06
-1.063e-06
5.42823e-06
-3.16589e-05
-6.18289e-07
5.2104e-05
8.76771e-06
-3.36922e-05
1.95638e-05
-1.18591e-05
2.43737e-05
5.85358e-05
1.6211e-06
-5.63962e-05
-3.76072e-06
-4.0024e-05
-1.52077e-05
0.000113767
-3.64544e-05
-1.94843e-06
1.62662e-05
-1.7052e-05
-5.56104e-05
-1.67314e-05
1.779e-05
5.27656e-05
1.38558e-05
-0.000103076
5.01962e-05
6.20986e-07
-1.5021e-05
4.84857e-05
-1.82171e-05
-1.37011e-05
-1.19689e-06
2.05563e-06
1.28424e-05
1.52303e-05
1.88264e-05
-4.77579e-05
2.44756e-05
-1.04422e-05
1.82826e-05
-3.68541e-05
2.06271e-05
-1.28531e-05
4.39781e-05
3.73765e-05
-5.54042e-05
4.8999e-05
-8.44805e-06
-3.09887e-05
-9.36971e-06
4.88065e-05
-1.35715e-05
1.78454e-05
-1.27219e-05
-2.09149e-05
-2.36452e-05
-3.97065e-05
3.62709e-06
5.39249e-05
9.45767e-08
-5.2523e-05
2.173e-05
-4.25503e-05
1.59874e-05
2.13868e-05
1.0969e-05
3.98212e-05
-7.2177e-05
-2.61695e-05
2.49403e-05
2.2616e-05
3.36061e-05
4.64786e-05
-2.86871e-05
7.14889e-06
-4.43969e-05
0.000113491
1.4954e-05
-6.15287e-05
1.78876e-05
-3.54213e-05
5.97861e-06
-8.45509e-05
8.27358e-05
-0.000106258
-2.73091e-05
2.85097e-06
4.70298e-05
-2.25716e-05
3.93909e-05
2.34472e-05
-9.01473e-05
3.79762e-05
4.26566e-06
-1.18045e-05
8.19136e-06
5.06429e-05
1.23975e-05
-7.54753e-07
-3.53089e-05
-9.15045e-06
8.24355e-05
-4.4136e-05
1.30928e-05
1.13245e-05
-4.3063e-05
1.03654e-05
1.65042e-05
1.97481e-07
-1.90704e-05
2.36868e-06
-1.72953e-05
-7.73848e-06
4.1538e-05
3.99009e-06
-2.1088e-05
-1.32537e-05
-5.18132e-05
5.73284e-05
-6.59466e-05
3.36225e-05
-5.60125e-05
8.1894e-06
-0.000143047
-1.09282e-05
-7.48617e-06
2.18875e-05
-2.62141e-06
-1.55456e-05
7.23876e-06
-1.42077e-05
4.32961e-05
-0.000103465
-2.86946e-06
-8.08181e-05
-1.8445e-05
5.30687e-05
3.75661e-05
-0.000121254
2.63599e-05
5.11675e-05
-4.3114e-05
-2.79217e-05
-1.30743e-05
8.411e-05
-2.68255e-06
-3.12567e-05
-9.17474e-06
-2.67762e-05
-3.82809e-06
4.11993e-05
1.24e-05
-8.03755e-05
5.21351e-05
-1.4764e-05
5.92976e-05
-7.81542e-05
9.83585e-05
-4.7459e-05
-3.37998e-05
-1.55872e-05
9.68459e-05
-1.52493e-06
-5.03836e-05
4.44966e-06
-3.3896e-05
-1.42858e-06
4.61607e-05
1.57294e-05
-9.57861e-05
4.14251e-05
3.30709e-06
6.34631e-05
-9.81173e-05
8.93012e-05
5.66818e-06
1.77724e-05
-6.18629e-06
-1.72542e-05
2.24305e-06
-3.48782e-07
3.77391e-06
1.14944e-05
8.52101e-06
3.44834e-06
2.31271e-06
-6.10983e-06
-9.5941e-07
8.18166e-06
2.45349e-06
4.97389e-06
-5.11467e-06
-1.4674e-06
2.96148e-06
-3.9651e-06
1.39921e-05
-5.17751e-06
-7.80293e-06
-1.52907e-05
-1.76051e-05
4.06987e-05
-1.495e-05
-2.60037e-05
3.31508e-05
-1.33574e-05
-1.68833e-05
8.00732e-06
1.80503e-05
-3.9415e-05
3.19039e-05
-4.07799e-05
2.13412e-05
-2.92946e-05
3.564e-05
-1.47155e-05
2.71305e-06
-2.44657e-05
3.64681e-05
1.89455e-05
-2.00736e-05
-1.35874e-05
-2.11237e-05
4.27822e-05
1.39026e-06
5.85684e-06
-2.73207e-05
2.19942e-05
-3.41913e-05
-7.1555e-07
8.43905e-06
-1.86669e-06
9.86711e-06
1.14115e-05
4.28534e-07
-1.16851e-05
-1.55981e-05
6.26499e-06
-3.82151e-06
5.20956e-06
-7.65304e-06
-2.53133e-05
-2.014e-05
5.17184e-05
-2.58227e-05
-3.31204e-06
-2.48635e-05
4.33571e-06
2.57375e-05
1.98293e-05
-5.23457e-05
2.82506e-05
-2.85612e-05
6.76382e-06
1.43231e-06
-4.07773e-05
-1.52014e-06
4.08651e-05
-4.2063e-05
3.886e-05
4.63533e-06
3.88199e-05
-0.00012166
4.45282e-05
-4.02104e-05
-5.83802e-06
-3.7736e-05
0.000123129
-3.08231e-06
4.2063e-06
-4.47276e-06
6.78902e-06
-1.39253e-05
1.88047e-05
-1.16684e-05
-3.19064e-05
1.70811e-05
2.16142e-05
-3.21262e-06
-4.26191e-05
-4.81282e-05
1.19338e-05
5.49991e-05
5.62649e-06
-6.54231e-05
-3.35227e-05
6.25375e-05
-3.11088e-05
3.58309e-05
9.96391e-06
-1.37824e-05
-3.20124e-05
-1.3888e-05
-5.34932e-06
5.50683e-05
-1.84468e-05
1.45229e-05
-5.61391e-05
-2.59111e-06
5.3381e-05
3.53089e-05
-0.00010523
6.49824e-05
-4.81203e-05
7.69145e-05
1.58489e-05
6.0124e-05
-1.16186e-05
-6.43543e-05
7.31128e-05
-0.000135484
7.82204e-05
-5.58424e-05
0.000189079
-7.85638e-05
0.000127966
-6.10209e-05
6.40211e-05
-0.000206939
0.000134956
-0.000206419
0.00020708
0.000153626
-6.5402e-06
-0.000187403
4.03168e-05
-0.000125147
-4.77828e-05
0.000326556
2.5923e-06
-0.00013428
4.63243e-05
-5.97804e-05
-0.000173947
-5.17979e-05
5.03392e-05
-0.000174204
0.000179837
-3.04035e-06
6.66227e-05
-0.000375107
-5.01546e-05
0.000178193
-4.33124e-05
0.000138495
6.30742e-06
-0.00010687
-3.79327e-05
-7.31355e-05
-2.46545e-05
0.000236285
-6.34136e-07
-6.61939e-05
-0.000109465
9.15603e-05
1.72702e-05
2.1125e-05
-0.000196783
-0.000149106
0.000216011
-0.00023485
-7.75902e-06
-5.03309e-07
-7.63202e-07
9.02553e-06
1.43791e-05
1.12369e-05
-3.3375e-05
1.41187e-05
-2.43537e-07
3.69879e-06
-3.36105e-06
-1.10095e-06
-2.30419e-06
1.50285e-05
2.71508e-06
5.16072e-06
1.45295e-05
4.01899e-06
8.76178e-06
-9.69829e-06
-3.08248e-06
3.65772e-05
-3.27595e-05
2.00745e-07
-8.30924e-06
5.36477e-05
-1.28345e-05
2.8898e-06
1.83903e-05
-3.43077e-05
7.39822e-06
-2.17676e-05
1.97869e-06
-7.34899e-07
-8.69742e-06
1.54677e-07
9.27764e-06
-1.60503e-05
1.66196e-05
-1.30426e-06
1.21777e-05
-3.69254e-05
3.42398e-06
-2.79144e-06
-4.77866e-07
-3.59389e-06
1.62955e-05
-1.99369e-06
1.50194e-05
7.39256e-06
4.21227e-06
1.07855e-05
2.65426e-06
-1.7652e-05
-2.00849e-07
4.26688e-06
1.46241e-07
1.04135e-05
1.71163e-07
2.01506e-06
1.49877e-05
-1.43485e-05
1.10084e-05
-4.72644e-06
-1.55035e-05
-3.44658e-07
-7.47714e-06
-1.97892e-05
4.35618e-05
-5.62436e-07
-5.33215e-06
-1.52143e-07
-1.3212e-05
-9.84336e-07
-4.73233e-06
-3.55963e-05
-4.23082e-05
-6.08713e-05
-1.90792e-05
0.000122259
-9.02503e-06
-5.49075e-05
2.16243e-05
1.35721e-06
-7.12537e-05
7.75123e-05
-9.44971e-05
-3.79227e-05
-0.000131257
0.00018969
-0.00014688
1.69801e-05
-0.000312631
6.91195e-06
2.79427e-05
-3.37144e-05
-1.14022e-06
1.40045e-05
-2.62263e-05
1.91337e-05
-3.67431e-05
7.86903e-05
9.15948e-05
9.93979e-05
-0.000224707
9.12053e-05
-7.50748e-07
-1.65395e-05
8.97111e-05
5.1247e-05
-8.88311e-05
5.67179e-05
2.25041e-05
-9.34762e-05
-5.64987e-06
8.87002e-05
1.04258e-05
0.000129583
0.000102447
-0.000325507
0.000134282
-1.03486e-05
-3.39645e-05
-1.28959e-05
0.000135561
-4.13383e-05
1.77994e-05
-1.08972e-05
-5.07337e-05
4.8735e-05
-8.18871e-05
2.96515e-05
6.03008e-05
-3.97406e-05
0.000143849
-0.000183808
-0.000170279
-0.000124054
2.65352e-05
-0.000161608
-4.06138e-05
-0.00010313
-0.000130094
2.38395e-05
-0.000141056
-0.000102477
-1.43216e-06
7.79026e-07
0.000149096
-0.000291314
6.60801e-06
-9.83966e-06
7.66174e-05
-2.31933e-05
-4.35845e-05
0.000126171
-3.87279e-05
-9.72828e-05
-0.000119966
-7.20336e-05
-2.45594e-05
9.59992e-06
-8.23375e-06
2.07212e-05
-8.40085e-05
8.58462e-05
-0.000185091
2.34124e-05
-1.04978e-05
-1.27655e-05
1.3002e-05
1.02614e-05
-8.52938e-06
2.45788e-05
-2.65472e-05
2.51635e-05
-4.64583e-05
-5.92492e-06
-1.86208e-05
3.75478e-05
-2.13666e-05
2.57032e-05
-1.04409e-06
-1.02765e-05
-7.30007e-06
-9.61097e-06
-1.27996e-05
-8.3266e-07
1.58007e-05
1.40544e-05
2.02176e-05
1.05597e-05
5.67338e-06
-3.64506e-05
-4.18804e-06
1.16806e-05
1.2725e-05
8.94279e-06
-2.57109e-06
-1.68188e-05
-4.24241e-06
3.0004e-05
-1.36276e-05
-5.76226e-06
-1.9914e-05
2.73522e-05
-2.78681e-05
-1.30316e-05
-1.06373e-05
1.4626e-05
9.04292e-06
3.27729e-06
2.1092e-05
-3.74009e-05
2.26441e-05
-2.14316e-05
-1.5264e-05
5.13217e-05
-3.47664e-05
2.23778e-05
2.87573e-05
-4.24317e-05
3.61374e-05
-2.45025e-05
-3.66627e-05
-4.00584e-06
6.5171e-05
-2.36643e-06
2.12164e-07
-2.23482e-05
-1.19488e-05
-2.70803e-05
-3.40487e-05
3.17759e-05
2.48497e-06
2.80545e-06
-5.92024e-05
3.51857e-05
-4.43291e-05
6.29558e-05
3.66953e-05
3.98734e-06
-3.40533e-05
-6.62933e-06
-4.70712e-05
0.000101614
2.29241e-06
4.54072e-05
-0.000100636
-1.7427e-05
1.94068e-05
2.08312e-06
-1.9752e-05
-1.73795e-06
-2.02387e-05
-1.8699e-05
5.83445e-05
2.10719e-06
-2.02628e-05
-2.1381e-05
1.97015e-05
3.78678e-06
1.6234e-05
-5.78778e-05
-1.01281e-06
2.01529e-06
-4.53077e-06
1.80916e-05
3.03999e-06
-2.16952e-05
5.63655e-07
-1.2893e-05
-6.0392e-06
3.70238e-05
-1.387e-05
4.01714e-06
2.31811e-05
3.67117e-06
-4.07223e-05
1.5105e-05
1.20932e-05
-2.68355e-05
3.59014e-05
-4.48594e-05
0.000120816
-1.45051e-05
-0.000108695
2.38411e-06
-0.000113838
-6.14188e-05
0.000296073
-0.000109265
-1.9078e-05
0.000157112
4.57575e-05
-0.000312134
0.000207328
-6.92947e-05
-0.000188261
0.00033417
-0.000251198
-4.88347e-06
-1.56981e-05
-1.10769e-06
2.16893e-05
-5.05901e-06
3.53115e-06
-3.35562e-06
-1.06157e-05
-1.01415e-05
-8.18949e-06
-3.08474e-06
1.48054e-05
4.56658e-07
-1.20018e-05
6.29287e-06
-1.64519e-05
2.10042e-06
5.26554e-06
-7.86453e-06
-5.09538e-06
7.69437e-06
-2.58278e-06
5.86801e-06
1.9803e-06
5.17925e-06
-1.56266e-05
2.23998e-05
-2.01965e-05
-7.29869e-06
8.03531e-07
2.92906e-05
4.36134e-06
-4.66384e-06
-1.9894e-05
-8.98941e-07
6.06381e-06
1.97775e-07
4.77127e-06
7.13163e-07
2.82681e-05
2.58416e-05
2.09822e-05
-7.50919e-05
-8.13346e-07
2.48053e-05
4.27618e-06
2.48701e-05
1.582e-07
-1.75116e-06
2.25229e-05
4.03355e-06
2.43697e-05
-5.13876e-06
-2.07196e-05
6.81125e-05
3.80829e-06
-1.38317e-05
-1.36947e-06
-1.39051e-06
1.65916e-05
1.26033e-05
-1.47376e-06
-2.49611e-05
1.1691e-05
-4.57115e-07
-7.84017e-06
-6.85343e-06
2.63847e-05
-1.9277e-05
1.09798e-05
9.02077e-06
-2.97715e-05
7.77021e-07
1.59198e-05
9.95719e-06
5.72545e-06
-3.16024e-05
-2.30424e-06
1.58946e-05
2.32941e-06
-2.01911e-07
7.85487e-06
1.98728e-05
1.77866e-05
-3.19339e-05
6.25361e-06
2.95137e-05
1.00856e-05
7.49909e-06
2.41941e-05
-1.86883e-05
-1.66534e-07
1.86142e-05
2.40688e-07
1.24181e-05
8.89541e-06
-4.00018e-05
1.23291e-06
1.10187e-05
1.58116e-05
-2.10001e-05
6.4214e-06
-7.01593e-06
3.38462e-05
-2.54977e-05
3.7096e-05
-3.76024e-05
2.98812e-05
6.36235e-06
-2.53081e-05
-1.09354e-05
-1.50869e-05
-4.17218e-06
4.91403e-05
-1.91305e-05
1.04059e-05
7.18627e-06
-2.41361e-05
-8.35816e-06
-1.55798e-05
1.85939e-05
2.78557e-05
-7.11223e-05
2.26819e-05
-5.05331e-05
-1.27628e-06
5.28208e-05
-1.01134e-06
1.97156e-05
2.22324e-05
-9.24811e-05
-1.90535e-06
2.03447e-05
5.60052e-05
-5.06745e-05
-7.23599e-06
-3.29972e-05
0.000109347
7.79621e-05
4.46429e-05
-0.000100373
3.12784e-05
9.95045e-05
2.64985e-06
-8.68145e-06
9.31007e-07
-6.68925e-05
-4.68351e-05
-1.49548e-05
0.000128682
-8.953e-07
-7.32332e-05
-4.84552e-05
7.24847e-07
1.62823e-05
-7.32777e-06
-5.74097e-05
1.68857e-05
1.21376e-07
1.85849e-05
2.58391e-05
-5.17518e-05
5.4833e-05
-1.93623e-05
8.32226e-05
-0.000130617
0.000123101
-6.13997e-05
-8.70802e-07
6.00323e-05
2.23827e-06
2.37299e-05
4.95446e-05
-0.000134674
-9.31264e-07
2.37904e-05
3.42565e-05
-3.31017e-05
-2.08606e-06
-1.07695e-05
6.88164e-05
-3.61176e-06
5.93908e-05
4.2532e-06
4.77598e-05
-1.82698e-06
-6.2196e-05
0.000110817
-4.75378e-05
-2.05053e-05
-4.07093e-05
0.000130031
-2.24502e-05
-1.41183e-07
2.26217e-05
1.03701e-05
-5.5442e-05
2.22103e-05
2.70238e-07
1.62515e-05
-5.34191e-05
6.75615e-05
-2.90997e-05
0.00013767
-4.83752e-05
-2.74449e-07
4.64071e-05
2.2426e-06
4.07948e-05
4.89395e-05
-3.62643e-09
4.0524e-05
4.91736e-05
-2.37695e-07
-4.98198e-05
0.000139517
-3.65046e-06
2.88724e-05
3.40695e-05
7.32362e-06
-7.02655e-05
-3.92344e-06
2.96266e-05
3.16918e-06
-3.65629e-05
2.19244e-05
-8.51172e-05
4.00995e-05
2.98e-05
2.43702e-05
-9.42697e-05
8.15986e-06
4.98273e-05
6.62325e-06
3.13366e-05
5.95439e-05
4.72618e-05
1.98368e-05
8.95344e-05
4.18203e-05
1.20648e-05
9.29938e-05
4.90169e-05
2.10458e-05
5.04434e-05
1.74267e-06
-6.62216e-05
-5.24142e-05
-0.000116486
-2.57784e-05
-2.42629e-06
4.2232e-05
-1.41947e-05
-4.11096e-05
-2.75607e-05
-3.7588e-05
-1.02905e-05
-2.8616e-05
-2.20304e-06
-2.4377e-05
-1.34742e-05
1.03726e-05
-1.84502e-05
-2.95103e-05
-4.08151e-05
-5.8974e-06
-5.92946e-05
-3.78217e-05
-6.21841e-05
-4.7547e-06
2.38758e-05
4.02193e-05
-0.000103158
3.37459e-06
3.209e-05
5.18144e-05
-2.44739e-05
2.40041e-05
6.09338e-05
3.35779e-05
4.413e-05
-0.000102182
2.54188e-05
3.21632e-05
8.18474e-06
-3.84386e-05
5.56727e-05
-6.28102e-05
3.04912e-05
-4.91714e-05
5.29864e-05
8.52246e-06
2.74687e-05
3.44586e-05
3.13923e-05
7.33185e-05
5.27961e-07
-7.61004e-05
2.25388e-06
-4.05544e-05
-4.45149e-05
0.000158388
1.427e-06
-4.14534e-05
-3.82577e-05
3.68732e-05
2.81148e-06
5.67516e-06
-8.53863e-05
-6.38365e-05
5.61949e-05
-0.000134262
-1.71226e-05
-5.11348e-05
9.19804e-06
5.90593e-05
3.29998e-06
-2.007e-05
-3.52517e-07
-5.33201e-05
5.48528e-06
-2.3089e-05
-3.05804e-05
6.28675e-05
-7.16995e-05
2.85405e-05
8.5332e-05
1.78998e-05
-0.000156552
8.39607e-05
6.85664e-06
0.000102645
-0.000156445
0.000156025
-2.66274e-05
-5.73605e-05
1.56059e-06
7.06762e-06
1.82533e-05
3.28199e-06
-1.93082e-05
-2.2271e-06
-4.16403e-05
-1.64986e-06
6.15435e-05
2.40301e-06
-4.07613e-05
1.82004e-05
-6.85949e-05
3.10864e-05
-4.74698e-05
6.40203e-05
-3.91492e-05
3.92741e-05
2.27814e-06
1.61011e-06
-8.15206e-05
5.94134e-05
-0.000126398
5.12177e-05
-2.45991e-05
-2.38938e-05
-1.09424e-05
5.94353e-05
-9.3246e-07
-2.34643e-05
-2.02288e-07
-2.20148e-05
1.89844e-05
-7.4735e-05
3.22863e-05
6.42369e-05
4.77311e-05
-0.000155132
-0.000161266
-3.22731e-05
-6.47366e-05
-1.89039e-07
-6.88702e-07
1.56041e-05
9.10569e-08
-1.55148e-05
-1.80379e-07
-3.58775e-05
-1.07398e-05
6.22213e-05
-8.9699e-07
-3.48894e-05
1.01305e-05
-5.57752e-05
3.01299e-05
-6.13163e-05
6.0707e-05
-5.90002e-05
-3.21306e-06
-0.000149665
-7.2202e-05
-3.57735e-05
-5.32902e-05
-1.57867e-06
-7.15775e-05
9.54242e-07
-3.5074e-05
3.82474e-05
-0.000154842
7.11142e-05
-0.000159265
2.78159e-06
-3.24497e-06
7.0911e-07
2.3412e-05
3.39771e-05
1.25429e-05
-6.9932e-05
-1.21837e-06
9.56825e-07
2.36736e-05
3.36195e-05
-8.60782e-07
3.83884e-05
-3.64773e-05
-1.06167e-05
7.26787e-05
-4.53935e-05
6.83963e-05
-6.93279e-05
-3.53643e-05
-2.34084e-05
-1.08474e-05
6.96201e-05
1.73307e-06
-3.22173e-05
-4.88012e-06
-2.3177e-05
1.50165e-06
3.86656e-05
8.64748e-06
-7.049e-05
3.50818e-05
5.08541e-06
4.63683e-05
-6.9938e-05
7.06027e-05
-4.15544e-05
-1.88204e-05
1.46761e-06
5.89071e-05
1.27136e-05
-1.3331e-05
-4.09369e-05
1.1624e-05
-1.77307e-05
-2.60049e-05
-1.2041e-05
3.95135e-05
-1.04087e-06
-3.8295e-05
-3.37955e-05
3.33785e-05
-5.25671e-05
-9.77339e-06
-2.98508e-05
1.35075e-05
2.61167e-05
-1.75258e-05
1.8956e-05
-1.12036e-05
4.85832e-06
-5.22349e-05
-3.63046e-05
-1.65327e-06
5.69139e-05
-1.27657e-05
-3.47425e-05
2.03626e-05
-2.827e-05
3.22168e-05
-1.85947e-05
9.55381e-06
3.26689e-05
-2.3628e-05
1.69381e-05
1.42446e-05
-4.97774e-05
1.75599e-05
8.932e-06
3.42064e-05
3.06518e-05
-5.06136e-05
1.61625e-05
5.07128e-05
-1.87208e-05
5.24433e-05
2.0863e-05
1.99776e-05
1.11358e-05
1.99791e-05
-5.10925e-05
-8.476e-06
1.00023e-05
1.84514e-05
2.92242e-05
-2.65643e-05
9.15564e-06
-2.34182e-05
2.42648e-05
-1.7227e-05
4.4834e-05
2.29634e-06
-9.0219e-06
-1.66926e-05
-1.05682e-05
-4.36238e-06
-2.89681e-06
2.15527e-05
8.06032e-06
3.23767e-05
1.08371e-05
-2.60937e-05
-1.71201e-05
-1.09151e-05
1.40621e-05
2.92297e-05
1.90002e-05
-1.90782e-05
-4.93203e-05
1.7228e-05
-9.3967e-06
-5.90018e-05
-1.26518e-05
-1.52889e-07
3.00327e-05
5.63942e-06
-2.76879e-05
-1.06455e-05
2.45548e-05
-3.10999e-05
-2.07499e-06
1.18949e-05
1.85831e-05
-2.8403e-05
1.78921e-05
2.33457e-05
-4.33128e-05
1.90059e-05
1.0781e-05
1.52219e-05
3.08157e-05
-2.74544e-05
1.64488e-05
2.21188e-05
3.74776e-07
4.94468e-05
2.76047e-05
3.61298e-05
6.98604e-05
-1.54612e-05
-9.0529e-05
2.45924e-05
-3.00493e-05
4.15866e-05
3.51475e-05
5.93053e-05
8.17916e-05
-7.31298e-06
-0.000104528
1.73238e-05
0.000106054
-7.48662e-05
-9.76405e-05
-2.61611e-05
-1.84848e-05
-1.80512e-05
6.26972e-05
-1.29802e-05
-3.32202e-05
2.00393e-05
-1.21781e-05
-1.9287e-05
-4.22513e-05
-3.65106e-05
6.07107e-05
-1.35517e-05
-6.19199e-05
4.62871e-06
-3.03585e-05
-5.11689e-05
-2.81465e-05
1.86282e-05
-3.51062e-05
3.4753e-05
-9.71643e-05
3.39794e-05
1.94018e-05
-2.76531e-05
6.16157e-05
2.77546e-05
3.5789e-05
-2.40742e-05
-3.94694e-05
1.83677e-05
-9.16844e-05
0.000101071
-0.0001097
0.000163857
-9.06792e-06
2.94529e-05
-4.4459e-05
3.34439e-05
-8.1981e-05
-3.29537e-06
-5.4945e-05
-8.35423e-05
-0.000136834
-0.000167641
-9.52033e-05
0.000399679
2.29171e-05
-1.48466e-05
-0.000144904
-0.00023313
8.84055e-05
-0.000204022
0.000220921
-3.17454e-05
8.34611e-05
-0.000432388
0.000269731
-0.0004194
0.000395449
-7.67271e-05
-1.70601e-06
6.71678e-05
1.12654e-05
5.89461e-05
6.16038e-05
-0.000197277
5.56525e-05
1.58746e-06
2.00911e-05
6.59557e-05
-2.44431e-05
6.33487e-05
2.391e-05
-4.94529e-05
0.000168454
1.80901e-05
-2.82958e-06
-4.8677e-06
3.96857e-06
3.72871e-06
6.20954e-06
1.61564e-06
-1.06548e-05
5.98047e-06
-4.63863e-06
9.54546e-07
2.41422e-07
2.7726e-06
-1.69329e-06
6.37655e-06
1.85546e-06
1.60541e-09
6.14264e-06
7.68349e-06
1.82036e-05
-2.36315e-05
-2.25568e-06
4.23594e-06
-1.46588e-05
1.81063e-05
-1.09375e-05
3.33771e-05
1.98943e-05
1.92837e-05
-6.28095e-05
1.3e-05
-1.35893e-06
5.98386e-06
7.03555e-07
-7.71903e-07
-6.40998e-06
-3.39184e-06
1.05737e-05
-2.40653e-06
1.80128e-06
-1.66653e-07
-7.60234e-06
-1.21417e-06
-3.02166e-06
5.34912e-06
-5.26181e-07
2.26237e-06
-5.45068e-06
6.89358e-06
-1.22336e-05
7.35917e-06
4.88353e-06
2.75317e-06
5.76583e-06
4.78044e-06
-1.5997e-05
6.54013e-06
-1.30047e-06
-1.25659e-05
2.39896e-05
-2.5924e-05
1.20576e-05
1.1247e-05
-2.84162e-06
-1.31623e-06
-7.0892e-06
-1.81303e-05
-3.99771e-06
-5.82883e-06
-1.51431e-05
-2.14846e-05
1.68894e-05
-1.23355e-06
1.97754e-06
-3.86053e-05
-3.19467e-06
-2.11926e-06
5.46206e-06
1.91567e-05
1.77473e-06
1.47334e-05
5.83448e-06
-1.77937e-05
-0.000125019
9.14202e-05
5.13929e-05
-9.77689e-05
9.71398e-05
-1.71646e-05
7.81829e-05
-0.000300971
-0.000121975
-7.27851e-05
0.0002919
-8.81986e-05
-5.09407e-05
3.22857e-05
-4.23013e-05
5.09208e-05
-9.44917e-05
-0.000104618
-0.000126398
4.91004e-06
-0.000108241
8.83887e-06
4.23517e-06
-0.000103943
-0.000106764
0.000103904
7.0955e-06
8.99172e-05
-0.000300624
-1.72894e-05
-1.03415e-06
-3.97835e-05
-2.93532e-07
7.12919e-05
2.69351e-06
-7.36919e-05
8.02851e-05
-7.56115e-05
-4.96726e-06
-6.62835e-05
0.00021786
-8.00026e-05
7.23072e-05
1.03888e-05
8.31787e-05
-0.000236873
1.7261e-06
5.84107e-06
7.74951e-06
-7.72124e-06
-4.40971e-05
-8.11647e-05
-0.00020927
6.31108e-06
-3.30137e-05
5.19147e-05
-2.52121e-05
-3.73222e-05
3.40263e-05
9.60694e-06
6.06765e-05
-0.000131012
-2.15417e-05
-6.0408e-05
0.000115976
-4.61479e-05
3.42131e-05
-2.1017e-05
3.55457e-05
-2.95104e-05
-7.94925e-06
3.7002e-05
-3.73273e-05
8.27451e-06
6.58144e-05
-5.03513e-05
-4.16458e-05
-6.21414e-05
2.62259e-05
-0.000113905
-4.7969e-05
1.45977e-05
-8.38846e-05
3.05876e-05
1.6848e-05
-2.3866e-06
-4.50489e-05
-3.00901e-05
-1.70047e-05
-1.40859e-05
1.35534e-06
-3.72925e-07
-2.03636e-05
3.73182e-06
-1.31035e-05
-3.58537e-05
3.08322e-07
-6.85248e-06
3.56679e-06
2.97737e-06
-9.67337e-06
4.62497e-06
5.35672e-06
1.29379e-05
9.76796e-06
1.76973e-06
6.02974e-06
-4.23269e-06
4.1164e-06
2.27828e-06
-4.89055e-06
2.19449e-05
1.09071e-05
-9.57942e-07
-1.1048e-06
1.25713e-06
8.05611e-07
3.87144e-07
4.81442e-06
-6.15951e-06
1.03519e-07
-8.21222e-07
2.01358e-06
1.13686e-06
-1.89331e-06
5.18494e-06
1.64304e-06
-2.87953e-06
8.16795e-06
-2.56394e-06
3.28223e-05
5.79909e-06
4.17359e-06
-4.2795e-05
-6.0127e-06
1.28799e-05
2.59551e-05
3.08694e-06
-3.30049e-06
-1.69144e-05
-5.23842e-06
2.52398e-05
-7.87686e-06
-1.2338e-05
3.6134e-05
8.36384e-06
-4.03242e-05
6.89008e-06
4.2124e-05
-1.99212e-05
2.1573e-05
-1.94341e-05
-2.23481e-06
2.50832e-05
-2.57974e-05
2.94906e-06
2.57768e-05
-2.26983e-05
-5.31333e-06
-3.02971e-05
8.11571e-05
1.01223e-05
2.81238e-05
-6.09443e-05
2.71867e-05
8.1695e-06
-1.12799e-05
1.04959e-05
-1.58485e-05
-3.1182e-05
-4.10423e-06
-3.42838e-06
3.82324e-06
-1.62434e-05
-2.38605e-05
-1.07499e-05
-2.98395e-05
1.9465e-05
4.00034e-06
-5.00832e-05
-3.71888e-05
4.30024e-07
1.08165e-05
-1.24569e-05
1.21037e-06
1.38116e-05
2.07063e-06
2.62386e-05
1.97894e-05
-4.02717e-05
6.67056e-06
7.58048e-05
-1.23078e-05
-5.68264e-05
-8.78267e-05
-4.29374e-05
0.000206569
-1.27266e-05
-8.74079e-05
-0.00013714
0.000177628
-5.32149e-05
4.06398e-05
-0.000265187
-0.000143648
0.000278338
8.51101e-05
-1.57279e-05
-6.8075e-05
-1.30709e-06
-0.000198298
-2.87263e-05
-0.000172554
-4.14719e-05
0.000108653
2.17093e-05
-0.000198437
9.89379e-05
8.40794e-06
3.34406e-05
3.54935e-05
-4.72247e-05
3.3183e-05
9.91955e-05
-4.8641e-05
5.30977e-05
-0.000185701
-2.47779e-05
-2.26838e-05
-1.25759e-05
6.00376e-05
-2.56502e-06
-3.89822e-05
1.67693e-05
2.03978e-06
-2.72886e-05