/*--------------------------------*- C++ -*----------------------------------*\
| =========                 |                                                 |
| \\      /  F ield         | OpenFOAM: The Open Source CFD Toolbox           |
|  \\    /   O peration     | Version:  v2012                                 |
|   \\  /    A nd           | Website:  www.openfoam.com                      |
|    \\/     M anipulation  |                                                 |
\*---------------------------------------------------------------------------*/
FoamFile
{
    version     2.0;
    format      ascii;
    class       volVectorField;
    location    "0.45";
    object      U;
}
// * * * * * * * * * * * * * * * * * * * * * * * * * * * * * * * * * * * * * //

dimensions      [0 1 -1 0 0 0 0];


internalField   nonuniform List<vector> 
6576
(
(0.0341037 -1.48139 -0.0687322)
(-0.094989 -1.53637 0.0804526)
(-0.034361 -1.56763 0.0123094)
(0.0449526 -1.45082 -0.0632991)
(-0.00523933 -1.50744 0.00543973)
(-0.0826493 -1.59925 0.0811455)
(-0.0180838 -1.54771 0.0326668)
(0.0160178 -1.49814 0.00320962)
(0.0182275 -1.24801 -0.0098606)
(0.0183428 -1.45869 0.00118301)
(-0.011763 -1.51039 -0.0163906)
(-0.017804 -1.55022 -0.0107368)
(-0.00211056 -1.55275 0.00727588)
(0.00776297 -1.48803 -4.93867e-05)
(0.0617044 -1.45695 0.0229067)
(0.00811606 -1.82231 -0.0338329)
(0.0690279 -0.861285 0.0342864)
(0.017131 -1.71967 -0.0164243)
(0.0571366 -1.56232 0.064684)
(0.0182552 -1.48046 0.0040864)
(0.0498505 -1.37655 0.0509122)
(0.00213308 -1.53512 0.0157175)
(0.0107244 -1.46916 0.0089247)
(-0.0048979 -1.50019 -0.0122424)
(0.0016913 -1.59572 0.0210268)
(0.0546592 -1.52975 0.0572512)
(0.0644914 -1.49415 0.0676129)
(0.000583685 -1.45692 0.0141792)
(-0.00599002 -1.57964 -0.0318366)
(0.00752801 -0.963458 -0.00873967)
(-0.0558951 -1.57704 0.0650524)
(-0.0282104 -1.45705 -0.00980156)
(-0.012687 -1.5556 0.000411164)
(0.0126659 -1.45809 0.0321919)
(0.0171952 -1.46651 0.0353157)
(-0.0197819 -1.25755 0.0100013)
(0.00153846 -1.64274 0.0118102)
(-0.0150745 -1.56987 0.0105484)
(0.0184616 -1.4793 0.0250016)
(0.0108502 -1.47799 0.0192633)
(0.00256165 -1.31005 0.0320753)
(-0.0178891 -1.47709 0.00624461)
(-0.000888263 -1.40634 0.00630862)
(0.581411 1.69297 0.996993)
(0.391593 1.69368 0.727778)
(-0.171072 1.10736 -0.00675941)
(0.00161499 1.83731 0.718894)
(0.367744 1.86976 1.09544)
(-0.179483 0.771223 0.243811)
(-0.252316 1.0705 0.0548645)
(-0.45736 1.42418 -0.00611291)
(-0.165076 1.26425 0.385711)
(-0.086949 2.134 -1.20777)
(-0.0112218 1.26784 -0.0583316)
(0.0118561 2.14396 -0.531316)
(-0.196932 2.63626 0.128183)
(-0.0462667 2.81153 -0.929036)
(-0.0845662 3.21009 -1.08431)
(-0.213035 3.10777 -0.216971)
(-0.0429195 -0.969115 -0.0907985)
(-0.0159656 -0.768118 -0.482986)
(-0.0190277 -0.568586 -0.305648)
(0.0643412 -0.616235 -0.105517)
(0.0694914 -0.759261 0.0920793)
(-0.00815516 -0.87802 -0.00892298)
(0.051316 -0.766083 -0.264862)
(-0.0792712 -0.385225 0.10109)
(0.118422 -0.319401 0.0386674)
(0.0444833 -0.524433 -0.154509)
(0.0462497 -0.25271 0.0839059)
(-0.207135 -0.225379 0.289371)
(0.0526894 -0.271321 -0.00156257)
(-0.15115 -0.1508 0.227836)
(-0.109825 0.0351585 0.324932)
(-0.1634 0.0842788 0.315927)
(4.20168e-05 -0.455645 0.486684)
(-0.180062 0.0870667 0.242322)
(-0.421851 -0.268698 0.0865881)
(0.0114537 -0.686463 0.041782)
(-0.16678 -0.817997 0.158857)
(0.000893617 0.98932 0.238627)
(-0.0790433 0.988865 0.226437)
(-0.0762927 0.96224 0.215104)
(0.0461949 0.749636 0.140413)
(0.0905733 0.680892 0.0503923)
(0.0389723 0.807328 -0.00435024)
(-0.029374 0.843345 0.0622913)
(0.0619272 -0.964363 0.0763279)
(0.0884609 -1.06259 0.21268)
(-0.00621229 -0.892385 -0.110048)
(-0.0323218 -1.08656 -0.000435361)
(-0.000440194 -0.906231 -0.0963199)
(0.0370459 -1.08968 0.153887)
(0.0217488 -0.99566 0.0534645)
(0.145966 -0.121734 0.733072)
(-0.0543325 0.0333051 0.971343)
(0.0711818 -0.153608 0.868039)
(-0.0244819 0.122374 0.980684)
(-0.0412515 -0.147335 1.0939)
(0.044914 -0.152341 0.78897)
(0.0862433 -0.0015712 0.80972)
(0.0206347 -0.0659987 3.10614)
(0.069772 0.163215 2.51592)
(0.00559867 0.271558 2.12068)
(-0.00962681 0.245349 2.69813)
(-0.131517 0.0764524 3.06008)
(0.00533172 0.2519 2.52946)
(-0.0879629 0.0915928 2.77982)
(0.0877645 0.28308 1.53669)
(0.012324 0.378284 1.06676)
(0.0777687 -0.0734789 0.711096)
(-0.0633862 0.677146 1.72848)
(0.320097 0.0794454 0.781509)
(0.151201 0.146747 0.64645)
(0.131166 -0.572152 -0.526276)
(0.0297052 -0.506347 -0.145334)
(0.218032 -0.490376 -0.442485)
(-0.111886 -0.625927 -0.241852)
(-0.0211202 -0.447471 -0.0599196)
(0.0940884 -0.35131 -0.253917)
(-0.019441 -0.507456 -0.54766)
(0.0142973 -1.34697 0.0230589)
(0.0213935 -1.56152 0.0623363)
(-0.00124419 -1.43693 0.026864)
(-0.00271675 -1.50252 -0.0469575)
(-0.00100597 -1.46503 0.019072)
(0.085479 -1.64159 0.125656)
(-0.0359802 -1.53783 0.0589933)
(0.0500204 -9.95958 -0.0458356)
(0.000323431 -9.65156 -0.026879)
(0.0482973 -9.59078 0.00296346)
(0.0979474 -9.61332 0.27634)
(0.208686 -9.86358 0.13623)
(0.1336 -8.71286 0.0191989)
(0.189133 -9.45815 0.0859352)
(-0.0380303 -1.18294 5.47761)
(0.199207 -1.06275 4.92977)
(0.172659 -0.94876 4.43703)
(-0.247689 -1.46678 5.13247)
(-0.125259 -1.45725 5.49563)
(0.115067 -1.2812 5.10436)
(0.0572937 -1.23073 4.54459)
(-0.188805 -2.54795 2.62796)
(0.0324174 -1.91915 3.43448)
(-0.104625 -2.27753 3.28173)
(0.369757 -1.9329 2.41338)
(0.26902 -1.90161 2.91916)
(0.533492 -1.87553 3.0525)
(0.552218 -1.79073 2.1679)
(0.109884 -3.10026 0.923179)
(-0.0156105 -3.44506 1.33093)
(-0.0260645 -3.27253 0.584749)
(-0.151622 -2.75462 1.8704)
(0.381987 -3.03231 1.78465)
(0.0221143 -2.8953 1.25557)
(-0.19814 -2.51428 1.64916)
(-0.0701057 -2.48574 0.875141)
(0.0432171 -2.33465 0.459958)
(0.00428735 -2.23298 0.762942)
(0.00186507 -2.33508 0.750964)
(0.231043 -2.09595 0.390329)
(0.0302825 -1.32091 0.619882)
(-0.156378 -1.78625 0.715018)
(-0.0577486 -1.60387 0.609823)
(-0.196354 -1.82638 0.734878)
(0.00908572 -2.58733 0.0649906)
(0.053386 -2.26148 -0.161346)
(-0.154741 -2.15171 0.128122)
(0.0239096 -2.31931 0.372017)
(0.461545 -2.52879 0.197999)
(0.17861 -2.05341 0.0425497)
(-0.288267 -1.77347 0.558421)
(0.0739256 -1.29933 -0.115524)
(0.00309899 -1.40294 -0.117246)
(0.0207159 -0.856299 0.0272239)
(-0.162473 -1.45109 0.293447)
(-0.489605 -1.99891 0.420674)
(-0.110058 -1.1908 0.0884161)
(-0.125393 -1.30135 0.0590525)
(-0.155571 -1.39543 0.1614)
(-0.0901097 -1.31974 0.248895)
(0.00239446 -0.629442 -0.132704)
(0.151669 -0.624956 -0.193999)
(0.0451871 -0.720464 -0.327017)
(0.0584438 -0.64657 -0.0753323)
(0.165102 -0.748751 -0.0810861)
(-0.168628 -1.59243 0.438181)
(-0.0880387 -1.09058 0.258576)
(-0.00959673 -0.53138 -0.181108)
(-0.00490826 -0.496832 -0.170093)
(-0.0340499 -0.371063 -0.420602)
(-0.00498388 -0.726271 -0.331546)
(-0.125709 -0.499404 -0.398937)
(0.113348 -0.734005 -0.295925)
(0.15796 -0.513819 -0.305829)
(0.0750631 -0.520619 -0.236904)
(0.193565 0.00853418 -0.17409)
(-0.028994 -2.82687 0.274531)
(-0.20652 -2.61769 -0.12633)
(-0.39777 -2.9012 -0.00767768)
(0.100859 -3.00169 0.0139205)
(0.200223 -3.04353 0.062179)
(-0.25104 -2.9298 -0.0987238)
(-0.316077 -2.83035 -0.149458)
(0.0724387 -4.09514 0.842505)
(0.19018 -2.7652 0.218335)
(-0.133832 -5.4023 0.762204)
(-0.488123 -2.88183 0.0492459)
(-0.512295 -0.862957 -0.902098)
(-0.0657661 -1.60064 -0.726242)
(-0.148504 -3.63283 0.0604631)
(0.0726439 -9.54869 -0.376153)
(0.213119 -9.26365 -0.388405)
(0.0903209 -8.86483 -0.482678)
(-0.235266 -9.61631 -0.749311)
(-0.310639 -10.2267 -0.659037)
(-0.255648 -10.3448 -0.773791)
(-0.140995 -9.14429 -0.622852)
(-2.71347e-05 -0.856879 -0.142592)
(-0.00398738 -0.957374 -0.191209)
(0.0390676 -0.883742 -0.146068)
(0.00518744 -1.06074 -0.193125)
(-0.0197053 -1.21515 -0.215495)
(-0.0261817 -1.11498 -0.240473)
(0.0230616 -1.03178 -0.213588)
(0.0510453 -1.17567 -0.224915)
(0.0124214 -1.06266 -0.179716)
(0.00748477 -0.987243 -0.292646)
(-0.00893413 -1.12185 -0.13032)
(0.0849109 -1.26712 -0.195344)
(0.0149049 -1.10619 -0.24465)
(-0.0515986 -1.00858 -0.201892)
(0.00300694 -0.921531 -0.198621)
(0.0376052 -0.868717 -0.139269)
(0.0152463 -0.903341 -0.126597)
(-0.0321779 -1.01949 -0.30898)
(-0.00344515 -0.971986 -0.305916)
(0.0410228 -0.915078 -0.22791)
(-0.00248259 -0.953786 -0.216417)
(0.0429009 -1.46712 -0.0297867)
(0.00433287 -1.3361 -0.0367899)
(-0.0324844 -1.31342 -0.0152126)
(-0.0214398 -1.18977 0.0683051)
(0.0216491 -1.25556 0.0764541)
(-0.0460669 -1.07989 0.110487)
(0.036522 -1.2503 0.0687513)
(0.00703001 -1.99383 -0.14595)
(0.0778737 -2.13826 -0.277195)
(0.0420116 -2.16881 -0.275138)
(0.0911671 -1.76869 -0.117893)
(0.0109271 -1.75736 -0.165127)
(0.161682 -1.78852 -0.0207684)
(0.0943812 -1.76847 -0.0933329)
(0.191493 -1.9011 -0.216533)
(0.107518 -1.9125 -0.229383)
(0.0263172 -3.50559 0.541653)
(-0.050939 -3.23207 0.263399)
(-0.0416679 -3.00306 -0.0201081)
(0.0788294 -3.11089 0.144832)
(0.0465484 -2.98192 -0.246827)
(0.0172887 -3.04179 0.00235292)
(0.0574432 -2.95627 -0.331748)
(-0.151203 9.95167 2.95916)
(-0.275387 7.20764 2.95132)
(-0.031266 5.19258 3.55885)
(-0.154454 9.24916 4.00032)
(-0.213777 10.3637 3.54018)
(-0.266619 8.29034 3.22445)
(-0.167821 6.87813 3.62258)
(0.1532 0.0446837 -2.00056)
(-0.541677 0.318001 -2.54561)
(-0.0370301 0.648526 -1.23299)
(0.134937 0.0535493 -1.92967)
(-0.296777 0.516123 -2.17823)
(0.00145011 1.02449 -1.55554)
(0.147048 0.873234 -1.24049)
(-0.181239 0.858697 -2.17984)
(-0.0213506 0.400048 -1.75)
(-0.225715 1.80739 0.322722)
(0.194583 1.19234 0.000459218)
(0.062478 2.03693 -0.0819921)
(0.248075 1.37952 -0.0703727)
(0.268293 2.0353 0.147812)
(-0.0765174 1.79684 -0.552514)
(0.0533818 2.13691 -0.23164)
(-0.0195636 2.52589 -0.117867)
(-0.0481863 2.47384 -0.0649542)
(-0.0192977 2.40884 -0.266018)
(-0.0728946 2.245 -0.253798)
(0.0505596 2.06558 -0.208367)
(-0.116164 2.51624 -0.0737916)
(-0.0634247 2.58745 -0.0772396)
(-0.0420449 2.63235 -0.0833867)
(0.0544611 2.58557 -0.0369338)
(0.270715 1.38334 -0.112089)
(0.48474 1.48414 -0.128769)
(0.268074 1.29846 -0.153968)
(0.0302899 2.44665 -0.0899085)
(-0.0816172 2.21581 -0.0176273)
(-0.034557 2.64192 -0.0244997)
(0.0848447 2.28651 -0.127929)
(0.00601921 2.55625 0.140574)
(-0.0225472 2.67633 -0.0557522)
(-0.0203781 2.32829 -0.20325)
(0.189567 -0.658971 0.153122)
(0.00140336 -0.738152 0.0767822)
(-0.0399266 -0.168115 0.270957)
(0.118086 -0.866485 0.341339)
(0.288773 -0.672614 0.253843)
(0.322549 -0.230035 0.285235)
(-0.0108333 -0.516589 0.348693)
(0.0448609 -2.13966 -0.0517695)
(0.000275574 -2.13634 -0.0857993)
(0.029398 -1.80617 -0.15747)
(0.00416839 -2.133 0.0176594)
(-0.0844212 -2.17971 -0.0058529)
(0.0696816 -1.89135 0.0798598)
(-0.218431 -2.17723 -0.0145253)
(-0.292131 -2.16053 0.100763)
(-0.203207 -2.11721 0.22358)
(0.0759232 -0.148613 -0.799545)
(0.115588 0.537435 -1.02214)
(-0.149817 0.218162 -0.467459)
(-0.0771661 0.352532 -1.01682)
(-0.0513108 0.143832 -0.77012)
(-0.00188623 0.50662 -1.04906)
(-0.100021 0.328836 -0.985997)
(-0.475391 0.360648 -0.840271)
(0.0152285 0.99574 -0.739878)
(-0.133831 0.425145 -1.09523)
(0.0585844 0.957757 -0.85878)
(0.294634 0.800439 -1.25038)
(-0.116402 0.225021 -0.607795)
(-0.536185 0.308461 -0.314218)
(0.10147 1.55123 -0.83691)
(-0.236166 1.69401 -2.05076)
(-0.450638 0.585634 -0.916167)
(1.09606 2.07041 -0.187411)
(0.289272 2.34305 -0.444815)
(1.28668 2.5437 -0.253728)
(-0.118325 2.76236 0.341706)
(-0.353548 1.96446 0.149565)
(0.347788 2.13493 0.071414)
(0.132772 1.51036 -0.260344)
(-0.50949 1.80303 -0.7101)
(-0.114096 1.88894 -0.225881)
(0.765907 1.02038 0.355473)
(0.632742 1.67736 0.160792)
(0.0691188 1.50794 -0.242338)
(-0.0210875 1.6833 -0.226993)
(0.094942 1.74389 -0.170135)
(0.0886964 1.4921 -0.0744259)
(0.126072 0.0264755 -3.74347)
(-0.300795 -0.143249 -2.14191)
(-0.553698 -0.0979628 -0.728651)
(-0.215432 -0.0334934 -2.78343)
(-0.0032445 0.239639 -3.56216)
(-0.198495 -0.00769306 -2.07843)
(-0.0294014 0.141821 -2.60707)
(0.13561 -0.0433148 -0.68235)
(-0.0877704 0.149157 -1.32009)
(0.332408 -0.00319717 -0.356391)
(-0.267136 0.0521025 -1.71877)
(-0.204594 0.38198 -1.92698)
(0.0153995 0.938051 -2.16808)
(-0.0595819 0.525771 -2.27452)
(0.0101117 0.923892 -1.71258)
(0.134804 0.426493 -1.16022)
(0.245976 -0.100095 -1.52018)
(0.394463 -0.261055 -1.53356)
(-0.0714122 -0.0115456 -1.37677)
(-0.0432278 0.0332711 -1.38892)
(-0.0622859 0.307823 -1.83056)
(0.127649 -0.1939 -1.58801)
(-0.0612602 0.190878 -1.74915)
(-0.0175562 0.037748 -1.8443)
(-0.11361 0.107286 -1.81695)
(0.0266406 0.149768 -1.99924)
(-0.0637023 0.251624 -1.76859)
(-0.0909433 -0.0548716 -1.73372)
(-0.103233 -0.128643 -1.73629)
(-0.206061 -0.320601 -1.67804)
(0.0481446 -0.386859 -0.202263)
(-0.0347121 -0.157567 -0.133908)
(-0.0162014 -0.573824 -0.137756)
(0.136879 0.0826952 -0.0686622)
(0.0357028 -0.193645 -0.0850864)
(-0.280956 0.213039 -0.491522)
(-0.019303 -0.350342 -0.0397984)
(0.0852424 -0.37398 -0.278528)
(0.24052 0.135384 -0.498663)
(0.0578878 0.757533 -0.782227)
(0.0920786 0.686898 -0.720547)
(-0.0394611 0.949175 -0.839997)
(0.0499541 0.689247 -0.792041)
(-0.0619471 0.776034 -0.803852)
(0.0770866 0.581003 -0.627032)
(0.094422 0.642309 -0.658871)
(0.0456746 0.749094 -0.936346)
(-0.0863994 0.719753 -0.832708)
(0.116497 0.874857 -0.856924)
(-0.506502 0.20051 -0.414448)
(0.0315691 0.598968 -0.491116)
(-0.32323 0.536853 -0.597217)
(0.148332 0.785205 -0.546418)
(0.093686 0.718138 -0.516985)
(-0.158712 0.510833 -0.593212)
(0.0439393 0.218703 0.0869485)
(-0.132358 -1.06305 -0.00936447)
(-0.241645 -1.33589 -0.135407)
(-0.0194434 0.218109 -1.07592)
(0.273971 -0.725358 -1.13293)
(0.0926544 -0.250343 -0.627064)
(-1.66081 0.528516 -1.84417)
(-0.0280448 -2.28745 -0.150972)
(-0.00622652 -2.23568 -0.0925319)
(-0.0203012 -2.29043 -0.11759)
(0.0664285 -2.39715 -0.0801743)
(0.0173364 -2.32212 -0.106842)
(-0.0051456 -2.25279 -0.0860805)
(0.0448128 -2.364 -0.0627923)
(0.0405906 -0.948179 -0.520394)
(-0.0557289 -1.07557 -0.376856)
(0.0997173 -0.836603 -0.495849)
(0.0379342 -1.00122 -1.2546)
(0.33457 -0.434332 -1.24848)
(0.171178 -0.955458 -0.929132)
(0.344734 -0.637289 -1.04177)
(-0.0546626 0.567081 -1.37657)
(-0.336932 0.320892 -1.15592)
(-0.0971787 0.373005 -0.991228)
(-0.333889 1.4807 -1.27288)
(0.0559006 1.83596 -1.29947)
(-0.0321008 2.4267 -0.929776)
(-0.188388 1.68763 -0.896905)
(0.0559572 3.32113 -0.619821)
(-0.321702 3.60803 -1.50011)
(-0.117154 3.54132 -0.987034)
(0.130103 4.24852 -1.1365)
(-0.133478 3.77658 -1.81915)
(-0.265524 3.68116 -1.88411)
(-0.0566485 3.81217 -1.42333)
(-0.162507 6.53128 -0.767734)
(-0.0356471 6.22922 -0.268878)
(0.0713015 6.24967 0.123492)
(-0.0354086 6.85089 -0.85803)
(0.00654497 6.51172 -0.309611)
(-0.0169262 6.33464 0.145228)
(0.0840019 7.07274 -0.343326)
(0.0829845 6.74972 -0.0863491)
(0.0543832 7.32412 -0.751493)
(0.187387 5.14471 0.815709)
(0.258997 4.40407 0.690056)
(-0.0841617 3.09713 0.257542)
(-0.385649 3.87524 0.356792)
(-0.455779 3.35745 0.0650817)
(-0.437463 4.01145 0.992672)
(-0.249429 4.07321 0.867615)
(0.0178855 0.595998 -0.00918971)
(-0.0861508 0.609657 0.0161065)
(-0.114957 0.628385 0.0699658)
(-0.0436594 0.621722 0.0248904)
(0.00446238 0.695661 -0.0192813)
(-0.0671774 0.663864 0.00430666)
(0.0229836 0.666668 -0.0175556)
(-0.0829684 -0.638646 -0.0498259)
(0.445332 2.55198 -0.0452953)
(0.408327 0.975852 -0.0303854)
(-0.924366 0.512768 1.05356)
(-0.175188 0.672986 0.148736)
(0.14711 1.97748 0.285434)
(0.184219 0.742724 -0.116618)
(-0.0224189 0.880209 0.145715)
(-0.0188893 0.856614 0.069869)
(-0.0924871 0.68113 0.0679041)
(0.000116166 0.560851 -0.0338083)
(0.0454214 0.813608 0.0693656)
(0.0316304 0.73404 0.0293494)
(-0.0667143 0.547078 0.045729)
(0.0360125 0.818702 -0.047423)
(-0.023025 0.851031 -0.0231501)
(0.0207796 0.795811 0.0362093)
(-0.00280628 0.697106 -0.00445312)
(-0.0802043 0.584045 0.0144284)
(-0.102077 0.703322 0.0841967)
(-0.0643203 0.80254 0.0549669)
(0.077849 0.827121 0.0277967)
(-0.016992 0.630841 0.00915523)
(0.0957591 0.781632 0.00651766)
(-0.00137758 0.584844 -0.0143816)
(-0.073619 0.282506 0.0265097)
(0.0495868 0.656897 -0.0481372)
(-0.220955 4.79532 1.00917)
(-0.0628912 4.65007 1.14003)
(0.105058 5.25477 0.371516)
(0.167 5.27635 0.358571)
(0.170832 5.33073 0.314024)
(0.0605796 5.85821 -0.491393)
(0.347041 6.35109 -0.544691)
(-0.114427 2.14509 0.0383571)
(0.128919 3.88789 0.831941)
(0.310852 2.91027 0.562001)
(-0.302367 4.20358 -0.130266)
(0.332894 4.81604 -0.249657)
(-0.358512 5.01505 -0.0471598)
(0.265465 4.71507 0.300045)
(0.458972 3.79913 0.676037)
(0.391939 4.14033 1.06823)
(-0.389825 5.19719 0.423581)
(-0.0238445 5.46214 -0.225908)
(0.127771 6.22109 -0.806003)
(0.243554 5.92077 0.0128359)
(0.129776 5.81316 -0.364326)
(0.0829599 6.20465 -0.90348)
(0.38358 6.13641 -0.341207)
(0.131424 6.26834 -0.980255)
(0.121353 6.19665 -0.832084)
(0.402845 6.02704 -0.181877)
(0.055463 5.77943 -0.200849)
(0.467007 5.83947 -0.263641)
(-0.0584779 5.83363 -0.22623)
(-0.135163 5.75314 -0.448025)
(-0.144915 5.71579 -0.354387)
(-0.055208 5.82494 -0.177863)
(0.0025315 5.63753 -0.190563)
(-0.154919 5.29715 -0.0606396)
(0.343232 5.76877 -0.106363)
(-0.0323049 3.98562 -0.65862)
(-0.0161388 4.12252 -0.334844)
(0.0511084 3.71902 -0.539026)
(-0.103195 3.33523 -0.397531)
(-0.0571338 3.4779 -0.34238)
(0.0885063 3.33114 -0.509073)
(0.0659237 3.00082 -0.467864)
(-0.00450959 0.576345 -0.553051)
(0.0148777 0.957827 -0.534044)
(0.125691 0.790187 -0.592611)
(-0.0187552 0.497265 -0.702541)
(0.0269818 0.459777 -0.669241)
(0.0511475 0.584084 -0.758075)
(-0.00218839 0.587466 -0.667022)
(0.0184271 0.721833 -0.554475)
(0.12212 0.706545 -0.641653)
(0.0372377 -0.0391526 -0.721016)
(-0.0404882 -0.252555 -0.587866)
(0.0106563 -0.251451 -0.495881)
(-0.0353307 -0.165176 -0.529899)
(0.0252188 -0.0885691 -0.526796)
(-0.144878 -0.0997666 -0.527883)
(-0.0190694 0.0446554 -0.508922)
(-0.0328748 -0.762158 -0.469497)
(0.04727 -0.722223 -0.780295)
(-0.0748986 -0.373527 -0.580714)
(-0.0608708 -1.01861 -0.292031)
(0.103526 -1.04025 -0.477471)
(0.0998529 -0.82572 -0.662003)
(-0.0724073 -0.768357 -0.445986)
(0.144319 -1.07582 -0.325688)
(-0.0247085 -1.34032 -0.0577528)
(0.221282 -0.652521 -0.490022)
(-0.00526416 -1.40996 -0.0213631)
(-0.0970614 -1.10765 -0.130071)
(-0.0169604 -0.83667 -0.411967)
(0.0352508 -1.12833 -0.21333)
(-0.0220466 -2.03554 -0.345962)
(0.101355 -1.92513 -0.191465)
(0.0738198 -1.82463 -0.0455734)
(0.0498894 -1.89854 -0.132319)
(-0.000735802 -2.01306 -0.301473)
(-0.133234 -1.02358 0.114351)
(-0.0302363 -1.1034 0.00130462)
(0.00187322 -1.21397 -0.0673925)
(0.0389557 -1.15767 -0.10031)
(-0.0161853 -1.07822 -0.00339873)
(0.000391066 -1.08364 -0.0394553)
(-0.125273 -0.970304 0.0557686)
(-0.179425 -0.852339 -0.00172999)
(-0.0880889 -0.792812 0.00574143)
(0.00202773 -0.896986 -0.0719945)
(0.0113764 -0.750717 -0.179964)
(0.0456784 -0.710427 -0.321183)
(-0.0498114 -0.753728 -0.179071)
(-0.0952677 -0.84568 -0.0897301)
(0.239993 -3.34003 -0.0969864)
(0.426092 -5.11317 0.734865)
(-0.0511653 -6.60176 1.24874)
(-0.367078 -5.75595 0.66857)
(0.237655 -7.89721 1.3662)
(0.180172 -6.12163 0.916023)
(-0.34999 -4.62392 0.131321)
(-0.125143 -0.244331 0.392443)
(-0.0130596 -0.250597 0.281127)
(-0.0853426 -0.204046 0.517028)
(-0.0596353 -0.255033 0.102694)
(0.0652311 -0.160066 0.24796)
(-0.119313 0.0320209 0.167233)
(-0.227148 -0.223242 0.0106918)
(-0.0682218 0.255807 -0.304714)
(0.175466 0.084214 -0.153149)
(-0.0777514 -0.338397 -0.303591)
(-0.0559089 0.113868 -0.735956)
(-0.0270963 0.31402 -0.541099)
(-0.125053 -0.0895385 -0.595688)
(-0.0783217 0.176348 -0.437846)
(0.10674 0.12506 -0.0907712)
(-0.268623 -0.41036 -0.133755)
(-0.0819972 -0.124777 -1.42281)
(-0.0251747 -0.117031 -1.40562)
(-0.0346392 -0.00109274 -1.34474)
(0.136775 -0.0969283 -1.37507)
(-0.0398671 -0.0592206 -1.38923)
(0.0987068 -0.00531001 -1.29108)
(-0.00154424 0.0614875 -1.29256)
(-0.134138 -0.394146 0.174232)
(-0.329299 -0.126242 0.47415)
(-0.00366283 0.0618511 0.52747)
(0.158003 0.410419 0.370749)
(-0.265575 0.284809 0.885707)
(-0.17076 -0.0464866 0.529802)
(-0.126164 0.0331484 0.202738)
(0.00239686 0.0165396 0.579415)
(0.049843 0.0631236 0.556373)
(0.0103582 0.0886609 0.504977)
(-0.026227 -0.100465 0.580114)
(0.0301749 -0.0695212 0.531116)
(-0.0672832 -0.151339 0.586963)
(-0.0366318 -0.130187 0.498223)
(-0.00903212 -0.00550262 0.702957)
(0.0260765 0.100683 0.747911)
(0.00790786 -0.0115994 0.646004)
(0.00179855 0.126167 0.667645)
(-0.0242333 0.043205 0.663057)
(-0.0255736 0.0250043 0.723912)
(0.0152054 0.130566 0.708173)
(-0.00425375 1.48773 0.162778)
(0.0431855 0.928031 0.519981)
(0.00167157 0.755222 0.693712)
(-0.0406782 1.51891 0.12671)
(0.0990742 0.952958 0.265783)
(-0.0126151 1.36501 0.0362534)
(0.0468952 1.02533 0.372524)
(0.058406 1.82657 -0.0632047)
(0.0292731 1.76909 -0.00617896)
(0.0163337 1.74112 0.0928339)
(-0.0615084 2.19056 0.156193)
(-0.0577088 2.02341 0.111753)
(-0.0417097 1.88051 0.167643)
(-0.0130941 1.88776 0.104373)
(-0.0385714 2.05922 0.178207)
(0.00462542 1.92044 0.00790155)
(-0.0288567 2.45096 0.0524393)
(-0.140772 2.33849 0.143831)
(0.0828826 2.68676 0.00898351)
(0.0234046 2.77128 0.080441)
(0.0393286 2.77646 0.0357089)
(0.0753564 2.5565 -0.0894311)
(0.13127 2.36294 -0.0917299)
(-0.0760363 2.38322 0.0511509)
(-0.00504651 2.34131 -0.0712707)
(0.0633224 2.52028 0.0353358)
(0.10957 2.54987 -0.000769998)
(0.0127955 2.59026 -0.00238538)
(-0.0422647 2.45135 0.0993605)
(-0.0231861 2.5275 0.0991283)
(-0.0692828 2.56034 0.053842)
(0.0242002 2.49809 0.0757322)
(-0.0206344 2.57515 0.116724)
(0.0287804 2.55767 0.110766)
(-0.0651742 2.48631 0.0854506)
(-0.117492 2.05601 -0.018099)
(0.0569035 2.66117 0.0245988)
(0.0172735 2.65724 0.0203616)
(-0.0174982 2.57151 0.0452491)
(-0.026993 2.64617 -0.00547236)
(-0.0362543 2.61418 0.0852525)
(-0.106424 2.63565 -0.0386318)
(-0.0648073 2.6395 -0.0563142)
(0.024113 1.86661 -0.00211329)
(-0.0102036 2.95469 -0.0183983)
(0.0589827 2.67431 -0.00840624)
(-0.0155682 2.7471 -0.0466045)
(0.00526515 2.68688 0.0264637)
(0.0215056 2.99091 0.152104)
(0.00507602 2.31058 0.0580942)
(-0.0898486 2.6578 0.00900656)
(-0.0844643 2.36595 -0.19993)
(-0.125773 1.77858 -0.460679)
(0.123018 1.83253 -0.46459)
(-0.0486105 1.79534 -0.366678)
(-0.104281 1.60572 -0.361127)
(0.0717273 1.75189 -0.259924)
(-0.100739 1.55566 -0.162164)
(0.0169969 1.73148 -0.17804)
(-0.0190255 2.68391 0.020494)
(0.00162849 2.99488 0.187129)
(-0.142204 2.44203 -0.0291361)
(-0.166845 1.97654 -0.275202)
(-0.146064 2.24711 -0.247073)
(0.00387555 2.61921 -0.204676)
(0.0507644 2.33164 -0.200688)
(-0.0371689 2.29157 -0.273971)
(0.171231 1.95752 0.291325)
(-0.550588 2.03467 0.105373)
(0.105846 1.46031 -0.88571)
(0.610656 1.55523 0.184327)
(0.071834 1.4959 -0.429979)
(0.0605102 1.26726 -1.03531)
(-0.0602162 0.624817 -0.609458)
(0.120096 1.85906 -0.428529)
(0.340452 1.9337 -0.455346)
(0.18364 1.78053 -0.582455)
(-0.630013 2.16193 0.0299314)
(-0.156017 1.80828 -0.341366)
(0.0114442 1.2504 -1.65872)
(0.0153215 1.51875 -1.93067)
(-0.0134616 1.53076 -1.72415)
(-0.182912 1.81309 -1.11451)
(0.140633 2.06667 -0.83638)
(0.360718 2.24777 -0.606202)
(-0.0501031 1.69484 -1.06479)
(-0.0271087 0.276192 -2.50845)
(-0.313093 0.212695 -2.33951)
(-0.416239 -0.0473014 -2.03746)
(0.00964104 0.0343488 -2.84681)
(0.00346035 0.0176505 -3.00031)
(-0.00782122 -0.0886156 -3.01162)
(-0.00349186 -0.107095 -2.93066)
(-0.0162225 -0.0800724 -3.11369)
(-0.0162229 0.0100498 -3.01135)
(-0.00102466 0.00179696 -3.04587)
(0.0374927 0.143105 -2.82177)
(0.246479 -0.139105 -2.93843)
(-0.037475 0.223785 -2.86789)
(0.0172421 0.0964801 -2.98127)
(0.0503374 -0.00648417 -2.94391)
(-0.00580738 0.0120434 -2.96658)
(-0.0907651 0.112137 -2.78828)
(0.0198066 -0.0222589 -2.91959)
(-0.0310753 0.0228955 -2.89399)
(0.0566452 0.137513 -2.74313)
(0.0826008 0.00976416 -2.10842)
(-0.0176195 0.114041 -2.84949)
(-0.0340752 -0.154284 -2.91759)
(-0.0416196 -0.0420947 -2.96688)
(-0.0480333 0.0271421 -2.33268)
(-0.019219 -0.046128 -3.0526)
(-0.0512766 -0.0502348 -3.06677)
(-0.0986465 0.0449167 -2.91626)
(-0.112081 0.0534012 -2.90828)
(-0.0231622 -0.0182257 -3.01168)
(-0.0477259 -0.0105749 -3.01519)
(0.00485099 0.0587659 -2.71961)
(0.072214 0.104933 -2.8759)
(-0.0916809 -0.0553659 -1.94434)
(-0.0141993 0.0164068 -2.8886)
(0.0112102 -0.0204215 -2.97728)
(-0.0375304 -0.09844 -2.84423)
(-0.0108692 -0.00944311 -2.98138)
(0.0373473 -0.0340094 -2.92906)
(-0.022028 -0.00638371 -3.02122)
(0.0302273 -0.0513638 -3.09068)
(-0.0134474 0.0145798 -2.91584)
(-0.0229265 -0.0267957 -2.93643)
(0.00939031 -0.0905732 -2.84665)
(0.0223206 -0.034694 -2.82076)
(-0.0339652 0.0153018 -2.87339)
(0.000333208 -0.0530181 -2.83555)
(0.031522 -0.0733053 -2.78107)
(-0.0105527 0.0103811 -3.04373)
(0.0486987 -0.00884186 -2.79739)
(2.24577e-05 0.115187 -3.08756)
(-0.0732224 0.0663662 -2.91913)
(-0.00373446 -0.0602555 -2.98666)
(-0.050074 -0.107373 -2.902)
(-0.129883 -0.132383 -3.03517)
(0.0575515 -0.0159887 -1.3537)
(0.0147913 -0.0927538 -1.34295)
(-0.0231173 -0.0450896 -1.24132)
(0.0239872 0.0578695 -1.58589)
(0.0344262 0.0048564 -1.30203)
(0.0647298 0.0114764 -1.27249)
(0.0679545 0.0416386 -1.36238)
(-0.0358259 -0.0716205 -1.2875)
(-0.0429599 -0.092449 -1.2293)
(0.0145705 -0.0696414 -1.39352)
(0.00673811 -0.110183 -1.24608)
(-0.0119471 -0.0659234 -1.53694)
(-0.0667866 -0.139159 -1.22963)
(-0.0678896 -0.135369 -1.30835)
(0.012578 -1.12142 0.827933)
(0.0137131 -1.16199 0.777402)
(0.00338407 -0.9882 0.650816)
(0.0083916 -1.07567 0.725013)
(0.00639933 -1.1156 0.719675)
(0.00616456 -0.963761 0.618811)
(-0.00455324 -1.00617 0.589452)
(0.0168955 -1.00002 0.489296)
(0.00582812 -1.041 0.596658)
(0.00347826 -0.991417 0.408023)
(0.00834201 -1.06003 0.665801)
(0.00621852 -1.05062 0.645039)
(0.0202636 -1.02035 0.52604)
(0.015674 -1.04793 0.59022)
(-0.0157537 -0.965135 0.457771)
(0.00486442 -0.937284 0.317202)
(-0.0151509 -0.976489 0.572955)
(0.0442707 -0.944742 0.286218)
(0.00378846 -0.967222 0.366141)
(0.0153273 -0.979902 0.48907)
(0.0565395 -0.942444 0.381218)
(0.0229997 -1.04009 0.705591)
(0.0297779 -0.942528 0.503661)
(0.0556679 -0.967067 0.512784)
(-0.0178184 -0.748247 0.44795)
(0.0157292 -0.847955 0.434222)
(-0.136229 -0.638141 0.440482)
(-0.0161467 -0.858019 0.434046)
(0.00999477 -0.970117 0.507734)
(0.0251199 -0.786598 0.478783)
(-0.0215093 -0.266069 0.949345)
(-0.0437362 -0.708339 0.586578)
(-0.0260884 -0.859071 0.602807)
(0.0655997 -0.921324 0.812979)
(-0.0179133 -0.796354 1.14942)
(0.0472518 -0.841795 0.801446)
(-0.15729 -0.452684 1.25688)
(0.00400817 -0.69472 0.674003)
(-0.0397494 -0.400237 1.05333)
(-0.151693 0.94025 -0.542067)
(0.00716766 0.78161 -0.443694)
(0.00310412 1.21472 -0.664778)
(-0.12513 0.927277 -0.526772)
(-0.0533599 0.661827 -0.410167)
(0.0213817 0.947789 -0.543509)
(-0.0084531 0.685845 -0.517391)
(-0.320691 -1.01382 1.35281)
(0.00794064 -1.47188 2.2554)
(0.0531939 -1.21442 2.32324)
(0.0447219 -2.05185 1.37155)
(0.248198 -1.86679 1.98923)
(0.026083 -1.92494 2.34934)
(-0.134221 -2.0507 1.72628)
(0.0701353 -0.552262 1.16525)
(0.139995 -0.246222 1.31644)
(-0.0466918 -1.13734 0.667713)
(0.0232904 -0.367427 1.16942)
(0.0933766 -0.0712748 1.24614)
(-0.0134842 -0.480672 0.589189)
(0.0104678 -0.962131 0.633968)
(-0.146501 -1.43659 0.711734)
(0.0491685 -1.85409 0.481676)
(-0.00143722 -2.05435 1.14002)
(-0.14544 -1.96531 1.12913)
(-0.074374 -2.38253 1.19173)
(-0.0333395 2.7497 -1.87979)
(0.113388 3.0143 -1.89322)
(-0.136236 3.25182 -1.7861)
(-0.0936985 3.55714 -1.6305)
(0.0401076 3.06298 -1.37722)
(0.224446 3.36698 -1.39184)
(-0.270441 3.91934 -1.3182)
(-0.0313393 7.59902 -1.73645)
(-0.0692986 7.94877 -0.954192)
(-0.193929 7.39818 -1.90786)
(-0.0776281 7.79687 -0.516317)
(-0.187202 7.91323 -0.448916)
(-0.210568 7.58686 -1.40088)
(-0.0463564 7.54928 -1.31019)
(-0.0691978 3.8798 0.234657)
(0.28061 3.74418 0.483711)
(0.101279 3.22653 -0.0874213)
(0.267546 4.15114 0.724743)
(0.0232841 4.06675 0.511297)
(-0.184853 3.65005 -0.437123)
(-0.389726 3.22508 -0.810093)
(0.163703 0.191564 0.0781755)
(0.0112465 0.198775 -0.0328483)
(-0.0404063 0.506469 0.159207)
(0.101006 0.251968 -0.172494)
(0.111973 0.33785 -0.0172888)
(-0.0280473 0.0758217 -0.186137)
(-0.117051 0.358351 0.0855955)
(-0.0397994 1.33273 -0.286587)
(0.11716 0.816053 -0.370188)
(0.0600712 0.754182 -0.314914)
(-0.0530397 1.14835 0.000959392)
(-0.0558693 1.04286 0.121661)
(0.121237 0.810932 -0.128809)
(0.149352 0.413277 -0.0798096)
(0.0725294 0.157772 0.0101209)
(0.299175 -0.000940301 -0.0197614)
(-0.0314705 0.363915 0.0860841)
(0.00299375 0.333989 -0.00551537)
(-0.00194703 0.188846 -0.0461295)
(-0.00308983 0.281961 -0.166395)
(-0.0808966 0.28915 -0.171305)
(-0.0485967 0.287745 -0.0933584)
(-0.00240708 0.297166 0.0220574)
(0.00432882 0.383196 0.132207)
(0.0717874 0.493414 -0.0239556)
(0.23016 1.11499 -0.317396)
(0.081916 0.529857 -0.242942)
(-0.00966136 0.262352 0.0121624)
(-0.139691 0.714557 0.129966)
(0.0472298 1.65845 0.490414)
(0.0629581 1.12487 -0.00689151)
(0.221454 0.648111 0.137475)
(-0.0581533 -0.0953756 0.0852506)
(0.283454 0.221101 0.105088)
(0.0062487 0.226347 0.114946)
(0.0905876 0.663373 -0.0952163)
(0.00233424 0.582157 0.0999892)
(0.0628203 0.678207 -0.0440953)
(-0.071566 5.63534 0.975944)
(-0.0325677 5.60596 0.913288)
(-0.148439 5.60153 0.890678)
(0.0552461 5.4973 0.92236)
(0.0439116 5.38637 0.907942)
(-0.0957897 5.53281 0.906951)
(-0.0246586 5.59616 0.98573)
(0.218704 6.00407 -0.689861)
(0.5041 5.56155 -0.696163)
(0.00693669 6.01674 0.148141)
(-0.0976229 5.58717 0.111099)
(0.146671 5.63397 0.350265)
(0.513235 5.38089 -0.564344)
(0.0215677 6.01761 -0.725042)
(-0.0316053 3.95287 -0.0922144)
(-0.101066 4.51292 -0.0878078)
(-0.0398801 4.04662 -0.182251)
(0.0376512 4.33224 -0.212276)
(-0.101927 4.41894 0.197381)
(-0.0812705 4.3967 0.0671703)
(0.0114424 4.02128 -0.15609)
(0.0113667 4.26566 -0.837224)
(0.0013736 4.56464 -0.427127)
(-0.0382175 3.93776 -0.367987)
(-0.00599255 2.70318 -0.518215)
(-0.0427016 1.78636 -0.297915)
(0.00342744 2.40918 -0.571802)
(0.0525201 2.14699 -0.498188)
(0.0205708 2.01427 -0.644055)
(0.0188034 2.51519 -0.668684)
(0.142784 2.87525 -0.601041)
(0.00862607 2.11332 -0.358599)
(0.0360798 2.44041 -0.446443)
(-0.0777523 1.94616 -0.332776)
(0.020595 2.06343 -0.548408)