/*--------------------------------*- C++ -*----------------------------------*\
| =========                 |                                                 |
| \\      /  F ield         | OpenFOAM: The Open Source CFD Toolbox           |
|  \\    /   O peration     | Version:  v2012                                 |
|   \\  /    A nd           | Website:  www.openfoam.com                      |
|    \\/     M anipulation  |                                                 |
\*---------------------------------------------------------------------------*/
FoamFile
{
    version     2.0;
    format      ascii;
    class       volScalarField;
    location    "0.35";
    object      alpha.water;
}
// * * * * * * * * * * * * * * * * * * * * * * * * * * * * * * * * * * * * * //

dimensions      [0 0 0 0 0 0 0];


internalField   nonuniform List<scalar> 
24700
(
1
1
1
1
1
1
1
1
1
1
1
1
1
1
1
1
1
1
1
1
1
1
1
1
1
1
1
1
1
0.000294524
0.000290422
0.000674139
0.000294524
0.000366524
0.0014997
0.00158526
0.000131149
0.000215838
0.000131144
0.000217784
0.000421793
0.00025712
0.000166862
1.64133e-05
4.32965e-05
0.000104839
2.34251e-05
1.62436e-05
3.56166e-05
7.9641e-05
6.56569e-05
4.99584e-05
0.000103801
4.99584e-05
4.99617e-05
0.000101962
0.00011637
0.00207998
0.00143497
0.00126277
0.00538558
0.00502945
0.00147399
0.00277071
1.21088e-05
3.10597e-05
0.000109416
2.52525e-06
2.85629e-06
1.05226e-05
0.000109465
5.5485e-07
9.02506e-07
6.82138e-07
8.30965e-07
7.94135e-07
1.05055e-07
2.20798e-07
0.508431
0.07424
0.965966
0.492328
0.05369
0.747628
0.932498
1.36478e-07
6.87961e-08
1.051e-08
4.61148e-08
8.42303e-08
4.02609e-08
1.14203e-08
1.33588e-10
7.04312e-11
6.12763e-11
1.81273e-10
3.21669e-11
1.3334e-10
2.86043e-11
0.00102509
0.00108359
0.00171468
0.00208626
0.00144505
0.000993364
0.00337564
0.00208644
0.00218432
0.00206111
0.00206111
0.00312965
0.00246994
0.00540314
0.0713939
0.0940977
0.0760889
0.105663
0.106545
0.0846467
0.105331
0.071254
0.0709948
0.071254
0.00117038
0.00110792
0.00105344
0.00112504
0.00186245
0.000499258
0.00272711
0.00283927
0.000348059
0.00111088
0.00254717
0.0050318
3.5567e-05
7.68955e-06
8.48941e-06
7.76202e-06
1.14371e-05
2.46466e-05
5.84736e-06
8.98104e-10
1.58122e-09
3.7895e-09
1.32694e-09
6.80822e-10
1.25359e-09
2.54622e-09
8.36058e-05
3.46016e-05
1.34281e-05
1.33376e-05
2.05945e-05
2.97613e-05
6.7196e-05
1.61563e-05
1.71169e-05
1.61342e-05
1.61409e-05
1.61342e-05
2.75198e-05
1.61352e-05
0.00264417
0.00262488
0.00535382
0.00380582
0.00336737
0.00287548
0.00722185
0.021278
0.083872
0.0592384
0.0218331
0.0188887
0.0799423
0.0126232
0.0837965
0.0475675
0.0336952
0.00789303
0.00771841
0.0120973
0.014797
0.909112
0.945321
0.225085
0.0909716
0.0832448
0.46022
0.282234
0.000306975
0.000417419
0.000306186
0.000442861
0.000305613
0.000534765
0.000306186
2.97302e-05
1.88177e-05
1.88026e-05
4.97936e-05
0.000103384
5.50745e-05
3.38216e-05
0.958195
0.873907
0.979227
0.870264
0.955109
0.974815
0.95687
2.15403e-05
5.15495e-05
7.36292e-05
2.17793e-05
2.09994e-05
5.11489e-05
4.22617e-05
0.000323816
0.000323522
0.000321216
0.000442428
0.000571454
0.00106646
0.000439313
0.00012583
0.000264511
6.82017e-05
1.32287e-05
6.37655e-05
3.60848e-05
5.43981e-05
0.000147221
0.000357941
0.000206362
0.000146511
0.000266905
0.000564829
0.000217205
0.863568
0.442281
0.297922
0.940873
0.828948
0.707743
0.884207
0.138724
0.139967
0.139967
0.157458
0.139967
0.827718
0.81055
0.81055
0.604654
0.81055
0.81055
0.772563
0.144187
0.0491443
0.0115842
0.022392
0.0090083
0.0271611
0.0389468
0.00207619
0.00147322
0.00562463
0.00470016
0.0048813
0.0022861
0.00368337
0.00174058
0.00106566
0.00228644
0.00140074
0.00105013
0.00117613
0.00257938
0.00144581
0.00144275
0.00144778
0.00144823
0.00194361
0.00343184
0.00144789
0.00855578
0.00540057
0.0085541
0.00509444
0.00308201
0.00856148
0.00854403
0.00643913
0.0066683
0.00671634
0.00592087
0.0127376
0.00509607
0.00360131
0.000966051
0.000965493
0.00140967
0.00273233
0.00289825
0.00328774
0.0015561
0.00100965
0.0010038
0.00128031
0.0109432
0.00543272
0.00306127
0.0049473
0.0015359
0.00155782
0.00150596
0.00144493
0.00274956
0.00379792
0.002535
8.56998e-05
6.54652e-05
1.9377e-05
2.17869e-05
1.15037e-05
3.16555e-05
3.36864e-05
2.50159e-05
8.48624e-05
1.45343e-05
4.06598e-05
1.45369e-05
0.00010018
2.81313e-05
0.000274995
0.000273661
0.000305482
0.000279391
0.000492239
0.000285377
0.000646211
0.0020241
0.000596416
0.000891062
0.000578454
0.00105649
0.000678898
0.00294407
0.00504663
0.00503725
0.0050331
0.00503324
0.0050331
0.00503324
0.00503324
0.0146359
0.00997673
0.00524604
0.00524606
0.00524604
0.00883951
0.0145493
0.00314422
0.00314079
0.00314079
0.00427545
0.00547358
0.00469519
0.00314422
0.000716403
0.000629756
0.00102607
0.000649677
0.000639831
0.000376076
0.00107355
4.72705e-05
0.00023354
7.90346e-05
6.97486e-05
4.85143e-05
0.000166238
4.48085e-05
5.16462e-08
1.00465e-07
3.55454e-08
1.52246e-07
4.34833e-07
2.0144e-07
6.58648e-08
7.34853e-11
8.3866e-11
1.3366e-10
4.9846e-11
2.13562e-10
1.62401e-10
3.50836e-11
1.79227e-09
1.24775e-09
1.24338e-09
8.65838e-09
5.14468e-09
2.99256e-09
3.48017e-09
0.984854
0.83599
0.586052
0.979174
0.985088
0.969428
0.917829
0.00119338
0.000849345
0.000741649
0.000745787
0.000934214
0.00172856
0.00178323
0.000171711
3.4544e-05
6.86057e-05
3.46049e-05
3.59158e-05
5.81538e-05
0.000116596
0.949095
0.933117
0.906096
0.905735
0.950226
0.907962
0.962695
0.813749
0.884023
0.884023
0.556537
0.884023
0.202612
0.236331
0.633975
0.179755
0.593424
0.446966
0.237205
0.348531
0.352665
0.352616
0.639309
0.636983
0.260907
0.302803
0.164595
0.164354
0.340733
0.172343
0.164987
0.0037792
0.00272988
0.00389363
0.00235845
0.00331441
0.00232277
0.00284774
0.000320978
0.000320978
0.000477409
0.000604336
0.000400964
0.000545977
0.000929261
1.04695e-06
1.04695e-06
1.04695e-06
1.04695e-06
1.04695e-06
1.87197e-06
1.13242e-06
2.71081e-06
2.71082e-06
3.1644e-06
2.71559e-06
2.71559e-06
4.55333e-06
2.72185e-06
0.000388582
0.000859234
0.000992399
0.00037204
0.000367205
0.00036401
0.000372031
0.00610504
0.00608357
0.00441218
0.00583944
0.00437995
0.00585192
0.00608447
0.000210768
0.000205697
0.000849528
0.00267764
0.000641992
0.00115973
0.00344919
0.00187818
0.00311446
0.00177149
0.00177149
0.00177149
0.00332348
0.00178317
0.0505427
0.0505491
0.0505491
0.0505617
0.0505499
0.0505347
0.0505427
0.0234704
0.0240041
0.0189955
0.00869775
0.0250647
0.0203034
0.0163879
7.08743e-14
1.85558e-13
5.89328e-14
2.05678e-13
9.41798e-14
1.6974e-13
7.52441e-14
4.58284e-12
2.76409e-12
9.86048e-12
2.02927e-11
1.64658e-11
6.01516e-12
9.07073e-12
3.99097e-08
2.5488e-07
3.99089e-08
6.6515e-08
2.77922e-07
9.83477e-07
6.65398e-08
5.07518e-05
4.97369e-05
5.11418e-05
5.12891e-05
4.85108e-05
6.05033e-05
0.000129403
9.7481e-05
0.000207138
9.59284e-05
0.000527773
0.000133602
0.00130504
0.000210149
0.00498323
0.00188392
0.00686568
0.00345022
0.0032467
0.00318626
0.00330177
0.903899
0.966517
0.94505
0.929528
0.966602
0.968826
0.912863
0.969025
0.943823
0.968898
0.940506
0.870742
0.886265
0.954527
0.00451346
0.00666556
0.00330302
0.00194791
0.00170614
0.00234694
0.00192214
0.0430592
0.0336493
0.0192416
0.040387
0.024308
0.0199307
0.0185171
0.000579802
0.000440326
0.000446852
0.000567517
0.000579625
0.000349867
0.000265137
0.00158787
0.0024511
0.00161388
0.0166673
0.00979439
0.00629406
0.0030215
0.937551
0.954031
0.954031
0.940532
0.864197
0.950688
0.950272
6.0542e-05
0.000169127
6.05935e-05
0.000198515
7.08712e-05
0.000456198
0.000181781
0.000996217
0.00108099
0.00119747
0.000988694
0.00130374
0.0015437
0.000844676
0.0026722
0.00235261
0.0028476
0.00237221
0.00241579
0.0031847
0.00246017
0.129568
0.174666
0.130962
0.129568
0.127195
0.206998
0.162661
0.208799
0.208527
0.208527
0.209113
0.208799
0.0544133
0.0635381
0.0321399
0.173735
0.177968
0.177968
0.0666828
0.00645983
0.0570444
0.00581444
0.0197399
0.102375
0.087454
0.0829257
0.0505574
0.129861
0.0791659
2.529e-09
4.973e-09
3.89646e-09
1.41115e-09
7.12156e-10
1.28492e-09
2.22503e-09
2.08839e-06
1.71419e-07
8.03363e-07
1.60289e-06
2.08711e-06
2.80103e-07
8.70493e-07
1.33756e-08
1.33756e-08
1.32848e-08
2.38409e-08
3.68294e-08
1.9461e-08
1.30278e-08
3.95283e-08
5.16822e-08
2.23426e-08
5.16822e-08
4.02502e-08
1.58366e-08
4.76684e-08
0.00146009
0.00136599
0.00164674
0.002192
0.00147045
0.00237799
0.00134127
0.00146165
0.000773335
0.000780224
0.000765823
0.00141921
0.00148764
0.00148944
0.000366963
0.00137045
0.00154982
0.000352934
0.000352934
0.000352934
0.000516998
0.00155171
0.00155171
0.00155171
0.00779143
0.00260465
0.0143743
0.00463544
0.582361
0.864889
0.871724
0.491499
0.674944
0.871635
0.871946
0.481378
0.639002
0.798153
0.481378
0.745846
0.919143
0.966537
0.97474
0.966313
0.974865
0.97474
0.941996
0.951699
0.919622
0.660803
0.0788804
0.500529
0.373626
0.834749
0.0124207
0.0124214
0.0124214
0.0124197
0.0119867
0.00833947
0.0124209
0.0108042
0.009414
0.0147667
0.0641501
0.212802
0.0331653
0.124643
2.12608e-05
3.29757e-05
2.11032e-05
2.11711e-05
4.73183e-05
3.27751e-05
5.19135e-05
0.00213496
0.0020168
0.0020308
0.00407616
0.00867925
0.00242241
0.00482084
0.00582716
0.00829233
0.0122048
0.0085794
0.00569334
0.00384003
0.0053416
0.000123429
0.000214373
0.000172133
0.000993259
0.000467607
0.000630879
0.000231366
0.00122759
0.00165726
0.00307427
0.001228
0.00127035
0.00311833
0.00358845
0.450576
0.453885
0.450576
0.331788
0.120413
0.321159
0.234497
0.453885
0.0667858
0.188998
0.454646
0.0908805
0.0245198
0.00656582
0.0142749
0.0245198
0.0245139
0.0102044
0.0245155
0.000322029
0.000322029
0.000322052
0.000451543
0.00131034
0.000391419
0.000322051
9.55984e-07
2.4967e-06
4.61583e-06
1.57572e-06
7.83785e-07
1.33767e-06
3.91893e-06
6.3689e-10
4.58787e-10
2.60308e-09
5.5634e-10
5.02864e-09
3.11407e-09
1.47725e-08
3.91869e-08
1.19962e-08
2.92754e-08
1.2607e-08
9.23448e-09
1.94463e-08
5.46327e-08
8.27879e-08
4.74311e-08
0.985565
0.992292
0.967446
0.989803
0.966178
0.992274
0.976174
5.45675e-07
2.52724e-07
3.14703e-09
3.12655e-09
4.98454e-09
1.31404e-07
4.02816e-07
2.68336e-09
3.41885e-09
3.13373e-09
2.65991e-09
1.95729e-09
2.0773e-09
2.87404e-09
3.89361e-08
5.85611e-08
3.64263e-08
1.20798e-08
1.28516e-08
8.80738e-09
1.16789e-08
0.000242105
0.000271483
0.000370563
0.000225665
0.000107081
0.000229181
0.000231951
0.000753151
0.00107502
0.000860637
0.00102244
0.00151902
0.00177006
0.00167196
0.00137355
0.0007437
0.000463379
0.000448217
0.000863148
0.000454745
0.000629798
0.00269423
0.0202032
0.0176801
0.0136607
0.0092872
0.0177786
0.00510505
0.252117
0.831371
0.252131
0.50799
0.274971
0.824986
0.228943
0.00701637
0.0491458
0.170723
0.0121879
0.00671822
0.0182053
0.0661056
0.819963
0.819963
0.819963
0.767117
0.650247
0.819267
0.53274
0.827248
0.82712
0.82712
0.827248
0.689554
0.826885
0.826757
0.716196
0.819267
0.174367
7.46168e-05
0.000236143
0.000451466
7.66395e-05
5.17406e-05
4.22947e-05
0.00019652
0.933943
0.933943
0.933943
0.934263
0.921829
0.933838
0.933906
0.170906
0.788796
0.880079
0.129903
0.0300665
0.0458676
0.158514
0.00485432
0.00795963
0.00838726
0.00237177
0.00520825
0.00502723
0.00618576
0.00313736
0.0026642
0.00313296
0.00313736
0.00314023
0.0020048
0.00226527
0.462295
0.272842
0.248286
0.464444
0.235236
0.216147
0.357448
0.330642
0.464444
0.465255
0.00102181
0.00151192
0.000796429
0.00116224
0.000796429
0.00151341
0.0012433
2.02656e-14
1.13599e-12
2.0763e-12
2.61519e-19
3.54119e-16
4.43131e-20
1.94893e-16
9.22704e-13
1.9512e-12
1.44133e-65
1.83583e-20
1.58537e-19
1.86267e-18
1.44496e-18
1.23419e-14
1.61855e-13
3.13679e-16
2.5711e-12
9.12469e-39
4.11939e-19
9.16445e-18
5.91111e-13
1.15727e-08
3.09106e-09
5.24444e-12
7.3486e-14
3.93075e-12
6.38435e-12
4.52205e-11
2.48947e-09
2.35733e-10
2.59789e-10
2.6236e-10
1.77623e-10
1.19641e-10
1.71597e-10
1.38506e-10
3.36279e-06
4.5076e-06
5.5439e-06
3.14931e-06
5.55053e-06
1.8916e-06
3.27295e-06
0.000456852
0.000679347
0.000960434
0.000902451
0.000614218
0.00099383
0.000455329
0.034993
0.263838
0.0688942
0.336697
0.0552554
0.337007
0.0197458
0.0191229
0.044332
0.0159247
0.0191495
0.0260869
0.0244035
0.00888674
0.0127496
0.0127706
0.0127706
0.0411229
0.0188795
0.0239482
0.0126097
0.252347
0.500996
0.114564
0.054004
0.116716
0.109115
0.115407
0.000117416
0.00016364
0.000139769
0.000147629
0.000157783
0.000318368
0.000117001
0.827248
0.614185
0.697525
0.235497
0.469273
0.889506
0.863732
0.105629
0.65841
0.889237
0.879631
0.889506
0.889506
0.719045
0.879993
0.000137739
0.000163433
0.00016343
0.000163428
0.000163428
0.000163433
0.000153755
7.11432e-05
8.28373e-06
3.82578e-05
7.11681e-05
2.26041e-05
7.56604e-06
5.49082e-05
5.55791e-06
9.6188e-06
7.4243e-06
6.3726e-06
4.57577e-06
3.44525e-06
3.4054e-06
0.000879395
0.000624319
0.000897348
0.000773475
0.000224643
0.000631937
0.000215348
0.0012418
0.00116359
0.00138105
0.0014115
0.000894352
0.0008012
0.00067174
0.0034786
0.0034786
0.0034786
0.0034786
0.0034786
0.00183045
0.00328608
0.0863903
0.0914581
0.193896
0.193896
0.193395
0.193551
0.0664561
0.0450143
0.0488985
0.0449897
0.0450097
0.044941
0.0486325
0.0448747
0.0448927
0.122959
0.681399
0.0448927
0.0448792
0.0448926
0.0664479
0.0842495
0.0841894
0.0778359
0.0777653
0.120424
0.0704854
0.0707138
0.00139283
0.00138609
0.00140313
0.00140057
0.00195714
0.00268039
0.00226086
0.00138204
0.00269259
0.00212103
0.0012374
0.00123739
0.00191226
0.0012374
5.53219e-07
1.27213e-06
1.5789e-06
6.2333e-07
2.76511e-07
1.76454e-07
8.22395e-07
0.000344262
0.00104547
0.00145903
0.000271474
0.000146566
0.000307367
0.000596888
1.34334e-30
8.79072e-16
3.13932e-14
4.04534e-16
2.35909e-24
9.3678e-15
1.44825e-17
4.98549e-18
2.93675e-68
2.09517e-18
1.94011e-13
1.14028e-12
9.35585e-14
7.78691e-13
3.86956e-13
1.6882e-13
2.42288e-13
0.00281388
0.00185002
0.00261978
0.00158515
0.00281364
0.00177613
0.00111296
0.75075
0.571665
0.314716
0.334935
0.122522
0.109481
0.649267
0.0708554
0.0351099
0.0350553
0.0350264
0.0372204
0.0350453
0.0699534
0.000236076
0.000402058
0.000269167
0.000243198
0.000642554
0.000838874
0.000275965
0.000158734
0.000114599
6.42676e-05
0.000158734
0.000158705
0.000158731
9.19934e-05
0.000206644
0.000206644
0.000206644
0.00020664
0.00020665
0.000206644
0.000206647
0.000256747
0.000256747
0.000214903
0.000186067
0.0001949
0.00012625
0.000101787
0.110845
0.0950303
0.112598
0.0950616
0.171517
0.106366
0.0902056
0.00105522
0.00192699
0.000566551
0.00132049
0.000531114
0.00114852
0.000877164
0.000383371
0.00136815
3.46016e-05
6.09967e-05
3.42163e-05
0.00119778
0.000224857
1.39416e-08
1.01683e-08
2.0268e-07
2.18674e-07
3.80399e-07
7.13789e-08
2.1545e-07
1.03758e-21
2.38522e-21
9.25854e-24
6.65313e-15
2.2466e-15
5.01234e-16
3.18648e-16
3.4383e-11
2.02326e-11
7.75071e-12
4.81125e-12
1.02439e-11
9.91483e-12
4.167e-12
0.000292292
0.000297329
0.000297329
0.000659727
0.000726499
0.000378266
0.000312391
0.0482425
0.0478199
0.0482607
0.0494534
0.0889829
0.0867547
0.0478199
0.211733
0.185606
0.211717
0.211733
0.211722
0.21173
0.170281
0.000360399
0.000586774
0.00049337
0.000371173
0.000259174
0.000294371
0.000148143
1.68475e-05
2.6209e-05
2.87396e-05
2.70876e-05
2.39132e-05
1.16386e-05
1.17118e-05
0.000145571
0.00013862
9.72069e-05
8.77936e-05
8.81028e-05
0.000150202
5.03254e-05
0.000176077
0.000176077
0.000176085
0.000176085
0.000176082
0.000176082
0.000176082
0.000132983
0.000175316
0.000175755
8.40269e-05
2.08497e-05
4.11558e-05
7.5085e-05
0.000233525
0.000233523
0.000233523
0.000233523
0.000233525
0.000222558
0.000233523
0.000251742
2.93754e-05
8.84208e-05
0.000392301
0.000137282
1.63485e-05
0.00016725
0.863726
0.539077
0.538368
0.865126
0.703421
0.86469
0.86478
0.864239
0.864533
0.865278
0.865162
0.865162
0.819572
0.86509
0.249665
0.864734
0.86509
0.864807
0.00145092
0.00148039
0.00268958
0.00214787
0.00466806
0.00271017
0.00127256
6.83987e-05
3.74936e-05
5.09168e-05
5.36509e-05
3.6903e-05
3.72453e-05
3.73643e-05
0.000158526
9.04913e-05
0.000358696
0.000405764
0.000189148
0.000141377
0.000139563
0.000236792
0.000232605
0.000204138
0.000860969
0.000424945
0.000267439
0.000162117
0.000434897
0.000456516
0.000354937
0.000814841
0.000360469
0.000996657
0.000285914
0.645724
0.685791
0.648257
0.816327
0.646619
0.655208
0.818037
0.641784
0.920546
0.63038
0.00102791
0.00109283
0.00120934
0.000834382
0.000755793
0.000751952
0.00137931
0.984385
0.984801
0.975077
0.57955
0.869264
0.984565
0.974642
0.00148127
0.00360352
0.000610104
0.00115141
0.00060219
0.00489749
0.00241059
6.75357e-06
2.40962e-05
6.93851e-05
1.01107e-05
6.6657e-06
2.41624e-05
6.344e-05
1.89484e-09
1.12132e-09
2.51151e-09
1.14295e-09
1.83448e-09
9.36953e-10
1.62636e-09
2.99457e-10
3.08072e-10
2.54802e-10
1.1202e-10
1.66651e-10
1.6176e-10
1.82116e-10
2.48978e-13
6.522e-14
1.40938e-15
1.76346e-13
2.22617e-16
3.05956e-33
7.24568e-14
3.13213e-16
5.07941e-16
1.07038e-13
1.20835e-18
2.00907e-15
7.0556e-21
3.84108e-13
1.32147e-20
5.2149e-13
3.78463e-45
6.15748e-20
5.31694e-18
1.43715e-11
6.29049e-12
1.7075e-10
6.41185e-10
1.80184e-11
1.54573e-08
2.20813e-12
3.87834e-10
3.35707e-09
5.92171e-09
0.00258726
0.002118
0.00262348
0.00171126
0.0013225
0.00132469
0.00410502
0.000750238
0.00045202
0.000726331
0.000187616
0.000563078
0.000206266
0.000421157
0.0221442
0.0281577
0.0322041
0.0540163
0.113905
0.118638
0.084342
0.118703
0.118664
0.0748881
0.0455773
0.0469936
0.000898097
0.00150116
0.000910773
0.00161318
0.000972094
0.00194753
0.000855492
0.0254484
0.0388326
0.0376315
0.0893698
0.249026
0.249226
0.105394
4.17054e-06
2.66017e-06
1.24204e-06
1.24246e-06
1.24204e-06
1.70462e-06
1.90007e-06
0.00711175
0.00127202
0.00258851
0.00728375
0.00349996
0.00192021
0.00388849
0.858087
0.858204
0.858032
0.858204
0.82234
0.520659
0.00103797
0.00185045
0.000465214
0.000466939
0.00043301
0.00107658
0.000534138
0.0443117
0.0440511
0.0391062
0.0727782
0.0415163
0.0817738
0.0305078
0.76241
0.760421
0.762413
0.951947
0.872064
0.953966
0.953732
0.927084
0.951031
0.760421
9.46613e-05
0.000148368
8.92607e-05
0.000318945
0.000206673
0.000273512
0.000429041
6.67911e-05
7.2712e-05
0.00014901
6.03557e-05
4.09941e-05
4.48156e-05
4.12888e-05
0.000604018
0.00131022
0.000599949
0.000599949
0.000595881
0.000726533
0.000683128
0.965409
0.914335
0.880107
0.965143
0.966383
0.933229
0.958608
1.16116e-07
5.88618e-07
1.63622e-06
1.51121e-07
1.16054e-07
1.41396e-07
1.62723e-06
5.56112e-08
8.36457e-08
5.52206e-08
3.22406e-07
8.59171e-07
6.24114e-07
2.08716e-07
3.89591e-08
5.2111e-08
6.24771e-08
5.16076e-08
5.14821e-08
3.589e-08
3.52671e-08
4.51197e-09
2.58818e-09
4.1124e-09
4.05643e-09
3.29707e-09
2.42405e-09
3.81193e-09
3.14049e-09
2.08771e-09
4.79063e-09
1.78371e-09
2.86026e-09
1.59064e-09
2.02317e-09
2.56405e-12
4.88935e-13
1.74444e-10
8.97435e-12
1.44441e-13
2.33342e-13
5.44917e-11
0.000919671
0.000919671
0.000475984
0.000179906
0.0003278
0.000392337
0.000172782
0.000225225
0.000137841
0.00023212
0.00023212
0.000231384
0.000210147
0.000136148
0.0687581
0.0554324
0.0473772
0.0628334
0.093924
0.0943618
0.0940872
0.034682
0.077407
0.0666372
0.094652
0.0945166
0.0948306
0.0946721
0.118732
0.118733
0.118733
0.118666
0.118733
0.118703
0.118733
0.118379
0.118703
0.0883109
0.00242796
0.00410729
0.00235659
0.00568696
0.00973054
0.00377637
0.00271049
0.000856589
0.000856589
0.000864543
0.000677931
0.000327059
0.000494026
0.000568364
0.000318099
0.000330898
0.000588024
0.000413617
0.000311906
0.000322166
0.000682018
0.000337444
0.000496139
0.000501541
0.000408161
0.000482129
0.000316832
0.000316832
0.000525062
0.000336551
0.000356509
0.000374315
0.000517209
0.000659795
0.000671567
0.000647328
0.000914237
0.000919704
0.00043537
0.000788418
0.000411342
0.00069264
0.00136405
0.00221343
0.00134521
0.00777011
0.0133328
0.006378
0.00253541
0.923445
0.882782
0.92872
0.0363675
0.58718
0.109
0.653359
0.830295
0.84781
0.847664
0.844903
0.844902
0.845213
0.849382
0.852363
0.852347
0.852347
0.852357
0.852507
0.852525
0.852348
0.852588
0.852588
0.848637
0.849736
0.844901
0.850439
0.850424
0.161778
0.745854
0.117221
0.789769
0.612327
0.0373992
0.0205181
0.0205181
0.0205181
0.0209796
0.038871
0.0206668
0.000108009
0.000110163
0.000482869
0.000131206
7.73652e-05
9.01183e-05
0.000419912
0.587722
0.939333
0.971112
0.674744
0.860341
0.976852
0.979524
0.880765
0.895695
0.900862
0.30987
0.725329
0.638065
0.880716
0.000891092
0.00126661
0.00175356
0.00175167
0.00175356
0.00114215
0.000876307
0.0437369
0.0432314
0.0430656
0.0461483
0.0921706
0.0996344
0.0379452
3.39826e-05
3.12524e-05
2.06698e-05
2.05864e-05
3.04958e-05
3.6427e-05
3.63152e-05
0.00414027
0.00532351
0.00395994
0.00533385
0.00400439
0.0053285
0.00533428
0.0022179
0.00499787
0.000771799
0.000827303
0.000457832
0.00269475
0.00144591
0.0310694
0.0134449
0.015307
0.157259
0.411925
0.0187965
0.0244616
1.56247e-07
3.40163e-07
1.59508e-07
1.56094e-07
3.74213e-07
4.0002e-07
9.97656e-08
1.35464e-07
1.97601e-08
7.40535e-09
3.04062e-07
7.52703e-08
5.09816e-08
2.36622e-07
0.00483608
0.0048255
0.00483726
0.00452219
0.0048845
0.00358543
0.00210221
0.0943364
0.0561425
0.094647
0.0943481
0.0942973
0.00202703
0.00202488
0.00202703
0.00146858
0.000377709
0.0020258
0.00156206
0.00163347
0.00171091
0.00204418
0.00201603
0.00172418
0.00203707
0.00204425
3.22584e-05
4.9853e-05
3.22622e-05
3.22586e-05
3.22584e-05
6.52475e-05
3.22586e-05
0.000121274
9.60584e-05
0.000121274
0.000121274
0.00010935
6.26163e-05
6.17587e-05
0.852363
0.852353
0.85237
0.901049
0.907465
0.896951
0.934657
0.892826
0.858652
0.934657
0.949775
0.94879
0.948282
0.973108
0.972456
0.95081
0.972081
0.857998
0.925653
0.801435
0.966828
0.973814
0.950779
0.641422
0.624438
0.738508
0.738508
0.738504
0.702044
0.782127
0.656314
0.738508
0.860769
0.455039
0.437811
0.656565
0.85814
0.688796
0.428004
0.861011
0.721072
0.861011
0.861011
0.860684
0.861
0.741147
0.787471
0.780686
0.611583
0.740479
0.793719
0.780687
0.609642
0.609739
0.609659
0.678965
0.65747
0.65504
0.735849
0.737547
0.635272
0.728238
0.746258
0.753758
0.618649
0.609642
0.619588
0.610174
0.624197
0.761785
0.0076243
0.003271
0.0052761
0.000947458
0.00123903
0.00156732
0.00386644
0.0157988
0.0561337
0.0238651
0.015559
0.0362871
0.0593582
0.0202752
0.00263402
0.00302723
0.0026391
0.00304541
0.00562523
0.00298095
0.00576742
0.000100829
0.000191344
0.00014469
0.000253407
0.000588812
0.000128042
0.000188911
0.000140912
0.000336837
0.000144251
0.000175272
0.000193748
8.57465e-05
8.5591e-05
5.18758e-05
3.84171e-05
5.2018e-05
2.79833e-05
2.59535e-05
3.295e-05
6.05674e-05
0.000373401
0.000144901
0.000122217
0.000213746
0.000616764
0.000295522
0.000887046
3.17782e-08
6.50167e-08
2.98294e-08
2.98294e-08
2.99288e-08
4.28618e-08
2.0805e-08
0.00162088
0.00274938
0.00157356
0.0042241
0.0030486
0.00403685
0.00406919
0.00725745
0.0217226
0.00842906
0.0376049
0.015591
0.0396477
0.0187915
0.0396794
0.0396794
0.0396794
0.0364246
0.0305749
0.012806
0.0130445
0.0275096
0.030459
0.031878
0.0130234
0.0206379
0.0130053
4.38187e-07
4.38187e-07
4.38187e-07
4.38187e-07
4.38187e-07
6.87746e-07
9.14462e-07
8.61896e-06
3.14709e-06
3.61458e-06
3.29266e-06
3.23651e-06
5.28886e-06
2.17633e-06
0.946364
0.95461
0.870719
0.954609
0.944399
0.953136
0.954609
3.48031e-05
3.48031e-05
4.57718e-05
3.48031e-05
3.48031e-05
3.56009e-05
8.34203e-05
4.36924e-05
7.28896e-05
3.62148e-05
4.32663e-05
3.62081e-05
7.67415e-05
3.62148e-05
4.4601e-05
4.42766e-05
3.22778e-05
3.22253e-05
3.22425e-05
3.22275e-05
3.2225e-05
0.790791
0.79037
0.790763
0.790791
0.790734
0.791325
0.790681
0.796568
0.7966
0.796561
0.796636
0.796547
0.778342
0.44696
0.785024
0.790791
0.482922
0.00246784
0.00198275
0.00200697
0.00616607
0.0126494
0.00355665
0.00757059
0.00251143
0.00162751
0.00254071
0.00128343
0.00213204
0.00103426
0.00114855
0.781651
0.802793
0.802771
0.781651
0.795841
0.803745
0.802958
0.803745
0.637812
0.793226
0.691953
0.788768
0.691953
0.738508
0.631952
0.738441
0.765195
0.797623
0.797559
0.797556
0.797517
0.861
0.860931
0.774228
0.0156434
0.015578
0.0156434
0.0897701
0.0265326
0.0156732
0.0291674
0.741438
0.737399
0.737399
0.697201
0.735936
0.695813
0.675457
0.727713
0.792629
0.792629
0.792629
0.785383
0.791473
0.792159
0.751566
0.141363
0.792231
0.788285
0.796568
0.796505
0.796408
0.0057187
0.00326857
0.000834558
0.00237791
0.00579795
0.00251582
0.000881156
0.000451773
0.000116744
0.000236496
0.00046611
0.000109219
0.00010788
0.000429832
0.000386568
0.000176684
0.000264658
0.000176646
0.000181051
0.000325565
0.000339888
5.0729e-05
5.0729e-05
5.0729e-05
5.0729e-05
5.0729e-05
5.0729e-05
5.0729e-05
1.76069e-05
2.42504e-05
1.76069e-05
2.08471e-05
3.14881e-05
1.76705e-05
1.7621e-05
0.000102676
4.24672e-05
5.88521e-05
7.25249e-05
4.24323e-05
8.19875e-05
4.4002e-05
2.92385e-05
2.87909e-05
7.67321e-05
4.8467e-05
4.95678e-05
4.56286e-05
8.96027e-05
0.000882212
0.00074034
0.000735073
0.00264815
0.00145427
0.00154705
0.00203176
0.00209943
0.00165653
0.00207751
0.00084182
0.00100543
0.000840911
0.000850606
0.000145424
0.000215178
0.000150245
0.000211607
0.000145609
0.000144111
0.000145314
0.000134282
0.000138548
0.000134091
0.000202006
0.000265479
0.000264095
0.00012904
0.00212086
0.000403999
0.00144639
0.00216419
0.00114838
0.00045939
0.00127277
0.000290422
0.000290422
0.000280868
0.0340009
0.0362477
0.0361694
0.0362902
0.0361705
0.0319058
0.0362998
0.0362833
0.0362834
0.0362886
0.0362886
0.0362902
0.0361248
0.0158318
0.0293965
0.00994773
0.00898234
0.00703834
0.0118683
0.0324468
0.0070654
0.0179084
1
1
1
1
1
1
1
1
1
0.000428922
0.000427935
0.00108965
0.0306376
0.0105655
8.51701e-05
0.000191323
0.00167327
3.60885e-05
8.48935e-222
2.01436e-05
0.000221161
1
1
1
1
1
1
1
1
1
1
1
1
1
1
1
1
1
1
1
1
1
1
1
1
1
1
1
1
1
1
1
1
1
1
1
1
1
1
1
1
1
0.549553
0.253233
0.974567
0.994042
0.994184
0.929485
0.949236
0.0916408
0.0918191
0.0916749
0.0917888
0.0917832
0.0918196
0.0918221
0.0918224
0.0917897
0.864915
0.864915
0.865413
0.865797
0.820325
0.663457
0.68713
0.865524
0.83604
0.662083
0.661641
0.865039
0.662831
0.863534
0.787655
0.0918184
0.0774975
0.091769
0.0633417
0.0276413
0.091783
1.5367e-05
1.53336e-05
1.42806e-05
0.00049416
0.000492921
0.000148878
0.000124256
0.000139989
0.000127321
0.000124256
0.000216066
7.49839e-05
0.000216673
2.72723e-06
1.30563e-07
3.0902e-08
0.00113418
0.000997862
0.000490646
0.00120218
0.00224674
0.00125135
0.000129753
0.000143954
3.50642e-05
0.000115126
0.00195383
0.00195383
0.00195383
2.73786e-08
7.17898e-07
8.57402e-08
1.77009e-06
0.000891217
0.000198741
0.000237369
0.000837095
0.000452638
0.000725264
0.000461598
0.000718343
5.22373e-05
0.000137726
0.000206646
0.000206648
0.000206635
0.000117033
0.000120621
5.12424e-05
0.000111419
8.9249e-05
0.000397345
0.000431901
0.000362705
0.000350897
0.000736587
0.000521268
0.00366746
0.00365167
0.00246593
0.00161896
0.00179064
0.00203442
0.00307489
0.00174786
0.000206651
0.000206651
0.000206639
0.000206637
0.000206644
0.000123321
0.000809931
0.000320288
0.000124256
0.000224568
0.000141623
0.000887292
0.00108826
0.000296201
1.30278e-08
1.5847e-08
1.32293e-08
1.66263e-08
0.0720699
0.0385371
0.12127
0.0379407
2.4336e-12
3.86374e-12
6.68546e-12
0.0053659
0.00215632
0.013319
0.00423608
0.00889839
0.0167146
0.0159129
0.0418609
0.000810773
0.0014759
0.00201689
0.00354858
0.0205093
0.0399932
0.00548085
0.000818464
0.00102317
0.00550283
0.0049725
0.00846904
0.00470019
0.781388
0.318012
0.385006
0.784149
0.000217042
0.000124902
3.45715e-05
3.61938e-05
0.000201061
9.14153e-05
0.939478
0.939476
0.85437
0.699158
0.0396477
0.0385697
0.0256428
0.0153209
0.0101364
0.00849867
0.00323573
0.00236673
0.0472227
0.0470151
0.04678
0.0812309
4.2985e-08
2.92357e-07
4.25595e-08
1.77108e-07
6.93428e-06
4.56815e-06
8.95143e-05
8.95738e-05
8.9601e-05
0.000193107
0.0111543
0.00730253
0.00468224
0.00280329
0.00280872
0.00121056
0.00157111
0.000728993
0.00530836
0.0260934
0.999982
0.999999
8.06021e-14
3.28114e-13
8.00505e-14
7.17757e-12
0.00984635
0.00568008
0.0244518
0.0131486
0.00150716
0.00376582
0.00203755
0.00717821
6.60471e-08
3.99172e-08
4.62503e-11
1.04597e-10
2.48535e-11
1.01685e-11
0.0183258
0.00800468
0.0141014
0.00877477
4.55031e-10
1.78474e-12
0.000824491
0.00082584
3.22622e-05
3.22655e-05
0.465255
0.420098
0.465255
0.465255
0.78281
0.807475
0.662211
0.0937444
0.169044
0.616842
0.15869
0.12827
0.142015
0.624531
0.735184
0.446941
0.309565
0.586112
0.495725
0.851305
0.251128
0.0494938
0.722386
0.793349
1.5951e-06
1.79985e-06
0.112873
0.0583946
0.0453715
0.0799636
0.0362882
0.0481309
0.000201105
0.000271876
0.000485798
1.44241e-15
1.24894e-16
1.57497e-13
0.0109593
0.00893112
0.00033135
0.000195957
6.86836e-05
0.000100016
6.75587e-05
7.05787e-05
4.35378e-05
4.542e-05
0.00286748
0.00634269
0.00192703
0.00911537
6.07421e-05
6.92414e-05
3.81243e-05
3.80869e-05
0.000384261
0.000106834
0.0163242
0.0182509
0.000130974
7.37425e-05
0.958605
0.94091
5.74034e-08
4.5436e-08
0.954609
0.889593
0.000168956
8.09372e-05
0.000200387
0.000196052
0.869771
0.954026
0.00219942
0.00311386
0.778498
0.961279
9.76393e-05
0.00019415
0.000184028
0.000194158
0.00446965
0.00648118
0.0187757
0.00648663
9.32493e-05
3.60909e-05
8.71571e-08
2.11898e-07
2.34867e-08
1.20415e-08
3.6464e-08
5.18823e-08
1
1
1
1
8.76359e-05
0.000115236
4.93346e-05
6.72453e-05
0.675134
0.106196
0.307077
0.226107
9.3995e-12
3.15164e-11
5.67913e-11
5.81657e-11
0.883072
0.42615
9.58843e-05
0.000200387
0.000811735
0.000585239
0.000946248
0.000424781
0.0200583
0.0294501
0.0024169
0.00280994
4.05031e-07
5.74215e-07
2.12785e-07
3.64591e-07
0.00462756
0.00863966
0.0200538
0.00452722
0.00107265
0.0010738
0.00166212
0.00182158
1
0.745807
0.316785
0.939974
0.586949
0.0464962
0.0258178
0.0227433
0.0517104
0.000201822
0.000131511
0.00108875
0.000819644
2.26426e-08
2.24654e-08
3.25559e-06
9.31179e-07
1.02956e-05
9.30725e-07
0.00374115
0.00521484
0.00651227
0.00633289
0.00300054
0.00227162
0.939447
0.939377
0.939479
0.000798791
0.000246017
1.30062e-05
4.71703e-06
0.00371437
0.0113491
0.00128759
0.00329265
1.38456e-07
7.50805e-08
6.06934e-09
7.44591e-09
0.000432691
0.000590036
0.000405199
0.000279721
0.000959357
0.00113893
1.53027e-05
1.35864e-05
5.90248e-06
7.09208e-06
0.000718589
0.000818742
0.00151945
0.00139199
0.000136285
0.000117633
0.000188366
0.000488191
0.000371853
0.000328154
3.34198e-08
1.63591e-08
0.00139429
0.000690132
0.000426082