/*--------------------------------*- C++ -*----------------------------------*\
| =========                 |                                                 |
| \\      /  F ield         | OpenFOAM: The Open Source CFD Toolbox           |
|  \\    /   O peration     | Version:  v2012                                 |
|   \\  /    A nd           | Website:  www.openfoam.com                      |
|    \\/     M anipulation  |                                                 |
\*---------------------------------------------------------------------------*/
FoamFile
{
    version     2.0;
    format      ascii;
    class       surfaceScalarField;
    location    "0.35";
    object      alphaPhi0.water;
}
// * * * * * * * * * * * * * * * * * * * * * * * * * * * * * * * * * * * * * //

dimensions      [0 3 -1 0 0 0 0];
oriented        oriented;


internalField   nonuniform List<scalar> 
49400
(
-5.66156e-06
7.03596e-09
5.61654e-06
3.79839e-08
1.30571e-05
3.598e-06
-2.23166e-05
1.28618e-05
2.02308e-07
-3.42128e-06
1.73141e-05
-8.27631e-06
2.02245e-05
-2.00477e-05
-2.0768e-05
5.09439e-05
-3.41207e-07
8.08148e-06
1.95874e-05
-4.99855e-05
-1.56854e-07
-6.17212e-07
-1.22896e-05
2.3706e-07
1.21438e-05
-9.12953e-08
2.62939e-05
1.15555e-05
-5.01389e-05
2.59137e-05
-1.31244e-05
1.50758e-06
2.37606e-05
-1.32629e-05
4.72162e-08
2.94646e-05
-3.11721e-05
5.68859e-05
-2.68271e-05
4.41569e-07
2.64017e-05
-1.62339e-08
9.19309e-06
1.56145e-05
-5.16347e-05
4.9359e-07
9.14107e-06
4.11642e-05
2.27297e-05
-4.82794e-05
1.7323e-05
5.02429e-05
7.67464e-06
-7.39583e-06
2.14776e-07
-3.70654e-06
2.05223e-05
6.23394e-06
9.09995e-06
1.98504e-05
8.84623e-06
4.68501e-07
-2.00283e-05
4.93968e-05
2.90628e-07
-2.72664e-09
1.61025e-08
-4.25953e-09
-8.82973e-09
2.92648e-08
-9.29061e-09
-2.23005e-08
-5.37488e-08
-9.00759e-08
-7.63984e-09
6.47626e-09
-2.71383e-09
1.81744e-08
-3.45794e-08
-1.56897e-07
1.26371e-07
-2.18657e-07
2.18922e-09
1.27906e-09
8.79986e-10
-4.35037e-09
-6.18297e-11
2.14116e-09
2.95529e-09
1.14837e-09
7.22845e-11
-6.25419e-09
-1.02216e-09
1.07612e-08
-1.64635e-09
1.92747e-11
-3.00374e-09
6.56633e-09
-2.17971e-09
5.93132e-11
-2.73271e-11
-2.4059e-11
4.78993e-12
-2.81821e-10
-1.26354e-10
4.94518e-10
-3.9341e-10
1.91544e-10
3.67156e-11
1.17736e-10
-1.64801e-10
4.8647e-11
-4.34233e-13
-1.07408e-10
4.57741e-11
-3.41583e-10
-1.0875e-10
-1.81449e-10
-1.28862e-10
5.88884e-10
2.58943e-11
-1.84799e-11
-9.51688e-11
-7.11011e-11
-1.53953e-11
-1.27878e-10
1.17898e-10
4.12114e-12
4.18313e-11
-2.51635e-10
-1.21082e-10
2.53332e-10
-1.08387e-10
-3.29235e-08
-2.65224e-08
-7.01586e-09
6.70542e-08
-3.67219e-09
-5.95791e-08
2.98861e-08
-3.48079e-08
4.66975e-09
8.20335e-08
4.17508e-08
-1.80222e-07
8.93914e-08
1.47292e-08
1.13625e-08
-3.52064e-09
8.86727e-08
3.6076e-11
-1.10615e-10
2.50074e-12
1.60328e-11
-1.327e-10
1.21067e-11
1.35982e-10
-2.64802e-10
1.02471e-10
4.31073e-12
1.92588e-12
-7.45519e-13
1.97177e-12
7.01468e-12
-1.23203e-11
1.88351e-11
-7.7015e-10
-3.91648e-13
2.64121e-13
8.23199e-14
-4.76371e-14
6.31815e-13
-7.14707e-13
-2.15718e-13
-2.16697e-13
1.28416e-12
2.06669e-13
-5.2595e-13
7.34947e-15
-6.97477e-14
2.86732e-13
1.05025e-13
-1.79478e-13
-1.17856e-13
-1.96348e-06
-1.03542e-05
-5.30255e-06
1.79411e-05
1.09799e-07
-1.99349e-06
-3.47811e-08
-1.28552e-05
2.59246e-06
2.55666e-06
2.65165e-06
-7.00949e-06
2.53848e-06
-4.51089e-16
-1.00836e-05
7.34649e-06
-2.02871e-05
1.33422e-13
-3.27546e-15
-5.76138e-14
8.1159e-14
-5.9022e-14
-6.63838e-14
6.29435e-13
-5.87184e-14
9.35038e-15
1.81186e-13
9.6567e-14
-2.63431e-13
1.93245e-13
1.31387e-13
-6.15568e-14
2.32317e-13
-1.3586e-14
6.77003e-17
9.86029e-17
1.34131e-16
-9.89267e-16
3.53997e-17
3.927e-17
-6.03927e-17
3.69389e-17
4.05594e-17
7.02413e-17
-7.85172e-17
1.49404e-16
-2.5591e-17
6.25177e-17
6.6462e-18
-2.34562e-17
4.67575e-18
2.87099e-09
-1.76744e-10
-4.9389e-09
-5.72962e-10
-9.26501e-10
-2.79546e-09
4.54106e-09
-9.38174e-09
5.95741e-09
-4.50295e-09
6.25023e-09
-6.51728e-09
2.72434e-09
-8.09134e-09
1.694e-10
7.28388e-12
-4.39707e-09
3.88501e-08
2.211e-08
1.51475e-08
-7.85201e-08
-1.31857e-09
2.22287e-08
1.63157e-08
2.01266e-08
-3.75437e-09
-4.44676e-08
-1.47256e-08
7.6216e-08
-4.13703e-08
-1.80892e-08
-3.2587e-08
3.6653e-08
-7.10771e-08
9.01208e-07
-6.677e-09
-6.79925e-07
-5.6713e-08
-2.83138e-06
-6.01932e-07
3.61443e-06
-1.31894e-07
-1.87335e-06
-3.58604e-06
3.53329e-06
-3.28081e-07
2.59313e-06
-8.17329e-06
6.21402e-07
1.5632e-06
3.39557e-06
-6.36044e-08
1.28035e-06
2.99778e-06
-4.59967e-07
7.60282e-06
1.14143e-09
-9.49392e-09
-2.85128e-08
3.53937e-08
-1.57896e-08
-1.27433e-08
2.58293e-08
-1.00611e-08
-2.11495e-08
-8.09015e-09
1.26679e-08
-1.44692e-08
5.283e-08
-8.44222e-08
7.33835e-10
-9.1029e-10
2.27431e-08
-5.89004e-09
6.97578e-08
7.61714e-09
-7.90809e-08
1.8246e-08
-2.69649e-08
-2.57713e-08
-2.21537e-07
2.24672e-07
-2.08113e-07
5.30372e-11
-2.9087e-11
1.41398e-10
-2.83906e-10
-1.33294e-11
1.68964e-11
3.49971e-11
2.4437e-11
-8.81394e-11
1.5173e-11
-2.04646e-11
1.44385e-11
-6.58427e-11
8.61886e-11
-4.80459e-12
3.1026e-11
-8.28477e-12
6.33469e-16
2.2037e-16
-5.8685e-16
-2.07109e-16
-2.55677e-15
-3.50217e-16
2.53554e-15
-3.39016e-16
-3.00392e-15
4.00304e-16
3.03948e-16
-1.17428e-15
3.59235e-16
-1.95337e-16
-1.01458e-15
8.11635e-16
-1.06782e-15
2.19251e-10
1.70492e-11
-2.96169e-10
1.11435e-10
-4.27541e-11
-9.4546e-11
3.65769e-10
1.62973e-12
-1.90401e-11
-2.66957e-11
3.5194e-11
-1.98527e-12
9.66144e-11
-1.31613e-10
-8.8796e-11
3.72502e-11
-2.67339e-10
4.23509e-11
8.87827e-11
1.29673e-10
-2.62849e-10
7.93157e-11
2.33433e-10
-2.82519e-10
6.10853e-11
1.03861e-10
4.34864e-11
-1.39053e-10
1.54735e-10
-2.30807e-10
3.76152e-10
-1.24487e-11
2.68398e-11
-2.3296e-11
-2.28069e-09
-1.85449e-08
5.55942e-09
1.01211e-08
-1.84281e-08
9.57066e-09
3.27927e-09
1.5801e-08
-5.70548e-08
1.49619e-09
-7.04063e-09
1.12944e-08
-7.37737e-09
1.36458e-08
-1.1679e-08
1.12976e-08
-7.73114e-09
1.21474e-07
7.9037e-08
-4.47232e-08
-1.63285e-08
-1.39567e-07
-3.51557e-07
6.73358e-07
-1.72627e-07
3.54277e-07
-8.35635e-09
1.39122e-07
-9.92371e-08
1.9662e-07
-1.30136e-07
-1.27661e-08
3.48298e-08
-1.58951e-08
7.21849e-07
9.61409e-08
-3.77139e-07
-2.92843e-07
-3.43045e-07
-1.73448e-07
1.29351e-06
4.11938e-08
-1.7355e-07
-8.79994e-08
1.23772e-07
1.61439e-08
7.72919e-08
-3.1789e-07
-1.33973e-07
1.06794e-07
-3.78679e-07
5.65516e-06
4.12124e-06
2.53081e-06
-1.37956e-05
9.12696e-07
6.8428e-06
-2.27384e-06
2.158e-06
1.22123e-07
-1.51228e-06
-1.75305e-06
4.84645e-06
-1.98054e-06
-1.97877e-08
-3.10448e-06
4.90061e-06
-4.11207e-06
-6.77333e-10
-4.99067e-10
2.65173e-10
8.48014e-10
3.59918e-10
-1.3223e-10
-8.32257e-10
-6.1832e-10
3.84595e-10
2.82033e-10
-4.77722e-10
-4.61357e-10
-2.35068e-11
6.35171e-10
5.54041e-10
-1.30174e-09
7.47641e-10
2.99991e-11
4.02931e-11
5.73127e-11
-1.30467e-10
5.77424e-12
1.31694e-11
3.80505e-12
2.45013e-11
1.69522e-11
-9.77135e-11
-3.38719e-11
1.56219e-10
-1.22118e-10
1.07022e-10
4.21401e-11
-9.99457e-11
3.06707e-11
-1.12237e-05
-1.49084e-05
-9.09323e-06
3.55235e-05
-3.67651e-08
-1.6298e-07
-1.1051e-05
-1.44456e-05
-4.93988e-07
-1.33197e-05
1.36103e-05
-4.34294e-07
8.81392e-06
-3.29816e-05
1.08959e-05
-1.6409e-05
1.55323e-05
-1.44309e-10
2.2235e-11
1.15891e-10
-5.16308e-12
4.38695e-10
1.28356e-10
-7.31875e-10
3.72644e-10
5.09082e-11
-1.42308e-10
-5.77416e-11
3.10373e-10
-1.60798e-10
6.2099e-12
2.6815e-10
-3.23954e-10
5.76503e-10
-1.94715e-09
-3.32668e-09
-3.25467e-10
5.84745e-09
-8.59011e-10
-1.8299e-09
1.17064e-09
-3.22629e-09
-7.17446e-10
5.03712e-09
2.55696e-10
-5.04027e-09
1.19402e-09
7.81407e-09
4.46322e-09
-7.80052e-09
5.87415e-09
-2.26168e-09
-4.77732e-10
3.71705e-10
2.26603e-09
1.12428e-09
1.23969e-10
-3.81845e-09
-2.06868e-11
5.42631e-10
2.68939e-10
-1.33484e-10
-1.74954e-10
5.10908e-11
6.78423e-10
4.42372e-10
-5.05011e-10
8.37886e-10
2.11748e-10
8.10223e-10
2.65516e-11
-1.54888e-09
9.79667e-10
-2.76154e-09
1.58898e-09
-1.3164e-09
2.7045e-09
-1.57546e-09
1.13537e-09
1.97932e-10
2.55e-09
-6.32424e-09
1.55818e-09
-2.40952e-09
1.13377e-09
2.4929e-06
-2.09836e-06
-3.55539e-06
3.52448e-06
-4.28216e-06
3.08348e-06
3.93557e-06
1.72729e-07
-7.51441e-06
9.8423e-06
-4.22798e-06
-9.39725e-06
3.72554e-07
1.37123e-05
-6.74059e-06
1.09761e-05
-1.12213e-05
3.82531e-06
5.37e-06
1.7299e-06
-1.26254e-05
5.16712e-07
-2.38897e-07
3.29183e-06
7.42116e-06
1.59751e-06
6.39205e-06
-9.74666e-09
-1.1014e-05
2.05062e-05
1.8296e-06
2.43099e-05
2.93041e-07
-5.71818e-07
-2.39268e-05
-2.56599e-05
-2.96794e-05
7.97275e-05
-2.51135e-05
-1.2823e-06
-2.94751e-05
-6.71801e-07
2.33486e-05
-7.66721e-05
-1.42338e-06
3.31144e-06
2.31116e-07
-8.66712e-07
5.16834e-09
-4.33803e-07
-6.26658e-07
5.44096e-06
-1.96958e-07
3.97643e-08
2.84529e-07
3.67796e-07
-8.94483e-07
3.30451e-07
4.71033e-09
-6.9823e-07
5.59518e-07
-1.08143e-06
-4.67687e-08
-8.7709e-08
-3.88419e-08
1.74828e-07
9.37862e-10
-5.31242e-08
7.07151e-11
-1.098e-07
1.2548e-09
1.14089e-07
2.96298e-08
-2.67143e-07
1.06451e-07
6.66311e-08
-9.41264e-08
1.32553e-07
1.36865e-08
1.87215e-08
2.30543e-08
-5.31459e-08
3.87111e-10
-3.33487e-10
1.17362e-08
1.34287e-08
-1.64462e-09
2.05934e-08
-2.72196e-08
1.15006e-09
-1.09965e-08
4.19771e-08
-1.43184e-08
1.41231e-08
-2.22707e-08
-2.35876e-09
1.43255e-08
4.52643e-10
-1.67905e-08
2.72782e-08
-2.82165e-08
-4.18214e-09
-1.03026e-08
4.92863e-08
-1.5627e-08
1.49687e-08
-1.66455e-09
1.47876e-08
-5.02231e-08
2.78027e-08
-4.38395e-08
3.04755e-08
-2.96042e-08
-1.71208e-08
6.82493e-09
4.901e-08
4.58213e-09
2.89301e-09
-1.66303e-08
8.31198e-09
-7.9467e-09
-3.21902e-08
2.61684e-09
3.35274e-08
-2.55497e-08
-9.85858e-09
3.61733e-08
-5.37355e-08
5.07688e-08
2.74142e-08
-3.51459e-08
-4.32748e-09
4.206e-08
-1.04193e-07
4.99152e-08
9.26048e-08
2.44887e-08
-1.52529e-07
1.10456e-07
-4.06626e-08
-3.34077e-08
-8.42055e-09
2.84487e-07
-4.99559e-08
1.08468e-07
-5.24274e-08
-3.04961e-09
1.23858e-09
-4.87895e-09
3.82914e-09
4.91658e-09
-5.65387e-09
-7.41881e-09
-9.66307e-09
1.146e-08
-5.92197e-09
6.56643e-09
-1.22866e-08
1.18122e-08
-3.23629e-08
2.59751e-09
-8.47481e-09
1.48454e-09
-1.15193e-09
-1.02057e-08
1.32137e-10
1.20664e-08
-1.51391e-08
1.58466e-08
-1.14312e-09
2.12838e-08
-4.60997e-08
9.72952e-08
-9.58435e-08
-1.04405e-08
-2.1804e-08
1.27145e-07
-6.8058e-08
6.04538e-08
-1.37992e-07
1.295e-08
-1.71436e-09
-1.06929e-08
2.06542e-09
-1.958e-08
-1.70462e-08
4.82856e-08
-2.03481e-09
-1.49255e-08
-1.33535e-08
2.35153e-08
-4.92994e-09
1.60924e-08
-4.28054e-08
-1.47697e-08
2.24817e-08
-1.43836e-08
5.01607e-10
3.71971e-10
2.64317e-10
-1.5834e-09
-4.13803e-12
3.24827e-10
-1.55906e-10
1.63445e-10
-4.96551e-13
-9.02968e-11
-9.91937e-11
1.98163e-10
-1.85977e-10
6.51165e-12
-1.18862e-10
2.20824e-10
-1.86595e-10
-1.38305e-10
-1.99204e-11
1.41576e-11
5.63823e-11
6.40647e-11
-3.12351e-11
-4.33977e-10
-3.68318e-11
7.07851e-12
6.96964e-11
-6.86349e-11
-1.03489e-10
7.04376e-13
3.03576e-11
9.08976e-11
-3.77705e-10
4.27304e-11
2.7951e-09
8.57509e-10
-2.74578e-10
-3.46906e-09
-1.43432e-09
-1.87059e-09
6.0749e-09
-4.9944e-09
2.92102e-09
-2.71389e-09
3.21889e-09
-9.15238e-10
4.70793e-09
-1.2371e-08
-2.49614e-09
3.33013e-09
-5.12372e-09
-1.49763e-09
6.5777e-09
-1.76703e-08
1.48009e-08
6.93691e-09
-5.55193e-10
-4.43286e-09
-7.44993e-09
2.28698e-08
-3.89799e-09
7.03991e-09
-2.15659e-09
1.6436e-08
-2.27352e-08
-2.2698e-09
2.78531e-09
1.205e-10
1.18914e-07
6.72543e-08
4.96465e-08
-2.36391e-07
-5.74682e-09
1.0105e-07
2.3102e-08
6.61736e-08
-5.40051e-09
-7.11665e-08
-3.43641e-08
1.71286e-07
-5.48881e-08
-2.20865e-08
-6.54888e-08
1.31838e-07
-7.10664e-08
5.80418e-08
5.3673e-09
-9.08263e-08
3.32786e-08
-5.84789e-08
-4.79801e-08
1.65182e-07
1.38674e-09
-5.7903e-08
-8.07293e-08
8.40102e-08
-4.36533e-09
8.01222e-08
-2.21432e-07
-6.52048e-08
1.09089e-07
-5.61925e-08
2.5011e-09
4.28726e-08
-4.30747e-08
-8.00808e-09
4.14809e-08
-5.07669e-08
3.03561e-09
-3.83313e-08
1.15958e-07
8.61018e-08
2.94768e-08
7.65072e-08
1.18718e-08
-3.27052e-08
6.88088e-08
-5.07091e-08
1.40366e-09
-5.25015e-10
3.03419e-09
-4.45178e-09
-3.72526e-09
1.64324e-09
2.04823e-09
6.27667e-09
-1.15326e-08
1.76797e-11
-3.87429e-09
5.05593e-09
-2.50155e-09
3.75737e-09
5.54647e-10
-6.17356e-13
2.50187e-09
-6.59486e-10
-1.33177e-10
1.94145e-10
1.99233e-10
1.65974e-10
1.07576e-09
-2.81394e-09
2.93218e-10
-6.60353e-10
3.18931e-11
-6.24638e-10
4.2232e-10
-2.38564e-10
2.31798e-10
1.37317e-10
-2.21891e-10
3.84212e-11
-6.76409e-14
7.20932e-14
9.108e-14
-4.18976e-13
1.92067e-13
-6.03191e-14
-5.57659e-13
2.31381e-14
8.47251e-14
-8.78118e-13
4.68462e-14
4.17543e-13
-7.03796e-14
-2.7344e-12
2.61319e-13
-7.99542e-13
1.92825e-13
-4.32516e-17
-9.31122e-17
5.11078e-17
3.98215e-17
-5.84749e-17
4.28154e-17
-7.24996e-17
1.33294e-16
-9.40155e-16
-9.9643e-17
-3.05584e-17
1.00848e-16
-9.04191e-17
1.38991e-16
1.74918e-17
-4.51021e-17
8.41511e-18
3.78335e-15
6.44723e-16
-1.53031e-14
-5.66898e-16
-2.10257e-15
-5.18782e-15
6.32543e-15
-9.03218e-15
2.41688e-15
1.61098e-14
1.47582e-14
-7.30189e-14
9.27009e-15
-2.58578e-15
-3.41868e-15
3.35474e-15
-4.90327e-15
1.14795e-05
-6.54595e-08
-1.1298e-05
-1.11474e-07
-1.04512e-05
-9.05238e-06
3.05697e-05
-1.13047e-05
-1.71696e-07
1.29884e-05
9.04746e-06
-3.33125e-05
1.33757e-05
-4.96667e-07
-7.56649e-06
1.17537e-05
-1.04866e-05
9.66941e-09
2.66989e-09
-5.21112e-09
-6.63947e-09
-2.4228e-09
-6.55407e-10
1.26969e-08
-2.42284e-09
1.86787e-09
5.93652e-09
5.4996e-10
-9.39706e-09
3.53262e-09
4.61374e-09
-8.05922e-09
1.39676e-08
-1.19481e-08
4.04558e-10
1.05604e-09
-4.32656e-10
-1.0092e-09
3.65824e-10
1.46794e-10
-1.35945e-10
-1.07199e-10
1.55184e-09
-4.73917e-10
2.11122e-10
3.93436e-10
9.63101e-11
-7.30139e-10
-4.1902e-10
5.65169e-10
-7.01927e-10
-9.16735e-06
-1.81766e-06
6.32462e-06
4.65389e-06
4.72112e-06
2.20257e-06
-1.58584e-05
-1.07295e-06
4.28532e-06
7.18994e-06
-7.41253e-06
-6.42351e-07
-2.55411e-06
1.41418e-05
8.10355e-06
-1.31792e-05
1.19384e-05
5.76421e-06
2.19688e-05
5.66124e-06
-3.32592e-05
1.06575e-06
-2.31957e-07
5.834e-06
1.69686e-05
7.44006e-06
3.61594e-06
-2.76704e-06
-3.56456e-07
-1.12758e-06
1.09916e-05
5.38154e-07
-5.16321e-06
1.17817e-06
-3.55327e-06
3.52656e-06
-1.18362e-05
2.2623e-05
-1.00405e-05
3.45305e-06
-1.19324e-07
-4.79951e-06
2.04185e-05
1.04201e-07
3.56514e-06
-1.86219e-07
-6.04545e-06
8.25434e-07
-2.31801e-06
-1.54023e-06
6.51378e-06
-3.2043e-06
-1.44767e-07
9.73138e-06
4.58189e-06
-2.1023e-05
6.6423e-06
3.00328e-06
-2.47599e-06
3.39141e-06
-2.24648e-06
-2.03898e-06
-1.09901e-07
2.07262e-06
3.67055e-07
1.66031e-06
-6.74784e-06
1.24864e-06
-7.62683e-07
5.40023e-06
-7.79755e-08
5.67532e-09
4.68882e-08
3.74002e-08
4.30638e-08
9.73367e-09
-1.34313e-07
1.35435e-08
4.56101e-08
2.86625e-08
-1.49449e-08
8.97446e-11
-6.33039e-09
8.85401e-08
1.8697e-08
-3.0236e-08
6.43346e-08
-1.06238e-10
-2.1665e-09
-1.44723e-10
1.57798e-09
-1.42664e-09
1.82964e-09
-1.05599e-09
1.48521e-09
-6.16726e-09
1.57831e-09
-3.27151e-09
-2.38472e-10
-1.3369e-09
3.31018e-09
-1.84028e-09
2.068e-09
-5.53616e-09
-1.48872e-12
-1.23084e-12
1.48461e-12
1.23262e-12
3.72568e-13
1.8761e-12
-3.73882e-12
2.22181e-12
-3.08157e-12
-2.37278e-13
-2.17644e-12
3.8969e-12
-2.90395e-12
3.89781e-12
3.1227e-13
-1.17268e-12
8.08125e-13
-3.61081e-12
-3.02386e-12
5.25423e-12
3.75228e-12
4.44008e-13
7.63044e-12
-1.03608e-11
4.00516e-12
-9.46371e-12
-3.27804e-13
-8.26116e-12
1.54573e-11
-9.44775e-12
1.4324e-11
-9.3655e-13
-1.10951e-12
-4.33224e-12
2.63955e-09
-5.8637e-09
-1.48041e-10
4.13618e-09
-1.00415e-08
2.57179e-09
7.79605e-09
3.11364e-09
-1.85581e-08
6.47244e-09
-2.59482e-09
-3.09786e-09
-5.19766e-10
9.39641e-09
-3.57412e-09
4.35444e-09
-4.6613e-09
-2.41673e-08
-2.37357e-08
-2.95212e-08
7.82293e-08
-6.52081e-09
-3.95078e-08
2.26956e-08
-2.48063e-08
-3.8507e-09
1.95194e-08
2.62491e-08
-6.41985e-08
3.18124e-08
-1.49956e-08
1.84395e-08
-2.78991e-08
2.12501e-08
4.00711e-10
-1.43097e-09
-3.40158e-09
6.70685e-10
-2.70328e-09
4.47736e-10
5.65431e-10
1.18045e-09
-1.18185e-08
8.87195e-09
-5.66343e-09
-2.19381e-08
-1.12287e-10
3.63571e-09
-8.9907e-09
4.48316e-09
-2.36441e-08
-1.6198e-08
-1.33603e-08
-6.39426e-09
4.58962e-08
-1.00264e-09
-2.10016e-08
1.10577e-08
-1.37628e-08
-7.98786e-10
1.71875e-08
1.68923e-08
-4.79604e-08
2.21444e-08
-5.88316e-09
2.09503e-08
-2.43453e-08
3.65888e-08
-4.94481e-07
-7.08401e-07
-3.59534e-07
1.56275e-06
2.20075e-09
-4.71516e-07
-2.4829e-08
-6.65705e-07
-3.92837e-08
1.35015e-06
1.17724e-06
-3.19227e-06
1.43141e-06
-1.20002e-07
-1.96896e-07
1.26906e-06
5.09089e-07
4.84789e-08
2.60589e-07
-3.02056e-07
-7.24693e-08
9.50813e-08
-1.41381e-07
1.78928e-09
-7.40006e-08
3.24299e-07
1.93621e-07
4.38178e-08
-3.74813e-07
1.29181e-07
9.68896e-08
1.65339e-07
-4.58274e-07
2.09949e-07
-4.5101e-19
-9.56789e-20
-4.05782e-20
3.25554e-19
9.73842e-20
-2.31293e-19
-9.32844e-19
-3.19213e-19
2.67143e-20
5.53908e-19
1.37746e-19
-1.73906e-18
1.50826e-19
1.45503e-19
3.01102e-19
-8.67766e-19
2.13398e-19
-7.47352e-18
-1.46522e-17
-6.85176e-18
2.26703e-17
1.49371e-18
-8.99527e-18
-2.63826e-18
-3.01277e-17
5.39935e-18
4.54856e-17
1.07203e-17
-8.2946e-17
2.06716e-17
2.59025e-17
9.10932e-18
-7.99682e-18
1.8441e-17
2.02828e-13
2.21556e-16
-3.43287e-13
3.48443e-15
-2.71064e-13
-4.08188e-12
3.83218e-12
-3.60096e-13
6.01533e-15
4.6573e-13
1.21875e-13
-1.12448e-12
1.54423e-12
-2.37293e-12
3.03057e-13
-4.82099e-12
-1.79177e-13
-1.44368e-10
-6.51317e-10
5.06328e-10
4.84348e-10
-2.37737e-10
5.20282e-10
-1.36238e-10
7.73011e-11
-8.00945e-10
-1.03036e-09
-6.94762e-11
1.82594e-09
-6.18998e-10
-3.9861e-10
-1.37352e-09
1.95497e-09
-1.5714e-09
-2.33926e-10
2.87066e-10
7.24694e-10
-7.07988e-10
1.33288e-09
1.97826e-09
-3.39518e-09
5.88212e-10
1.15748e-09
8.00589e-10
-1.24734e-08
1.30951e-08
-3.52541e-09
5.72371e-09
-2.8906e-10
-8.67059e-09
-2.80529e-09
-3.57851e-08
-3.47041e-08
-1.6153e-09
7.6384e-08
1.35169e-09
-1.69288e-09
-3.32079e-08
2.40375e-10
-1.31623e-08
-5.66237e-08
1.70117e-08
4.82188e-08
-2.28034e-10
-6.14052e-08
3.62261e-08
-3.62545e-08
5.35876e-08
6.06772e-07
6.43771e-06
-6.30145e-06
-5.89734e-07
3.61747e-06
-3.82667e-06
1.00738e-06
-1.99658e-06
1.21953e-05
6.78904e-06
2.14723e-06
-1.23289e-05
4.99864e-06
2.92674e-06
-7.69181e-06
1.07325e-05
-1.16489e-05
-5.11462e-06
-2.65452e-06
-9.39643e-07
8.8163e-06
1.86232e-06
-2.96631e-06
-3.79151e-06
2.19776e-06
-2.79732e-06
-6.2232e-06
2.39784e-06
6.16167e-06
1.523e-06
-1.00533e-05
3.02791e-06
-4.15311e-06
4.61375e-06
-1.42766e-09
2.55783e-08
-8.92194e-10
-3.37326e-08
4.38933e-08
-2.22325e-08
-3.56666e-08
-1.35728e-08
8.03587e-08
-4.67705e-08
4.48534e-08
6.47314e-10
1.52889e-08
-9.66571e-08
2.95941e-08
-3.84904e-08
6.0222e-08
3.99182e-09
-3.13706e-07
-1.34868e-10
7.26637e-07
-7.98542e-07
4.80375e-07
1.25041e-07
1.43149e-07
-1.34924e-06
7.92886e-07
-7.43099e-07
-2.03245e-08
-3.21024e-07
2.06922e-06
-7.09474e-07
1.2497e-06
-1.20355e-06
3.07645e-10
-8.11407e-10
-4.99179e-10
1.07998e-09
-4.62978e-11
-4.76003e-10
6.76373e-10
-2.34186e-10
-5.73094e-10
5.2795e-10
-1.55428e-10
-6.78964e-10
2.80576e-10
1.37539e-09
6.36313e-10
-8.86345e-10
1.69065e-10
-2.29583e-08
-6.55065e-10
2.51158e-08
-5.48437e-10
1.96187e-08
3.92057e-08
-8.06846e-08
-8.30071e-09
2.8702e-08
1.59499e-07
-1.59106e-07
-1.16986e-08
-5.3935e-08
2.36889e-07
6.12633e-08
-1.65377e-07
3.34569e-08
2.28781e-07
-1.79936e-05
1.83593e-05
-6.19715e-07
-1.45748e-05
1.46464e-05
1.61302e-07
1.09802e-05
-4.3546e-05
-1.77052e-05
-1.09501e-05
4.3325e-05
-1.79376e-05
3.52707e-07
-1.49465e-05
2.23603e-05
-2.18767e-05
-3.71811e-10
-1.78732e-10
6.64846e-12
2.46569e-10
1.93584e-10
-6.05749e-10
-5.67014e-10
-5.43845e-10
7.47029e-11
4.31556e-10
-1.1366e-09
-4.17689e-10
-1.24746e-10
4.51815e-10
9.71822e-10
-3.44282e-09
3.72389e-10
-5.27907e-10
-1.09357e-09
-6.10387e-09
1.02916e-08
-3.38579e-09
-6.99997e-09
1.04483e-08
-1.99389e-09
-1.98587e-09
-2.23391e-09
8.69485e-09
-8.70148e-09
1.41219e-08
-2.47323e-08
1.69168e-09
1.41926e-09
6.49349e-10
-6.49884e-08
-2.09862e-08
1.40347e-08
6.92987e-08
1.70174e-08
-4.45201e-10
-7.06072e-08
-1.32616e-08
1.97822e-08
4.42606e-08
-2.73959e-08
-2.962e-08
-5.06949e-09
7.02659e-08
2.13887e-08
-4.60052e-08
3.16392e-08
-1.26752e-06
6.96183e-08
1.36604e-06
-6.00676e-08
1.03082e-06
9.01502e-07
-3.02256e-06
1.1301e-06
8.05547e-09
-2.06588e-06
-1.62259e-06
5.13955e-06
-1.87989e-06
-1.57733e-07
9.1171e-07
-1.94756e-06
4.13299e-07
-1.2366e-07
2.49205e-06
-2.56268e-06
2.48188e-06
-2.60464e-06
-8.17882e-08
5.28354e-06
1.87906e-06
-7.67821e-06
-2.85343e-06
1.39439e-06
-2.35239e-08
-1.26683e-06
-1.01958e-07
-6.0554e-07
-5.19639e-07
2.51223e-06
-5.99694e-07
-1.96409e-08
3.93022e-06
1.67545e-06
-6.66941e-06
4.03065e-06
-6.31445e-08
-1.11616e-06
4.66678e-06
-2.13042e-08
1.99726e-07
-7.55951e-09
-2.01614e-07
-6.88119e-07
-2.05687e-07
2.18557e-07
-1.3615e-08
-4.25662e-07
4.14987e-06
-3.00811e-06
-5.68275e-07
-9.52653e-07
5.48025e-06
8.32595e-08
-1.50239e-06
-2.59132e-07
2.94294e-06
-3.46834e-06
5.24808e-06
-6.62527e-15
2.52674e-15
3.31015e-15
-5.36074e-16
1.29089e-14
2.30065e-15
-2.09713e-14
4.21653e-15
1.11988e-14
-2.05074e-15
-1.15307e-15
6.20257e-15
-1.67964e-15
-7.00679e-16
2.19923e-15
-1.03952e-15
5.44487e-15
-3.22767e-13
2.80434e-12
-2.76536e-12
2.8404e-12
1.50209e-12
-1.21528e-12
-5.74109e-13
-4.73265e-13
5.44542e-12
4.03115e-12
1.2452e-12
-6.27438e-12
1.58126e-12
6.74926e-12
1.61406e-12
-1.79856e-12
3.2703e-12
1.04338e-13
-1.38115e-16
-8.36535e-14
3.61934e-15
-9.06074e-14
-4.63254e-14
2.54702e-13
-8.93389e-14
1.31053e-14
2.78312e-13
9.27504e-14
-4.59158e-13
2.63736e-13
6.15635e-15
-1.17281e-13
3.33914e-13
-1.02526e-13
-2.16398e-13
-1.85225e-13
-8.02839e-14
6.41151e-13
-1.46157e-14
4.3332e-14
-1.72555e-13
-1.17096e-13
-3.69817e-13
3.73427e-13
9.22104e-14
1.23347e-13
-5.05348e-13
1.6245e-13
-1.23536e-13
4.56952e-13
1.09556e-10
-5.10612e-09
4.68312e-09
8.95675e-11
-6.85281e-09
-3.15232e-10
6.08847e-09
4.72753e-09
-1.188e-08
5.02061e-09
-8.49492e-09
-3.33514e-09
-6.10883e-09
1.40072e-08
6.76151e-09
-4.46856e-09
4.30684e-09
-1.92721e-09
1.54315e-09
-6.56225e-09
7.01941e-09
2.95009e-09
-6.86456e-10
-4.4288e-09
-4.59253e-09
9.42004e-09
-3.47513e-09
5.86871e-09
-3.21954e-09
7.65791e-09
-1.4898e-08
-1.28141e-09
3.09173e-09
1.80308e-10
4.45113e-09
-5.96429e-09
-5.27846e-10
4.83111e-09
-1.96794e-08
3.11589e-09
2.45483e-08
-2.79237e-09
-2.04864e-08
8.10143e-09
8.55629e-10
-9.63688e-09
2.47771e-09
1.0293e-08
-6.26068e-09
1.17276e-08
-8.20673e-09
-5.56563e-09
7.78603e-09
1.99117e-08
-2.23085e-08
1.51538e-08
1.85218e-08
-3.94233e-08
5.91806e-09
1.6727e-08
3.66963e-08
-1.12247e-07
1.07975e-07
-3.46767e-08
9.61227e-08
3.40438e-08
-9.8306e-08
2.48666e-08
-8.93675e-08
-7.25228e-06
-3.08941e-09
7.02382e-06
-8.72601e-06
9.86099e-06
-9.3513e-07
7.73846e-06
-2.36499e-05
6.51536e-06
-8.1086e-06
2.34412e-07
-5.09025e-06
1.8358e-05
-5.47652e-06
1.02915e-05
-5.80159e-06
7.15366e-06
-1.14861e-05
-1.09803e-08
-9.0439e-06
3.22812e-05
9.21204e-06
-2.8639e-05
7.70554e-06
-5.96621e-07
6.57961e-06
6.40383e-06
2.14801e-06
-1.20253e-06
-7.16351e-06
-3.32129e-06
2.73074e-07
9.49614e-06
-2.92441e-06
1.75366e-06
5.50725e-06
-2.37083e-06
-5.96587e-06
1.12126e-06
6.1398e-06
-5.12294e-06
6.51838e-06
-8.42827e-06
-8.13535e-06
1.52751e-07
6.3774e-06
1.07625e-06
5.70997e-06
2.80609e-06
-1.69982e-05
-9.04413e-08
3.43704e-06
2.5675e-06
-2.19503e-06
-1.57283e-07
-1.98556e-06
6.10498e-06
4.34541e-06
-2.95894e-06
5.97266e-06
-1.00691e-09
-2.40454e-08
-5.00231e-08
7.54289e-08
-3.18399e-08
-3.89671e-08
7.01575e-08
-2.29305e-08
-3.23903e-08
-1.73803e-08
3.83867e-08
-4.3565e-08
2.91774e-08
-6.62675e-08
4.67238e-09
-1.68505e-08
-1.59002e-08
3.88694e-08
-1.30243e-07
3.78409e-07
-2.62541e-07
-2.76741e-07
3.15268e-07
1.87062e-08
6.03783e-07
-9.87803e-07
-2.34009e-06
-8.50813e-07
3.51365e-06
-2.81899e-06
-6.51402e-08
-9.7113e-07
4.45526e-07
-3.21337e-06
6.16985e-11
2.10139e-11
1.23166e-11
-9.62116e-11
-3.0772e-11
2.52929e-11
5.15329e-11
3.10989e-11
-4.30538e-11
-9.38579e-11
7.40602e-13
1.22092e-10
-4.25322e-11
-1.47596e-10
-4.9476e-11
6.44175e-11
-9.7934e-11
-3.95889e-08
-5.14032e-08
-3.55013e-08
1.28968e-07
-1.17352e-09
-3.11339e-08
-8.20637e-09
-5.0011e-08
-3.71725e-09
1.28491e-07
2.39188e-08
-1.97013e-07
1.44729e-07
-9.64392e-09
4.81755e-08
-4.98471e-08
1.63423e-07
1.00788e-07
4.26134e-09
-9.77634e-08
-3.06357e-09
-1.01142e-07
-8.3993e-08
2.90714e-07
-1.34378e-07
4.31328e-08
8.2645e-08
1.18325e-07
-2.92901e-07
9.17516e-08
-9.77328e-09
-3.2779e-08
4.17277e-08
-4.85377e-08
-1.0189e-09
-5.91139e-10
3.44638e-10
6.05898e-10
3.03462e-10
-8.80694e-10
-1.57945e-09
-2.58203e-09
1.04735e-09
5.09682e-09
2.63489e-10
-1.13266e-08
-4.71944e-11
4.25657e-09
1.87168e-09
-5.20127e-09
1.14347e-09
1.74372e-10
-3.24344e-09
8.52568e-10
1.99934e-09
-4.80361e-09
6.86673e-10
2.2344e-09
-6.15955e-09
-3.57366e-09
-1.33599e-09
3.74339e-10
1.69275e-09
9.97247e-10
-1.61227e-09
-5.93381e-09
5.20239e-09
-9.22632e-09
-3.68104e-06
2.78543e-07
2.07106e-06
-1.04494e-07
2.77121e-06
1.16036e-06
-8.27635e-06
2.04204e-06
4.08113e-07
-3.73464e-06
-3.29878e-06
8.99134e-06
-3.75659e-06
2.00513e-08
1.5788e-06
-3.75849e-06
2.97231e-07
3.82946e-07
3.40011e-06
-5.29723e-06
1.36111e-06
-1.21522e-06
1.06226e-08
5.0568e-06
3.23471e-06
-1.88676e-05
-2.51937e-06
-1.70351e-09
1.31023e-07
1.63341e-08
-1.34282e-07
8.18543e-08
-8.87944e-08
1.49469e-09
-7.00698e-08
3.03785e-07
-1.78607e-07
1.62721e-07
3.95143e-08
8.06488e-08
-3.85712e-07
9.11339e-08
-1.01151e-07
1.8922e-07
-1.64334e-09
2.09644e-10
1.72964e-09
-3.03334e-10
2.0383e-09
1.83567e-09
-5.52144e-09
1.86592e-09
3.77895e-10
-7.7019e-09
-1.48902e-09
1.40364e-08
-3.85754e-09
-1.47312e-10
1.29398e-09
-1.43967e-09
1.66784e-09
-1.55793e-12
-1.45404e-12
1.57066e-12
4.02993e-13
2.08136e-12
2.64456e-12
-1.37998e-11
5.91322e-12
-6.62787e-12
-8.92581e-13
-3.1756e-12
4.11836e-12
-1.43044e-12
5.59294e-13
9.58755e-13
-1.70328e-12
1.95128e-12
-2.17812e-16
2.02096e-15
-1.49028e-15
3.31158e-16
2.48941e-15
-2.01491e-15
-3.2641e-17
-1.77142e-14
-1.83009e-14
1.29995e-15
-4.26121e-15
-1.61006e-14
5.99551e-15
-3.03526e-14
-2.90009e-14
-3.22931e-14
-3.26934e-15
6.90519e-14
-2.17752e-15
-1.94872e-14
1.09604e-14
-4.4079e-16
-1.9472e-14
4.49184e-14
-8.64689e-14
3.8811e-14
-5.59549e-14
1.03378e-13
-3.5862e-14
-1.16961e-13
-2.02316e-13
-3.03162e-13
-2.24854e-13
1.33196e-13
-4.35595e-13
-1.22766e-05
-1.00343e-05
-1.03828e-05
3.27324e-05
-3.61004e-07
-1.28827e-05
9.69555e-07
-9.80849e-06
-5.52401e-07
9.54156e-06
7.58256e-06
-2.69173e-05
1.03115e-05
-1.29274e-06
5.4426e-06
-1.07411e-05
5.39098e-06
3.39021e-12
-1.83492e-16
-4.88081e-12
7.05311e-13
-2.46551e-14
-1.1751e-12
4.11398e-12
2.20173e-16
-3.1786e-14
-4.01325e-14
3.64563e-14
-3.00106e-19
5.42051e-14
-1.26708e-13
-2.03223e-12
8.73799e-13
-6.68394e-12
-2.60764e-15
1.36931e-14
2.55255e-15
-9.96855e-15
2.40885e-14
-1.19424e-14
-5.47259e-15
-8.51737e-15
5.28758e-14
-1.44527e-14
1.45603e-14
6.56276e-15
5.95802e-15
-2.62709e-14
1.16069e-14
-1.31391e-14
2.33908e-14
-4.20508e-14
1.55855e-13
-1.10702e-13
8.74658e-14
2.44521e-13
-8.78146e-15
-5.24444e-14
-7.0493e-14
5.33415e-13
-4.11728e-14
6.58919e-14
-1.47198e-14
7.40939e-14
-1.57168e-13
-1.2732e-14
1.56269e-14
-4.54271e-14
2.09221e-09
4.67153e-10
-1.0681e-09
-6.18264e-10
-7.37644e-10
1.66992e-10
3.23481e-09
1.15202e-09
-3.28891e-10
-1.52472e-09
1.10106e-09
2.39962e-09
2.1993e-10
-1.6866e-09
-2.34622e-09
4.2993e-09
-2.4731e-09
2.75295e-09
-6.13617e-10
-4.08526e-09
7.56449e-10
-9.32444e-10
5.48917e-09
2.83382e-09
-9.89139e-11
-1.33993e-09
7.14284e-10
-4.08917e-09
-1.99122e-09
-3.7131e-09
4.10245e-09
-1.53881e-09
2.2415e-09
-7.97693e-09
2.13201e-08
6.8525e-09
-4.94316e-09
-2.06456e-08
-6.69967e-09
-1.87579e-09
1.96978e-08
2.63349e-09
-5.0579e-09
-5.76658e-09
4.02595e-09
3.19048e-09
-4.15365e-10
-1.28402e-08
-6.9073e-09
7.09668e-09
-1.52099e-08
6.84177e-08
3.26641e-08
2.51556e-09
-5.31716e-08
-3.33423e-08
1.78758e-07
2.15715e-07
1.40664e-07
-3.88068e-08
-1.63307e-07
-1.5486e-08
4.60921e-07
-4.09255e-08
-7.75564e-08
-8.12727e-08
5.22485e-07
-8.22918e-08
-2.69339e-06
-1.68194e-07
8.87477e-07
2.70694e-07
3.97219e-06
3.49337e-06
-1.285e-05
7.52277e-08
1.01066e-06
1.11088e-06
-3.85343e-06
8.33791e-07
-1.43748e-06
1.80165e-06
1.68901e-06
-3.96477e-06
7.71853e-07
2.08774e-07
-6.93549e-08
-1.48622e-07
1.30696e-08
-1.91835e-06
-5.11405e-07
2.81408e-06
-1.97002e-06
6.4221e-07
1.79184e-07
4.6389e-07
-7.8623e-07
2.09001e-07
-1.73446e-08
-4.99893e-07
2.12311e-07
-2.00108e-06
-8.7199e-06
1.79038e-07
8.77803e-06
-1.07436e-07
1.91082e-05
4.74656e-06
-3.24016e-05
1.96645e-05
2.28049e-07
-3.53387e-05
-2.64302e-05
8.51564e-05
-2.23314e-05
-4.8509e-07
-4.22163e-06
-1.3256e-05
-1.5191e-05
8.94263e-06
-1.5749e-07
-8.91406e-06
1.53306e-07
-1.59835e-05
-4.81572e-06
2.97749e-05
-1.53546e-05
-6.70826e-07
5.81163e-06
-3.1771e-05
1.70778e-05
-3.16899e-05
2.75327e-05
3.1156e-05
-7.81741e-05
-1.10394e-06
1.2531e-05
1.92841e-05
-6.1038e-05
-3.08843e-07
-1.63434e-07
-5.45562e-10
1.04027e-10
5.09363e-10
-5.09091e-13
1.81025e-09
-1.60022e-11
-2.27848e-09
2.52629e-09
-5.31973e-10
-2.4182e-10
-1.0695e-10
9.07722e-10
8.14331e-11
-2.93901e-10
1.34335e-10
-4.43288e-11
2.63737e-09
-1.24944e-05
-1.25856e-05
-8.14835e-06
3.32316e-05
-8.28032e-08
-1.27013e-05
2.92001e-07
-1.25447e-05
-1.19114e-07
1.67599e-05
1.27152e-05
-4.20248e-05
1.71112e-05
-4.77581e-07
8.93516e-06
-8.91768e-06
1.79017e-05
9.91019e-06
1.0802e-05
1.57267e-06
-2.43211e-05
4.93609e-07
6.25646e-06
-1.53539e-07
9.41283e-06
8.34995e-07
-1.07979e-06
-1.27938e-06
6.9223e-06
-1.19106e-06
-2.21512e-08
1.576e-06
-1.38245e-06
8.74768e-06
1.3099e-07
1.69505e-07
5.98926e-08
-3.18304e-07
3.64173e-10
-1.24041e-09
5.80021e-08
1.14542e-07
1.4379e-08
6.50838e-08
-6.67249e-08
-3.9772e-09
-2.26124e-08
1.13343e-07
-7.15795e-08
1.4605e-07
-8.81774e-08
-1.79941e-08
1.10216e-08
1.98902e-08
-1.02639e-08
2.92748e-08
-2.77442e-10
-4.68276e-08
1.40198e-08
2.7952e-08
-3.15285e-08
-8.47261e-10
4.32064e-08
-1.30224e-08
-2.688e-08
1.851e-08
-3.71634e-08
2.68022e-08
-2.11019e-06
-5.74143e-06
-9.46901e-07
8.80504e-06
-2.1544e-07
-1.48662e-06
2.03817e-07
-2.35212e-06
5.68201e-07
-2.55037e-06
-8.44198e-06
9.80548e-06
-4.33302e-06
2.51091e-06
7.24372e-06
-1.43437e-05
4.61093e-06
2.72863e-06
5.35919e-07
-7.31114e-06
3.09414e-06
-7.51145e-09
-3.01212e-09
-2.04313e-09
7.58821e-09
1.46438e-10