/*--------------------------------*- C++ -*----------------------------------*\
| =========                 |                                                 |
| \\      /  F ield         | OpenFOAM: The Open Source CFD Toolbox           |
|  \\    /   O peration     | Version:  v2012                                 |
|   \\  /    A nd           | Website:  www.openfoam.com                      |
|    \\/     M anipulation  |                                                 |
\*---------------------------------------------------------------------------*/
FoamFile
{
    version     2.0;
    format      ascii;
    class       surfaceScalarField;
    location    "0.3";
    object      alphaPhi0.water;
}
// * * * * * * * * * * * * * * * * * * * * * * * * * * * * * * * * * * * * * //

dimensions      [0 3 -1 0 0 0 0];
oriented        oriented;


internalField   nonuniform List<scalar> 
49400
(
-5.66184e-06
-2.56008e-09
5.61851e-06
4.58936e-08
1.30568e-05
3.59839e-06
-2.23171e-05
1.28501e-05
2.04153e-07
-3.42789e-06
1.7309e-05
-8.2626e-06
2.02075e-05
-2.0037e-05
-2.07673e-05
5.09264e-05
-3.55646e-07
8.06226e-06
1.95817e-05
-4.9961e-05
-1.54442e-07
-6.09774e-07
-1.22904e-05
2.28427e-07
1.21491e-05
-8.71344e-08
2.6298e-05
1.15642e-05
-5.01525e-05
2.59167e-05
-1.31288e-05
1.51306e-06
2.37648e-05
-1.32609e-05
4.50165e-08
2.94751e-05
-3.11719e-05
5.69048e-05
-2.68314e-05
4.82747e-07
2.64101e-05
-6.14277e-08
9.22318e-06
1.56087e-05
-5.16632e-05
5.41102e-07
9.16483e-06
4.1193e-05
2.27021e-05
-4.82864e-05
1.73443e-05
5.02588e-05
7.66854e-06
-7.39529e-06
2.67856e-07
-3.73149e-06
2.05649e-05
6.25619e-06
9.0506e-06
1.9869e-05
8.83545e-06
4.83002e-07
-2.00375e-05
4.94378e-05
3.14449e-07
-5.48727e-09
7.88955e-08
-3.30393e-08
-2.79014e-08
8.84564e-08
-2.25452e-08
-6.28509e-08
-2.44153e-07
-3.66141e-07
-2.08289e-08
2.73822e-08
1.30788e-11
3.6468e-08
-6.48362e-08
-2.95209e-07
1.99393e-07
-5.46642e-07
3.85579e-10
1.30707e-10
-4.51635e-10
-5.1305e-10
-1.17189e-10
-9.48749e-11
4.83233e-10
6.3622e-11
-2.50016e-10
-4.63223e-10
2.95002e-10
1.08709e-10
2.52588e-10
-1.47231e-09
-6.67777e-10
8.20489e-10
-1.59313e-09
7.3891e-11
-1.48901e-12
-7.62643e-11
-5.53907e-13
-5.38489e-10
-2.36015e-10
8.25264e-10
-6.3136e-10
2.67716e-11
8.87296e-11
1.3863e-10
-3.05806e-10
8.79193e-11
-2.33246e-12
-3.06035e-10
1.49887e-10
-8.1691e-10
-6.52323e-10
-6.43666e-10
-1.20722e-09
2.53769e-09
2.12847e-10
-2.61482e-10
-8.03631e-10
-1.33528e-09
9.38911e-10
-5.06231e-10
1.61492e-09
-1.28048e-09
1.25196e-09
-2.33763e-09
-3.87171e-10
8.21232e-10
-4.44703e-10
-2.27267e-08
-2.06473e-08
-7.45507e-09
5.44904e-08
-3.22614e-09
-3.67876e-08
2.19081e-08
-2.21723e-08
5.76092e-10
5.09605e-08
2.59187e-08
-1.03851e-07
6.74795e-08
1.88127e-08
1.02199e-08
-4.27823e-09
7.62478e-08
4.42486e-16
-4.64522e-16
-1.44895e-16
2.45399e-16
-1.33694e-15
-1.63109e-18
1.8182e-15
-1.38597e-16
-1.63916e-15
2.81026e-16
1.08349e-17
-4.11383e-16
1.6172e-16
4.01173e-16
-2.84226e-16
4.70778e-16
-3.98213e-16
-1.75414e-12
-7.32112e-12
5.87193e-12
2.20884e-12
-6.07037e-12
6.69646e-12
-1.70397e-12
2.3794e-12
-1.37631e-11
-8.37053e-12
-5.06906e-12
2.05678e-11
-4.37807e-12
-3.77659e-12
2.87046e-12
-3.58898e-12
3.88678e-12
-2.18317e-06
-1.06665e-05
-5.413e-06
1.87566e-05
9.30053e-08
-2.28706e-06
-2.81223e-08
-1.31583e-05
2.5498e-06
2.86398e-06
2.72542e-06
-7.88645e-06
2.82049e-06
-1.61486e-15
-1.03468e-05
7.92453e-06
-2.07996e-05
6.81036e-13
1.08837e-13
-1.65234e-13
-9.9029e-14
-2.54215e-13
-1.68273e-13
1.08731e-12
-1.47333e-13
-4.08255e-16
3.60491e-13
2.42201e-13
-7.6819e-13
3.797e-13
-5.86341e-14
-1.33843e-13
3.31481e-13
-6.91588e-14
-1.79731e-17
-4.76035e-17
-4.96857e-17
9.8799e-17
-3.91381e-17
-1.37678e-16
1.2295e-16
-1.1825e-16
-2.1403e-17
5.31195e-17
1.76702e-16
-4.59006e-16
4.48107e-17
-2.10286e-17
2.23224e-17
-3.67751e-17
7.92339e-18
4.30814e-12
2.00782e-10
-8.5484e-11
-3.75287e-10
1.64836e-10
-3.25851e-10
1.21998e-11
-3.9751e-10
5.14856e-10
-4.1826e-10
8.47794e-10
-1.16156e-09
4.12252e-10
-1.66035e-09
9.14207e-11
-1.70729e-10
2.00586e-10
-6.43392e-09
6.50131e-09
9.53634e-09
-1.09463e-08
5.33931e-09
1.71902e-08
-3.01797e-08
1.76784e-08
-1.2209e-09
-7.72207e-09
-2.21569e-08
4.87669e-08
-1.30987e-08
1.29218e-09
5.29348e-09
-9.13558e-09
-3.07376e-09
7.66873e-08
6.28293e-09
-1.31274e-07
-1.04983e-08
-2.3313e-07
-5.11817e-08
3.66878e-07
-5.18433e-09
-2.01088e-07
-1.44945e-07
2.30376e-07
-5.52087e-08
4.35806e-07
-6.53775e-07
1.20507e-08
1.84098e-07
1.82894e-07
-6.38177e-09
1.42759e-07
1.68011e-07
-3.2837e-08
6.88434e-07
7.49174e-10
-4.27126e-10
-1.8854e-09
1.67773e-09
-1.85928e-09
-2.4352e-09
5.12806e-09
-8.71202e-10
-1.27211e-09
-1.79038e-10
3.04332e-09
-3.62489e-09
2.87616e-09
-4.22861e-09
5.74177e-10
-5.69299e-10
1.71022e-09
-4.48986e-09
2.66464e-08
-1.06328e-09
-1.99205e-08
3.5089e-08
-3.76629e-08
-7.67172e-10
-1.06499e-08
1.19534e-08
-9.79624e-09
1.02083e-12
2.91778e-12
8.33273e-13
-4.06377e-12
8.12318e-14
6.22813e-13
-2.01579e-15
1.59568e-12
2.39697e-12
-3.98439e-13
-2.62731e-13
1.57571e-12
-5.48883e-13
1.63838e-13
5.33899e-13
-2.09399e-13
1.9582e-12
-1.61524e-16
-9.94373e-16
1.87482e-16
3.87068e-16
-8.43535e-16
5.02903e-16
-9.15563e-17
9.20648e-16
-3.51181e-15
3.10273e-16
-1.11985e-15
5.8087e-16
-5.01289e-16
9.27072e-16
-5.40237e-16
3.14741e-16
-1.17524e-15
3.2047e-10
-2.00892e-12
-4.08229e-10
6.19686e-11
-5.89928e-11
-1.62261e-10
5.32273e-10
-2.41582e-12
-5.53399e-11
-6.213e-11
7.32027e-11
-1.15385e-11
9.19674e-11
-2.11216e-10
-1.92148e-10
1.00674e-10
-5.11822e-10
1.6324e-10
2.27105e-10
3.10654e-10
-7.88807e-10
8.22316e-11
2.74507e-10
-1.95593e-10
8.18091e-11
2.2481e-10
1.70541e-10
-3.12014e-10
2.21658e-10
-2.62884e-10
6.5647e-10
-1.09131e-10
1.1901e-10
-8.96551e-11
3.62124e-09
-2.85016e-10
-5.83256e-09
3.29214e-09
-4.64571e-09
1.87551e-09
5.70432e-09
-6.20793e-10
-4.62077e-09
1.17755e-08
-1.98206e-09
-1.45728e-08
9.54863e-10
1.44682e-08
-4.65893e-09
7.11076e-09
-7.75965e-09
-5.84849e-08
-3.2994e-08
8.03201e-08
6.29942e-08
-1.79996e-08
1.44986e-07
-1.67665e-07
1.06082e-07
-1.45402e-07
-1.27016e-08
-1.14791e-07
2.40138e-07
-1.82938e-07
2.10966e-07
1.32528e-08
-5.05484e-08
2.92834e-08
5.95563e-08
1.35585e-08
-7.04163e-08
-2.21683e-09
-3.763e-08
-3.84362e-08
1.3612e-07
2.80632e-08
-5.12937e-08
-5.775e-08
6.93397e-08
8.24341e-09
5.73336e-08
-1.65854e-07
-3.84458e-08
3.37939e-08
-4.27856e-08
3.91554e-08
-7.97381e-09
-2.73705e-08
-1.16408e-08
-2.7723e-08
-6.02946e-09
8.02291e-08
-3.64926e-09
-1.88126e-08
-1.99016e-08
1.28015e-08
2.57182e-09
-1.05991e-08
-2.91296e-08
-4.21332e-08
5.11513e-08
-7.89976e-08
-2.66322e-10
-8.13632e-11
3.16877e-11
3.34574e-10
7.76047e-11
-7.72536e-12
-3.34266e-10
-5.6572e-11
7.92106e-11
1.74288e-10
-3.683e-11
-1.85059e-10
1.38498e-11
2.51511e-10
9.86826e-11
-1.52404e-10
1.16808e-10
9.36641e-11
1.15206e-10
1.40567e-10
-3.47873e-10
5.94549e-13
8.39377e-11
8.85656e-13
1.09638e-10
9.66006e-13
-4.70889e-10
-1.71534e-10
7.16808e-10
-5.01773e-10
3.19306e-12
2.01886e-10
-5.6232e-10
1.36799e-10
-1.12132e-05
-1.49188e-05
-8.83356e-06
3.51293e-05
-1.6753e-07
3.94696e-08
-1.08107e-05
-1.42423e-05
-8.2109e-07
-1.29222e-05
1.28766e-05
2.38803e-07
8.63261e-06
-3.24931e-05
1.04439e-05
-1.60203e-05
1.45229e-05
-6.45284e-11
3.50898e-12
6.26329e-11
-1.7856e-12
2.06016e-10
3.89761e-11
-3.20192e-10
1.4106e-10
4.91684e-11
-6.94488e-11
-1.59369e-11
1.48383e-10
-6.81568e-11
-2.8925e-12
1.073e-10
-1.3634e-10
2.24899e-10
-3.02326e-09
-7.4383e-09
-3.67826e-10
1.07193e-08
-1.85753e-09
-3.12602e-09
1.79126e-09
-5.3356e-09
-3.56017e-09
6.17864e-09
1.54761e-09
-1.24016e-08
3.33522e-09
4.54517e-09
8.74287e-09
-1.24091e-08
1.1646e-08
-4.2632e-09
-8.79345e-10
9.49882e-10
3.92267e-09
2.296e-09
4.99053e-10
-7.65463e-09
-1.79436e-10
1.44332e-09
9.8575e-10
-2.38118e-10
-9.3449e-10
5.21269e-11
2.06929e-09
8.90993e-10
-6.87882e-10
1.83943e-09
-1.01628e-08
6.27962e-09
9.28472e-09
-1.35342e-10
2.61427e-08
-6.50348e-09
-2.38956e-08
1.28795e-09
3.57673e-08
-9.84156e-09
4.83226e-09
1.65573e-08
-1.85705e-09
-8.10348e-09
9.96123e-09
-2.0645e-08
1.16629e-08
-2.41615e-06
-2.92734e-06
2.35524e-06
2.99688e-06
2.28303e-07
4.94609e-06
-7.58813e-06
5.06481e-06
-7.75574e-06
3.13888e-07
-5.66678e-06
7.71746e-06
-5.75619e-06
9.07281e-06
6.97146e-07
-1.55328e-06
5.20733e-08
1.50743e-05
1.50595e-05
1.75704e-05
-4.73953e-05
9.28261e-08
-5.42536e-07
1.48906e-05
1.65374e-05
-1.24902e-06
1.82211e-05
-1.82654e-06
-1.76925e-05
5.03353e-05
-4.06012e-06
2.36829e-05
1.33858e-06
-6.2602e-07
-2.43724e-05
-3.12961e-05
-2.89239e-05
8.40704e-05
-2.46567e-05
9.2418e-07
-2.95889e-05
6.20963e-08
2.70209e-05
-8.09648e-05
7.28357e-07
3.02766e-06
1.23743e-07
-8.02962e-07
2.61061e-08
-3.42123e-07
-8.36029e-07
5.48717e-06
-2.49194e-07
1.72369e-08
2.73669e-07
3.479e-07
-9.62695e-07
2.76071e-07
-2.53534e-10
-6.26214e-07
5.3188e-07
-7.94768e-07
-2.87349e-08
-6.38373e-08
-2.34022e-08
1.12281e-07
3.12449e-09
-3.16446e-08
-4.43957e-09
-1.09082e-07
4.14818e-09
8.25185e-08
2.74351e-08
-2.41518e-07
8.49175e-08
5.23542e-08
-6.24539e-08
1.14244e-07
2.31514e-10
4.40518e-10
6.16188e-11
-7.34128e-10
3.591e-10
-1.01709e-10
1.61511e-10
2.1896e-10
5.80255e-10
2.12396e-10
-4.27033e-10
3.2004e-10
-2.20776e-10
5.59812e-10
-1.40158e-11
-7.18051e-12
-3.7951e-10
-4.25204e-10
-2.43066e-10
2.83035e-10
7.42091e-11
7.21944e-11
-1.72294e-10
-5.88161e-10
-1.49224e-11
-8.06736e-11
-2.81962e-10
-5.08371e-11
7.53752e-10
-8.87427e-11
-5.9331e-11
1.51992e-10
-3.88056e-10
5.33422e-11
-4.90554e-10
3.82837e-10
4.65864e-10
-4.9932e-10
1.17961e-09
1.752e-10
-1.81768e-09
6.91536e-10
2.75421e-10
-1.16821e-09
-1.44273e-10
1.38845e-09
-1.6158e-10
-1.29162e-09
7.66068e-10
-9.46933e-10
6.51661e-10
-4.07434e-10
1.34862e-10
1.21755e-09
-1.54305e-11
2.96824e-10
4.52844e-10
-1.12863e-09
1.20324e-09
-1.61924e-09
-1.91043e-10
-2.67114e-10
1.40342e-09
-2.66432e-10
-1.8465e-11
8.51365e-11
-8.24221e-11
3.72422e-10
8.5173e-11
1.56387e-10
2.04434e-11
-2.59388e-10
9.72495e-11
-5.96422e-11
1.30837e-10
1.07435e-10
1.87108e-10
2.52209e-10
-9.02563e-11
-2.09595e-10
-7.03375e-12
3.79182e-10
-1.56154e-10
2.49006e-10
-2.33727e-10
-1.03029e-10
-6.48852e-09
-1.13498e-09
9.22774e-09
-1.36189e-08
1.49628e-08
-2.24776e-10
1.56085e-08
-3.50989e-08
8.14532e-08
-7.0164e-08
-2.66571e-09
-1.80576e-08
1.13366e-07
-5.31233e-08
5.21611e-08
-1.04556e-07
-1.21418e-10
-9.28879e-11
-5.49634e-11
2.63307e-10
-6.68519e-12
-2.14775e-10
5.69829e-11
-1.5568e-10
-6.19007e-12
9.16762e-11
1.36171e-10
-3.8541e-10
1.40531e-10
-3.21546e-11
1.52427e-10
-2.48135e-10
2.37667e-10
8.48347e-15
1.44015e-14
1.435e-14
-3.59304e-14
3.96859e-14
1.53391e-13
-1.57948e-13
4.51627e-14
1.64021e-14
-9.52442e-15
-1.00138e-13
1.54528e-13
-1.59245e-14
2.38183e-14
-7.25627e-15
6.1417e-14
-8.42908e-15
-7.81461e-13
9.49319e-15
4.29211e-13
5.75572e-14
9.16684e-13
9.28882e-13
-3.27404e-12
2.35293e-14
4.15679e-13
2.7553e-13
-6.46691e-13
1.11018e-13
-3.55428e-13
7.43748e-13
4.00455e-13
-5.94127e-13
2.79064e-13
3.56455e-09
-9.10588e-09
4.53712e-09
-3.28292e-09
-1.86465e-08
-1.02823e-09
2.15495e-08
-1.09157e-08
-1.69559e-08
-4.38808e-09
2.0728e-09
4.31241e-09
-1.07889e-10
-9.79202e-09
-4.80738e-09
4.44685e-09
-1.34758e-08
1.1782e-09
1.75454e-09
-1.33163e-09
-2.85772e-09
1.63581e-09
1.68868e-09
-3.72202e-09
-3.58871e-11
2.52718e-09
-7.40893e-09
1.31315e-09
7.2182e-09
2.34032e-10
-1.38716e-08
-3.04098e-09
3.94905e-09
-5.04993e-09
4.66323e-09
1.55174e-09
2.09554e-09
-8.51593e-09
-9.85392e-11
3.9574e-09
5.38673e-10
1.23941e-09
-7.59046e-12
-5.12802e-10
-5.48573e-10
2.15032e-09
-6.69354e-10
-1.01219e-11
-2.10386e-09
5.27223e-09
-9.44451e-10
7.37566e-10
-2.01043e-12
-2.01191e-09
7.64685e-10
-2.8131e-10
-5.13786e-10
1.26387e-09
-8.80086e-12
-3.36376e-10
-3.31499e-10
3.36792e-10
-5.77537e-11
8.61965e-10
-1.66524e-09
-1.23671e-09
7.4426e-10
-3.14311e-09
5.92658e-11
5.90693e-10
-1.52758e-10
-3.38363e-11
3.37223e-10
-3.93629e-10
1.33934e-11
-6.93504e-11
9.05009e-10
7.18669e-10
7.21952e-11
3.7325e-10
2.78361e-10
-2.36832e-10
4.78066e-10
-3.74143e-10
-2.16965e-12
-8.6987e-12
2.69334e-12
1.12465e-11
-1.85979e-12
-6.00254e-13
3.96425e-12
5.36767e-13
-8.19839e-12
2.79736e-12
-1.98879e-12
-6.45671e-13
-4.87828e-14
1.74608e-11
-3.77874e-12
1.39272e-11
-2.53745e-12
-1.49366e-13
2.85219e-14
-2.7332e-15
1.5327e-13
5.12646e-13
1.1512e-13
-4.69591e-13
2.28246e-13
5.81906e-13
1.14127e-13
-1.12326e-13
4.51574e-14
-7.78318e-14
5.45623e-13
1.08227e-13
-5.49392e-14
5.198e-13
-2.2322e-17
6.71939e-18
7.46232e-18
-2.11055e-17
5.57339e-17
-1.17047e-17
-1.19999e-16
3.26163e-18
2.98692e-17
-5.10219e-17
3.23463e-18
3.24302e-17
-1.05205e-17
-1.20625e-16
4.11474e-17
-1.05352e-16
2.74442e-17
6.1533e-17
7.263e-17
-3.11882e-17
-1.45448e-16
2.59759e-17
-1.85912e-16
1.94718e-16
-7.60146e-17
1.65896e-16
-6.33854e-17
6.33903e-17
-3.52016e-17
2.21018e-16
-5.40318e-16
2.84369e-17
-4.28675e-17
1.02652e-17
-8.82181e-17
8.64965e-17
4.74771e-17
-2.24233e-17
2.88747e-16
-2.6448e-17
-3.2655e-16
-2.47989e-18
3.98432e-16
-3.67786e-17
2.41947e-17
6.82756e-17
-1.16725e-18
-5.32232e-17
5.21971e-17
-7.38408e-17
8.14555e-17
1.14578e-05
2.97101e-08
-1.12407e-05
-2.2666e-07
-1.22006e-05
-9.20612e-06
3.25029e-05
-1.17641e-05
-2.44994e-07
1.28363e-05
9.13322e-06
-3.32313e-05
1.33247e-05
-7.02191e-07
-7.22554e-06
1.15213e-05
-9.02133e-06
8.79555e-09
5.06225e-09
3.73277e-10
-1.44413e-08
1.33199e-09
2.65002e-09
4.18564e-09
6.08663e-10
4.63846e-09
6.88624e-09
-4.16792e-09
-4.74525e-09
-7.27614e-09
1.8842e-08
-6.93116e-09
2.36148e-09
-9.89408e-09
1.1417e-08
2.01852e-08
-2.76767e-09
-2.83775e-08
8.24699e-09
8.30998e-09
-4.20114e-09
4.04461e-09
2.4946e-08
-1.58307e-08
3.2745e-09
2.73664e-08
-4.13607e-09
-1.42643e-08
-8.82223e-09
1.64818e-08
-1.53583e-08
-6.4029e-06
1.70006e-06
1.0434e-05
-5.1843e-06
5.25726e-06
4.73939e-06
-4.84809e-06
1.57227e-06
7.61485e-06
7.20193e-06
-9.72876e-06
4.67419e-06
-7.77511e-06
2.24352e-05
5.37009e-06
-9.69651e-06
8.23376e-06
1.43398e-06
3.71583e-06
1.41905e-06
-7.04383e-06
-6.9227e-08
-2.51655e-07
1.50793e-06
3.16815e-06
-1.21574e-07
1.7342e-06
-1.9797e-06
-1.43288e-07
-1.30381e-06
4.57022e-06
5.53394e-07
-4.77577e-06
2.06237e-06
-3.14658e-06
2.26446e-06
-7.36134e-06
6.98757e-06
-1.11563e-05
1.62394e-06
-5.54823e-08
-3.03259e-06
9.08195e-06
-1.17501e-06
1.63014e-06
5.07109e-07
-5.27116e-07
-1.26121e-06
-7.78104e-07
-2.51001e-06
5.61695e-06
-6.7196e-07
2.57137e-07
4.05459e-06
1.15443e-06
-6.07251e-06
6.96648e-06
-3.0484e-06
-1.09711e-06
6.35664e-06
-7.47305e-07
-3.11874e-06
-4.39705e-07
2.33515e-06
1.46297e-06
2.12776e-06
-7.3448e-06
1.46987e-06
-4.50585e-06
2.37588e-06
-1.5757e-06
-1.47847e-07
3.5844e-06
-8.41856e-07
1.05761e-06
4.62038e-07
-2.74695e-06
3.76551e-07
1.95576e-06
8.99922e-07
-6.06956e-07
1.28035e-07
-8.70924e-07
3.61403e-06
6.41326e-08
2.37473e-08
2.73036e-06
-3.37343e-10
-1.51451e-11
1.69801e-10
-1.09385e-11
2.07557e-10
7.98676e-11
-9.30855e-10
9.61581e-11
1.38749e-12
-1.65732e-10
7.2644e-12
2.12495e-10
-6.65279e-11
-2.33423e-10
1.23672e-10
-2.20771e-10
1.43885e-10
2.59346e-12
1.23404e-12
-2.67799e-12
-1.13162e-12
-1.98538e-12
-3.87807e-12
8.46793e-12
-4.67662e-12
3.93659e-12
4.78805e-12
4.09259e-12
-1.08507e-11
9.42284e-12
-4.17018e-12
-2.24135e-12
7.87732e-12
-2.81636e-12
1.3395e-11
2.36683e-12
-1.2506e-11
-5.56203e-12
-9.8889e-12
-2.42185e-11
4.58932e-11
-1.10883e-11
2.41481e-12
3.67391e-11
1.85497e-11
-7.16036e-11
7.07866e-11
-4.71218e-11
-5.99155e-12
4.9434e-11
8.30049e-14
7.07869e-14
-5.46195e-13
-2.14531e-13
1.39284e-12
-2.0237e-12
2.03018e-12
7.20331e-13
1.03279e-12
-3.15499e-12
4.47609e-12
-2.59958e-12
-4.18908e-13
-6.85795e-13
7.15472e-12
-2.47182e-12
4.47432e-12
-3.34313e-12
-5.49985e-11
-5.09656e-10
-1.77021e-09
9.266e-10
-1.03626e-11
-8.90238e-11
-4.30873e-12
-3.28667e-10
-2.82192e-09
6.27766e-10
2.52066e-10
-2.17818e-09
1.10499e-08
-3.317e-08
2.24072e-10
-2.8959e-10
4.35294e-09
-4.97965e-13
-1.45586e-12
6.66188e-13
7.70441e-13
-8.26219e-13
1.10522e-12
-1.08803e-12
3.78158e-12
-7.60405e-12
6.79136e-14
-2.16141e-12
2.36373e-12
-1.02274e-12
1.42075e-12
5.49833e-15
2.13003e-14
9.65189e-13
-2.8341e-09
-4.39305e-10
2.0173e-09
6.8951e-10
2.78168e-09
3.58375e-10
-8.39182e-09
-6.79378e-11
2.05738e-09
1.73389e-09
-7.22742e-10
-1.28827e-09
-7.52698e-10
4.31818e-09
1.45098e-09
-2.49821e-09
2.55023e-09
-1.10315e-06
-3.05813e-06
-1.27986e-06
3.62303e-06
1.7222e-08
-1.91206e-06
1.0789e-10
-7.00208e-06
4.85442e-08
1.12083e-05
9.36418e-06
-3.17669e-05
3.23349e-06
3.42451e-07
-1.0842e-06
1.44722e-06
2.2024e-06
-3.45103e-10
4.76753e-09
-5.33831e-09
5.8614e-10
3.86332e-09
-4.44158e-09
-2.74277e-10
-1.6886e-09
1.00628e-08
8.1991e-09
3.87448e-09
-1.73259e-08
8.15427e-09
-4.9622e-10
6.77683e-09
-8.96254e-09
1.31631e-08
-1.4157e-21
-9.10204e-22
-3.03633e-22
1.78386e-21
3.06473e-22
-1.05379e-21
-1.71577e-21
-2.82612e-21
2.52451e-22
4.89249e-21
6.73896e-22
-1.31782e-20
1.43215e-21
1.48527e-21
1.3791e-21
-3.44318e-21
1.45216e-21
-3.56722e-21
-5.20038e-21
-2.04868e-20
2.36212e-20
6.18074e-22
-2.00848e-21
-3.28016e-21
-5.27407e-21
9.1372e-22
5.50123e-21
-1.41479e-22
-8.67383e-21
4.49976e-20
1.64588e-20
2.46412e-21
-3.67596e-21
3.13773e-20
4.09018e-13
-4.11639e-14
-3.57105e-13
8.61041e-14
-5.2434e-13
-3.1103e-13
1.32816e-12
-2.7728e-13
-2.29373e-13
5.23367e-13
1.01132e-13
-9.59542e-13
3.9481e-13
2.43011e-13
-1.27067e-13
2.39213e-13
-2.79084e-13
-1.94264e-09
-2.57477e-09
1.67383e-09
2.48054e-09
-5.02967e-10
3.51189e-09
-3.69643e-09
-3.07226e-10
-2.86316e-09
-1.04595e-08
3.85644e-10
1.32005e-08
-1.23386e-09
-1.44022e-08
-3.68087e-09
5.65024e-09
-5.15583e-09
-5.67169e-08
2.43005e-08
6.21439e-08
-4.5205e-08
1.04931e-07
2.46119e-07
-4.27308e-07
3.17032e-08
6.87627e-08
3.69963e-08
-2.83925e-07
2.22597e-07
-9.94548e-08
1.66936e-07
5.23946e-08
-1.63423e-07
1.35224e-09
-2.85342e-07
-2.0321e-07
-1.26829e-08
4.54749e-07
3.99898e-08
-1.37898e-07
-2.34215e-07
2.21146e-07
-4.79833e-07
-1.23677e-06
1.90231e-07
1.17846e-06
1.12717e-08
-2.36052e-06
3.73252e-07
-5.4641e-07
5.138e-07
-2.96683e-06
4.47414e-06
-1.03866e-05
9.09383e-06
6.58666e-06
-6.41014e-06
-3.48367e-06
-9.53563e-06
2.03555e-05
3.59823e-06
7.51075e-06
-1.75018e-05
9.64835e-06
-9.55679e-06
-3.1503e-06
3.26787e-06
-5.78314e-06
-2.10508e-06
-4.96273e-06
-6.03578e-06
1.31167e-05
-2.45974e-06
-6.29458e-06
6.62436e-06
-2.61511e-06
-4.77814e-06
-2.28543e-06
7.18977e-06
-7.52994e-06
6.54994e-06
-1.35955e-05
5.38491e-07
-2.64162e-07
1.7009e-06
-5.93972e-10
1.38877e-08
-5.36561e-10
-1.51569e-08
7.27923e-09
-6.78792e-10
-8.04244e-09
-1.25984e-09
1.60525e-08
-2.51667e-08
2.3675e-08
-6.85589e-10
4.86405e-09
-4.71125e-08
5.52557e-09
-1.64025e-09
2.78582e-08
-3.95609e-09
-3.17906e-07
9.40372e-09
5.44593e-07
-6.41783e-07
7.76533e-07
6.57767e-08
1.07361e-07
-1.19934e-06
5.32745e-07
-3.82484e-07
-1.19639e-08
-1.74742e-07
1.35598e-06
-6.02845e-07
1.29274e-06
-6.64637e-07
2.56354e-10
2.35714e-10
-1.96215e-10
-1.73222e-10
3.87773e-11
-1.7582e-10
3.67992e-10
5.1255e-11
2.04037e-10
-1.8391e-10
-5.68911e-11
1.16085e-10
-6.78342e-11
-2.98787e-10
3.57212e-10
-6.14304e-10
3.38061e-10
-3.48325e-08
-1.43204e-09
3.42788e-08
3.28365e-10
3.3709e-08
6.34266e-08
-1.38311e-07
-5.72383e-09
3.54721e-08
1.80774e-07
-1.78823e-07
7.09964e-09
-6.40075e-08
2.90867e-07
7.46171e-08
-2.02111e-07
4.33129e-08
1.52977e-07
-1.79698e-05
1.8323e-05
-5.73734e-07
-1.45559e-05
1.46524e-05
6.00701e-08
1.09331e-05
-4.34566e-05
-1.7458e-05
-1.05928e-05
4.29425e-05
-1.77462e-05
2.04123e-07
-1.50641e-05
2.28008e-05
-2.20295e-05
-4.71095e-10
3.06835e-11
5.47444e-10
-1.13995e-10
4.03377e-10
5.00688e-10
-1.38191e-09
4.26016e-11
3.80141e-10
7.2996e-10
-5.14483e-10
2.52953e-10
-2.37082e-10
1.52698e-09
5.27864e-10
-4.36498e-10
8.33559e-10
7.24151e-08
1.84917e-08
-7.75818e-08
-3.16425e-08
-7.45808e-08
-4.35389e-08
1.65456e-07
-9.63569e-08
1.74963e-08
1.23174e-07
4.53357e-08
-2.52048e-07
1.14345e-07
3.27887e-08
-7.71791e-08
1.65999e-07
-1.25189e-07
1.70467e-10
3.10296e-10
8.50343e-10
-1.47389e-09
3.76612e-10
7.22403e-10
-9.41877e-10
2.23861e-10
3.44946e-10
-2.86937e-11
-8.30386e-10
1.01356e-09
-9.42184e-10
1.17877e-09
-4.51949e-10
5.1234e-10
-7.85175e-10
-3.81437e-06
2.60257e-07
3.73354e-06
-2.62933e-07
3.27938e-06
2.57377e-06
-9.69163e-06
3.36055e-06
1.56795e-07
-6.4289e-06
-5.34751e-06
1.54442e-05
-6.16751e-06
-6.21916e-07
2.91006e-06
-6.48084e-06
1.05423e-06
-1.04532e-07
8.72322e-06
-8.32312e-06
7.27201e-06
-6.85815e-06
-4.60869e-07
1.71289e-05
5.0114e-06
-2.29055e-05
-8.22755e-06
7.8066e-06
-3.31173e-07
-7.05615e-06
7.72642e-08
-4.35468e-06
-2.56412e-06
1.74144e-05
-4.56447e-06
-1.2498e-07
1.62193e-05
1.07477e-05
-3.35732e-05
1.74257e-05
-6.52497e-07
-6.8214e-06
2.18185e-05
-1.96759e-07
1.57477e-06
-8.41837e-08
-1.18791e-06
-8.05509e-06
-9.71168e-07
1.22457e-06
-1.6318e-07
-2.23678e-06
1.53948e-05
-7.04766e-07
-9.93226e-07
-7.68234e-07
1.31855e-06
-3.73566e-08
-2.24404e-06
2.3498e-07
1.52923e-06
-4.07195e-06
2.77881e-06
-1.59094e-16
-1.20093e-15
2.64155e-16
6.09292e-17
5.32887e-17
1.31794e-16
-2.48656e-16
3.08841e-15
-8.38873e-15
-3.19679e-17
-1.41908e-15
6.42395e-16
-9.72412e-17
1.09357e-17
4.02947e-18
-2.18082e-18
-4.71728e-16
-6.7667e-14
5.37385e-12
-5.72946e-12
1.85015e-13
4.95591e-12
-1.11562e-11
9.12587e-13
-9.65077e-12
2.14397e-11
6.45273e-12
8.1792e-12
-2.01448e-11
9.79652e-12
-9.05634e-13
3.02746e-12
-5.8611e-12
4.09086e-12
8.50829e-13
-4.50345e-14
-9.72302e-13
1.69141e-13
-3.89634e-13
-1.66019e-13
1.42513e-12
-2.89733e-13
-1.52047e-13
1.91925e-12
3.41118e-13
-3.1813e-12
1.12135e-12
9.68433e-13
-5.6622e-13
1.62367e-12
-5.02407e-13
-1.01565e-13
-7.30365e-14
-1.02338e-13
2.68339e-13
3.35738e-14
-2.42667e-14
-1.2666e-13
-2.00939e-13
-8.60805e-14
9.70363e-14
-3.36969e-14
1.51931e-13
-3.64185e-13
1.33813e-13
-1.73832e-13
1.31151e-13
-1.05053e-09
-3.82582e-09
-2.08557e-10
4.72204e-09
-2.0323e-09
-4.08068e-10
1.25049e-09
-4.52308e-09
-4.1901e-09
1.38052e-09
3.09185e-10
-2.19169e-09
5.09356e-10
2.25388e-09
2.21392e-09
-5.65857e-09
2.78389e-09
4.79094e-10
2.89558e-09
-5.73604e-10
-2.80636e-09
2.3193e-09
3.33601e-10
-2.18387e-09
-3.88731e-10
5.59766e-09
-3.08969e-09
9.73213e-10
2.44397e-09
-3.91918e-10
-6.4501e-09
-1.79066e-09
2.37105e-09
-2.76016e-09
1.02813e-08
5.28435e-10
-5.79484e-09
2.27529e-09
-9.44752e-09
-5.41218e-09
2.20928e-08
-1.35236e-08
-1.46556e-10
1.26525e-08
5.47369e-09
-9.25557e-09
9.99009e-09
5.76278e-09
-1.1264e-08
1.61504e-08
-1.42662e-08
-5.45246e-09
3.89427e-09
1.00605e-08
-4.26637e-09
4.02434e-09
1.32552e-08
-2.11506e-08
3.45458e-09
6.92557e-09
2.0861e-09
-1.45944e-08
1.6641e-08
-6.14623e-09
1.89942e-08
2.05957e-09
-2.90402e-09
2.86845e-09
1.47436e-07
1.41467e-08
-1.04447e-07
-2.63189e-07
-6.77803e-07
-2.19883e-07
8.36829e-07
9.7521e-08
-9.50658e-07
-1.35567e-07
-1.596e-07
2.61381e-07
-2.99463e-07
-4.68599e-07
1.3458e-07
-7.29965e-07
-7.38115e-08
5.71078e-07
-9.97109e-07
7.84357e-07
-4.2957e-07
6.23431e-07
1.06391e-06
-2.18961e-06
6.15521e-07
1.49856e-06
-4.67926e-07
3.70876e-07
3.2665e-06
4.76075e-06
-8.2741e-06
2.23702e-06
5.01081e-06
-6.8154e-06
2.40486e-06
3.30145e-06
4.37731e-07
-5.62588e-06
7.60943e-06
-5.5049e-06
9.28759e-06
3.60932e-07
-9.03482e-07
-5.41803e-07
-2.3121e-07
-6.95908e-08
1.34142e-07
1.73626e-07
1.23764e-07
1.14928e-07
-4.43148e-07
-1.0239e-08
7.49082e-08
1.10323e-07
-1.2358e-07
2.53712e-09
-3.81507e-08
2.28598e-07
1.07966e-07
-1.02642e-07
2.07766e-07
-1.53849e-09
-1.84994e-09
-3.61254e-09
7.00766e-09
-8.64468e-10
-2.34369e-09
1.71013e-09
-2.05855e-09
-6.68494e-10
2.29959e-09
2.67528e-09
-6.21761e-09
4.17104e-09
-2.55493e-09
1.29173e-09
-7.87819e-10
1.84219e-09
4.81957e-08
-1.91214e-07
4.62715e-07
-3.23626e-07
-3.82518e-07
3.85053e-07
2.80781e-08
7.43746e-07
-1.24794e-06
-2.65392e-06
-6.98313e-07
4.01888e-06
-2.69749e-06
-1.2178e-07
-7.66157e-07
3.56273e-07
-2.99908e-06
-7.29195e-12
6.68292e-12
1.28968e-11
-8.33319e-12
8.70911e-12
1.75233e-11
-3.87096e-11
2.58875e-11
-2.97888e-12
-2.1906e-11
-1.13294e-11
6.10844e-11
-1.45695e-11
-8.3015e-13
-6.74369e-12
1.00234e-11
-8.7779e-12
-4.21924e-08
-5.61107e-08
-3.48612e-08
1.3496e-07
-2.43905e-10
-3.41715e-08
-5.98853e-09
-5.20261e-08
-1.53006e-09
1.39543e-07
2.98808e-08
-2.20276e-07
1.39967e-07
-1.53906e-09
4.70019e-08
-5.22829e-08
1.53198e-07
4.73102e-08
2.25721e-09
-5.18573e-08
-1.34146e-09
-6.2315e-08
-4.01961e-08
1.4562e-07
-8.79081e-08
2.33389e-08
4.04526e-08
8.30079e-08
-1.77411e-07
4.11615e-08
-4.18739e-09
-2.24275e-08
2.23777e-08
-2.7882e-08
-2.64272e-09
-2.64484e-09
-3.95115e-10
5.76419e-09
1.12774e-10
-1.72215e-09
-1.02057e-09
-3.4567e-09
9.29824e-10
8.01209e-09
1.61279e-09
-1.27961e-08
3.18615e-09
2.64101e-09
3.23419e-09
-3.27842e-09
5.92898e-09
7.58391e-09
-1.20204e-08
-3.2025e-09
9.03228e-09
-3.18742e-08
5.75603e-09
3.46919e-08
8.15634e-09
-4.82309e-08
1.16144e-08
-6.1492e-09
-1.2891e-09
-6.92572e-10
1.9459e-08
-8.65453e-09
1.25089e-08
-8.0737e-09
-5.75762e-06
2.5401e-07
5.17193e-06
-5.75052e-08
5.0123e-06
2.67083e-06
-1.362e-05
4.852e-06
2.61885e-07
-4.71589e-06
-6.50615e-06
1.66555e-05
-4.84636e-06
-2.17829e-07
3.15052e-06
-6.10523e-06
9.2894e-07
-2.1133e-08
8.08477e-06
-8.34901e-06
3.32826e-06
-3.46387e-06
-7.9605e-08
1.14209e-05
6.8139e-06
-2.92773e-05
-3.39362e-06
4.00536e-10
1.35661e-08
1.37262e-09
-3.03755e-08
2.57846e-09
-1.89003e-08
-6.80951e-10
-6.9856e-09
2.33823e-08
-2.83807e-08
1.92641e-08
5.47481e-09
1.44821e-08
-8.57541e-08
1.46314e-08
-2.03473e-08
2.76008e-08
-1.35491e-11
-6.60263e-11
5.97788e-12
2.226e-11
-5.07061e-11
5.7028e-11
-7.44656e-11
6.54608e-11
-2.68881e-10
2.35041e-11
-6.87053e-11
1.59081e-11
-3.16125e-11
4.19635e-11
-2.78836e-11
2.80533e-11
-8.42042e-11
-1.32676e-15
-8.18667e-15
8.37657e-16
3.49445e-15
-8.53959e-15
1.09134e-14
-8.96313e-15
1.1368e-14
-3.94205e-14
3.18659e-15
-9.78471e-15
3.39415e-15
-5.94136e-15
9.49416e-15
-4.44175e-15
6.58745e-15
-7.91491e-15
4.02168e-17
9.24131e-16
-1.30448e-15
-7.54196e-16
8.83301e-16
-2.02303e-15
4.19358e-17
-1.12837e-14
-1.81163e-14
6.30016e-16
-4.99523e-15
-1.16438e-14
-9.26949e-15
-3.38566e-14
-1.91943e-14
-1.23832e-14
-1.32962e-15
3.06217e-14
7.40654e-15
-1.35902e-14
-1.92946e-14
2.4444e-15
-2.89592e-14
3.14712e-14
-4.14358e-14
-2.23542e-14
-2.84758e-14
5.07381e-14
-5.52947e-14
-1.68132e-13
-1.23701e-13
-1.40284e-13
-1.129e-13
-9.89852e-14
-3.52729e-13
-1.23072e-05
-1.0048e-05
-1.03919e-05
3.27292e-05
-3.40743e-07
-1.29127e-05
9.45965e-07
-9.82971e-06
-5.38859e-07
9.56984e-06
7.56827e-06
-2.69622e-05
1.02596e-05
-1.23803e-06
5.46201e-06
-1.08048e-05
5.32173e-06
6.34109e-12
-5.72595e-13
-1.36406e-11
1.13302e-11
-1.58668e-11
-8.18899e-12
3.28508e-11
-3.05056e-13
-1.19974e-11
-9.80911e-12
8.62664e-12
-6.77413e-13
7.56077e-12
-3.14935e-11
-4.04557e-12
4.14111e-12
-9.38753e-12
5.21387e-15
1.74819e-14
-3.24562e-15
-1.55084e-14
1.41494e-14
-2.42922e-14
1.7777e-14
-1.44873e-14
4.8563e-14
-1.11506e-14
1.27431e-14
-4.28366e-15
1.74215e-14
-4.3571e-14
8.67668e-15
-1.41969e-14
7.56942e-15
1.57994e-11
4.8087e-11
-1.35084e-11
-5.77198e-11
1.09044e-11
3.93811e-12
-9.99427e-13
-3.54389e-12
5.96462e-11
-7.11945e-12
5.35908e-12
5.64496e-12
5.37875e-13
-9.05255e-12
-9.00609e-12
1.00846e-11
-2.34453e-11
-1.80658e-09
-1.54968e-09
-1.16322e-09
4.94491e-09
-1.1125e-10
-2.01393e-09
9.62561e-10
-6.4015e-10
-4.68519e-10
1.0522e-09
1.61989e-09
-2.91624e-09
1.01041e-09
-4.09353e-10
6.80028e-10
-3.29314e-10
5.08726e-10
-6.71356e-09
3.10293e-09
4.94736e-09
-6.61953e-09
8.34098e-09
-6.38364e-09
-1.18265e-08
9.49038e-11
1.16755e-08
-1.03206e-08
2.75947e-09
9.20962e-09
-1.89164e-10
-2.7812e-08
7.31205e-09
-1.5459e-08
1.13458e-08
4.644e-09
4.34033e-09
5.17881e-09
-1.80554e-08
-4.9668e-10
1.88256e-09
4.50265e-09
1.12589e-09
7.97256e-10
7.18159e-10
5.88046e-09
-4.42788e-09
3.40708e-11
1.21073e-09
-5.64815e-10
1.03009e-08
4.17331e-09
1.35682e-08
7.56957e-09
-3.62731e-10
-2.00544e-08
-5.05035e-09
3.99621e-09
1.51651e-08
9.02518e-09
-6.01259e-09
-8.0726e-09
-7.1787e-11
1.51174e-08
-4.31587e-09
-9.41092e-09
-7.80141e-09
1.09664e-08
-1.17097e-08
-3.97306e-07
3.57609e-07
1.08541e-06
-1.1248e-06
3.37202e-07
3.36038e-07
-1.16072e-06
1.61365e-07
4.57354e-07
2.26579e-07
-3.85312e-07
2.74705e-07
-1.30475e-06
2.00893e-06
6.22663e-08
-1.81607e-07
2.22246e-07
1.9263e-07
-5.6123e-08
-2.09858e-07
1.22281e-08
-1.77649e-06
-4.58802e-07
2.63295e-06
-1.73319e-06
5.37978e-07
2.27113e-07
5.01521e-07
-9.2745e-07
2.21831e-07
-1.90791e-08
-4.23378e-07
1.93651e-07
-1.71207e-06
-9.14056e-06
1.54898e-08
9.03732e-06
9.46288e-08
1.99458e-05
5.82402e-06
-3.49013e-05
1.99392e-05
5.4198e-08
-2.95273e-05
-2.8537e-05
7.80333e-05
-2.98165e-05
-1.4125e-06
-5.51779e-06
-1.39732e-05
-2.95513e-05
9.09005e-06
-1.63542e-07
-9.12859e-06
2.0861e-07
-1.62167e-05
-5.67216e-06
3.09878e-05
-1.57049e-05
-6.43775e-07
6.03277e-06
-3.27149e-05
1.75623e-05
-3.07493e-05
3.11189e-05
3.02262e-05
-7.8395e-05
-6.90404e-07
1.34767e-05
3.06157e-05
-8.00068e-05
-3.75767e-07
-2.09216e-07
-2.01736e-09
7.27607e-11
1.87977e-09
3.33414e-11
6.06126e-09
1.04699e-09
-9.10404e-09
9.75297e-09
-3.66018e-09
-6.93541e-10
-1.65425e-09
4.2036e-09
-5.8549e-10
-6.38727e-11
1.48502e-09
-1.01737e-09
9.53401e-09
-1.25775e-05
-1.26388e-05
-8.19025e-06
3.34173e-05
-6.83408e-08
-1.27813e-05
2.80087e-07
-1.25939e-05
-9.48055e-08
1.66228e-05
1.25706e-05
-4.17752e-05
1.67433e-05
-3.76849e-07
9.00624e-06
-9.20806e-06
1.7569e-05
1.51321e-05
1.82711e-05
6.41701e-06
-3.9396e-05
6.28354e-07
1.46773e-05
-8.61291e-08
1.77292e-05
1.19969e-06
-2.57596e-06
-5.29042e-06
2.51115e-05
-2.69619e-06
-4.5828e-08
5.82726e-06
-2.00293e-06
1.61283e-05
3.92067e-08
5.8012e-08
2.62809e-08
-1.24031e-07
-1.24849e-10
-9.62798e-10
4.62232e-08
5.46726e-08
6.80104e-09
3.71873e-08
-3.35497e-08
-3.51971e-09
-8.81278e-09
9.60028e-08
-4.14295e-08
8.86533e-08
-4.68095e-08
1.08465e-08
9.50566e-09
-4.3118e-09
-1.05167e-08
-4.00842e-09
-9.27082e-09
2.73127e-08
-8.25373e-09
1.63194e-08
-3.43677e-09
6.45267e-09
-5.40574e-09
8.21132e-09
-1.94371e-08
-1.28584e-09
1.07758e-09
-2.10364e-09
-2.97294e-06
-7.54514e-06
-1.98909e-06
1.23911e-05
1.07582e-07
-2.72148e-06
-3.35964e-07
-6.85824e-06
-5.90899e-07
-1.92814e-06
-1.09985e-05
1.0954e-05
-9.79395e-06
5.11027e-06
1.0415e-05
-2.73714e-05
-1.22303e-06
5.26128e-06
-4.07861e-07
-1.19551e-05
-1.39428e-06
2.38926e-12
-2.07217e-13
-4.32761e-12
4.76966e-13
-2.57659e-12
-4.49679e-12