/*--------------------------------*- C++ -*----------------------------------*\
| =========                 |                                                 |
| \\      /  F ield         | OpenFOAM: The Open Source CFD Toolbox           |
|  \\    /   O peration     | Version:  v2012                                 |
|   \\  /    A nd           | Website:  www.openfoam.com                      |
|    \\/     M anipulation  |                                                 |
\*---------------------------------------------------------------------------*/
FoamFile
{
    version     2.0;
    format      ascii;
    class       volScalarField;
    location    "0.3";
    object      p_rgh;
}
// * * * * * * * * * * * * * * * * * * * * * * * * * * * * * * * * * * * * * //

dimensions      [1 -1 -2 0 0 0 0];


internalField   nonuniform List<scalar> 
24700
(
2813.14
2793.43
2861.86
2779.49
2780.91
2870.8
2839.3
2824.39
2762.3
2760.71
2786.78
2789.2
2778.86
2810.34
2803.3
2798.16
2794.85
2842.71
2832.15
2791.98
2883.62
2877.99
2796.07
2793.32
2902.29
2836.5
2844.39
2815.45
2841.08
-6.40556
-10.3155
-2.93009
0.615035
-2.80539
6.27797
0.968066
2.21473
1.81808
1.95453
1.88148
2.37285
1.84333
2.74758
-0.271191
-0.198269
-0.14718
-0.324339
-0.292754
-0.234486
-0.200084
1.28315
1.19449
1.29881
1.18217
1.16196
1.23013
1.23223
0.472143
2.47726
0.394742
7.12047
13.742
1.49874
2.92316
-0.514965
-0.538671
-0.541672
-0.505732
-0.490178
-0.517219
-0.522683
-0.221705
-0.202613
-0.195472
-0.226461
-0.195841
-0.200194
-0.216341
1463.22
208.288
2703.33
1566.88
178.627
2068.72
2611.57
-0.0728456
-0.0559816
-0.104569
-0.0447303
-0.0266436
-0.031404
-0.0567597
-0.461582
-0.513146
-0.477973
-0.494532
-0.442198
-0.509093
-0.452625
-1.61352
-1.51383
-1.50546
-1.37562
-1.57862
-1.54725
-1.45439
0.144469
0.918474
2.6295
1.32496
-0.646022
5.00683
2.58585
21.8919
17.392
22.0104
11.9392
17.0172
19.528
13.9475
20.5832
5.982
14.1743
-0.405725
-1.05661
-0.335739
0.407061
0.693072
0.00913667
0.60843
1.86077
1.22967
-0.00119938
0.104764
0.445665
0.745154
0.64347
0.729315
0.539737
0.562058
0.650341
0.629621
-0.552393
-0.504581
-0.562041
-0.595217
-0.536243
-0.516728
-0.575713
-0.180208
-0.205907
-0.267406
-0.291195
-0.328284
-0.239291
-0.222574
3.29814
3.42931
3.2043
3.05864
3.12311
3.30858
3.18396
3.371
3.30066
3.34913
4.18527
3.57557
3.38608
3.50989
19.1669
16.0085
11.4762
17.5865
19.0509
25.9584
17.42
19.4112
18.3274
18.9047
14.7684
21.2466
14.7366
18.122
15.441
12.5349
12.5475
8.81139
9.25152
12.3823
14.2468
2.18687
2.18068
2.34023
2.39059
2.63298
2.31015
2.44844
0.531064
0.629144
0.607248
0.772611
0.72734
0.626029
0.696478
1800.13
1717.75
1980.19
1724.14
1888.98
1901.66
1868.76
-0.632382
-0.633661
-0.61197
-0.66096
-0.647286
-0.641857
-0.643822
-0.991175
-1.47206
-1.03077
-1.4311
-1.55589
-0.920371
-0.889155
0.0950115
0.334369
0.249559
0.611671
0.395181
0.51949
0.165024
3.23556
4.82567
3.87319
3.13091
3.07712
3.85506
3.43003
925.387
881.786
901.9
987.192
944.837
944.34
969.78
1019.46
1046.03
1034.94
1012.77
937.637
1001.32
186.434
187.93
220.716
32.4206
193.864
144.281
17.8531
23.123
13.3776
11.8544
10.8608
13.2551
12.4077
8.72155
8.43935
9.93829
9.93342
10.0265
9.10252
8.54244
8.30152
8.39618
8.36442
8.37741
8.39295
8.37847
8.26059
7.55083
7.48884
7.67731
7.47697
7.37906
7.43231
7.56313
7.0486
7.1141
7.10147
6.79701
7.14172
7.11463
6.88037
6.38253
6.29387
6.41069
6.105
6.00803
6.13535
6.22278
4.89817
4.97053
4.85527
5.05368
5.00324
4.90124
4.96967
2.14516
2.1037
2.38623
11.8057
6.32468
4.06564
5.10782
-1.58168
-1.55513
-1.56953
-1.55779
-1.60925
-1.52169
-1.60737
-0.590622
-0.574362
-0.606147
-0.653305
-0.607604
-0.60803
-0.594367
-0.981327
-1.10278
-1.07703
-1.14848
-1.02614
-1.11567
-0.999577
-1.05675
1.22848
1.58805
-1.2347
-1.49131
-0.395659
-0.0867916
4.08377
2.89525
3.19133
2.528
2.93512
2.96151
3.52453
3.69007
3.46198
3.01526
3.02208
2.9426
3.08814
3.25242
2.87414
2.54884
2.52019
2.40422
2.75008
2.5776
3.27909
2.11116
2.26995
1.95096
2.32747
2.42884
2.17758
2.24589
1.42957
1.31481
1.43308
1.16924
1.18985
1.28983
1.2813
0.643718
0.742812
0.717346
0.560662
0.538049
0.647786
0.627387
0.0478296
0.0241536
0.0190326
0.0669437
0.0896005
0.0569785
0.045248
-0.476863
-0.512758
-0.460368
-0.442046
-0.49248
-0.507538
-0.451951
-0.438052
-0.461815
-0.470144
-0.416402
-0.416298
-0.435871
-0.445359
2137.77
1960.36
1656.72
2137.86
2148.64
2105.24
1945.86
-5.32282
-5.18877
-6.3195
-6.40158
-7.18051
-5.18619
-5.31907
-3.2338
-3.10956
-4.18166
-2.63786
-2.86317
-3.359
-2.6082
1255.68
1042.39
1140.67
1367.53
1190.31
1210.66
1257.01
766.545
984.798
962.635
865.014
944.887
871.69
815.162
841.668
812.578
847.731
828.228
826.097
807.115
844.232
828.22
765.663
1054.39
1090.41
786.959
784.402
748.058
820.772
806.055
829.521
229.931
72.374
215.433
57.9154
120.904
66.3003
138.248
5.71828
5.78682
5.8173
5.65304
5.63992
5.70213
5.71519
4.14199
4.21887
4.16072
4.0816
4.11633
4.16824
4.11901
3.85978
3.96065
3.88488
3.79486
3.85565
3.91263
3.84217
-1.98823
-1.88623
-1.94393
-2.09378
-2.02178
-1.95219
-2.01351
-0.322555
-0.569918
-0.523666
-0.725352
1.82625
-0.728769
0.368961
-1.24169
-1.20264
-1.27908
-1.29759
-1.17758
-1.18706
-1.2905
-6.94708
-7.75403
-6.98732
-6.7605
-6.17393
-7.4224
-6.77885
147.241
41.8301
151.187
259.633
184.472
85.6598
56.9301
3.99514
4.43725
4.22364
5.27429
5.5184
4.94072
4.7552
-0.0207678
-0.0212229
-0.0275303
-0.0373284
-0.0314973
-0.0282288
-0.0259716
-0.0624061
-0.0653709
-0.0695464
-0.0826195
-0.0724602
-0.0745624
-0.0680465
-0.543499
-0.588961
-0.561639
-0.5157
-0.516086
-0.541954
-0.531732
-3.30507
-3.49661
-3.13146
-3.84595
-3.2212
-3.61134
-3.33675
6.11869
18.3779
4.58044
16.135
9.02243
39.8551
3.11193
35.1352
30.978
34.3414
59.0665
134.167
43.7684
35.5952
1303.45
1223.91
1187.96
1251.45
1207.69
1265.94
1286.3
1108.16
1147.39
1102.65
1070.5
1102.01
1141.74
1085.79
8.63517
8.21385
8.41249
8.50041
8.37569
8.08294
7.89047
14.4574
5.53401
10.0444
12.2399
13.5377
8.09041
9.84786
5.21591
5.18013
5.24205
5.23054
5.06659
5.10253
5.22354
5.14062
6.54926
5.2995
17.3367
11.7725
9.32316
6.24161
937.771
958.019
969.232
878.912
854.826
932.653
955.27
-1.13543
-1.22625
-1.18208
-1.17532
-1.02519
-1.18643
-1.08501
5.51999
5.57963
6.03791
8.2781
9.70307
8.74942
2.91411
-2.20763
-2.33609
-2.13792
-2.09017
-1.99794
-2.01121
-2.07531
264.314
304.973
277.027
171.427
210.961
365.847
229.826
443.606
388.493
318.371
350.509
406.215
14.9668
-142.751
46.5469
292.385
209.002
135.359
255.141
-79.7034
115.561
-33.815
39.5655
213.552
28.1302
-36.4091
-37.5582
30.8706
65.866
-0.0793889
-0.0888191
-0.0846359
-0.0740065
-0.0749949
-0.082349
-0.0804206
-0.219288
-0.204011
-0.224969
-0.208305
-0.231974
-0.195179
-0.226824
-0.294479
-0.32648
-0.289308
-0.281209
-0.276808
-0.304747
-0.284789
-0.339408
-0.299006
-0.290537
-0.300706
-0.285011
-0.291247
-0.326558
-0.76673
-1.08385
1.04457
-1.18584
-1.21994
0.62832
-0.564836
-1.50386
-1.42729
-1.62492
-1.29208
-1.16053
-1.4108
-1.4401
-5.5348
-5.06041
-4.80929
-5.64111
-5.49783
-4.8524
-4.98793
-5.22613
-5.33068
-5.44416
-5.38167
-5.48585
-4.78227
-5.4898
-6.92117
-24.5701
26.8838
15.3286
54.089
188.537
37.5968
263.704
241.407
215.244
239.537
229.674
903.281
888.163
921.739
979.059
939.813
949.578
971.956
24.381
25.3409
22.9276
15.435
23.993
16.0413
23.8049
8.05316
7.88309
7.849
7.61963
7.80498
7.57234
7.93906
5.17333
9.59965
3.13665
11.2564
27.0214
7.95598
6.72139
4.70192
4.66684
4.69141
4.66802
4.71272
4.65174
4.70071
5.21248
5.53057
5.69588
6.85574
8.62709
5.71348
6.54868
3.0362
3.9734
6.62433
5.05508
2.86265
2.53417
4.53162
-1.18871
-1.34458
-1.33454
-1.08632
-0.925529
-1.28904
-1.16124
-3.32708
-1.76098
0.82487
-3.48568
-3.06631
-3.50766
-4.52916
397.549
400.373
381.368
273.303
83.9462
267.5
232.004
384.949
87.7851
197.366
254.678
160.242
-4.25405
-5.12173
-3.56792
-3.6343
-1.0201
-5.43009
-3.40656
-1.49408
-1.68115
-1.56466
-1.29766
-1.38481
-1.55168
-1.42859
-0.467663
-0.56567
-0.468922
-0.396511
-0.459116
-0.518207
-0.43046
-0.016958
-0.010286
-0.00435409
-0.0204171
-0.0136137
-0.0159035
-0.0128808
-0.0278769
-0.0273575
-0.0241755
-0.00634885
-0.0167709
-0.0311582
-0.00350073
-0.0286992
-0.0224783
2536.84
2595.78
2526.65
2609.18
2533.98
2607.11
2540.95
-0.128742
-0.0984867
-0.077707
-0.0875308
-0.0688142
-0.102065
-0.0888471
-0.137162
-0.140219
-0.165999
-0.119126
-0.118506
-0.126384
-0.137198
-0.538669
-0.525124
-0.659297
-0.474257
-0.475317
-0.563802
-0.495554
-0.815149
-0.0411763
-0.904981
-0.931698
0.0128892
-0.0849607
-0.727748
-2.75107
-2.4817
-2.77439
-4.95007
-3.26057
-3.77924
-3.59049
-5.08824
-6.17904
-6.2256
-5.68416
-6.16683
-4.59915
-5.72254
-4.5402
-3.88876
-4.2322
-4.65027
-4.45008
-4.32651
-4.76693
81.7166
39.2347
43.488
46.2567
42.9684
41.9394
100.779
12.2802
14.2204
21.4248
9.57153
8.28339
8.14356
14.8978
-20.0244
-124.427
-72.7501
161.571
100.137
-10.0315
-48.0382
65.4246
21.5277
-29.9974
27.2099
22.7067
179.626
9.11861
269.42
0.19408
-57.2513
4.84284
4.89294
5.04045
4.84542
4.75205
4.77212
4.897
361.748
381.449
382.418
401.246
368.655
389.176
373.54
506.855
538.413
531.824
262.934
16.2685
77.0698
278.678
2.45939
3.55004
3.9265
1.88734
2.2087
2.44975
3.20258
-7.54702
-7.7639
-7.76401
-9.01002
-7.95032
-9.22202
-9.56979
273.227
379.718
354.782
415.069
442.634
351.639
430.081
361.568
182.271
299.33
-1.1489
-1.20429
-1.28354
-1.44828
-1.3626
-1.33812
-1.27156
-0.0859557
-0.0833747
-0.0642478
-0.0421931
-0.109018
-0.0567329
-0.108215
-0.0844889
-0.0707811
-0.0236036
-0.0206135
-0.0486979
-0.106102
-0.123192
-0.0826406
-0.047879
-0.143805
-0.0453796
0.0047185
-0.0321337
-0.00309985
-0.00553179
-0.0132891
-0.0121103
-0.000384542
-0.00297333
0.0321006
-0.0046665
-0.0431409
-0.00763956
-0.00440058
-0.0264798
-0.00567164
0.00577123
-0.00144661
-0.0139071
-0.00905322
3.30186
7.64026
1.50789
1.69315
1.45056
3.09804
1.33222
-2.24097
6.68327
-2.43607
-1.3847
-0.293329
0.382519
-2.9137
28.768
41.8832
27.8514
35.8748
18.6531
31.8505
23.0547
17.1393
21.6979
16.5159
29.0241
43.1484
36.3045
11.5862
14.9877
25.2275
25.9411
18.092
21.9441
23.0066
30.587
5.01467
5.18333
5.16152
5.22823
5.15414
5.25565
5.01256
5.30158
5.18092
5.18699
5.05069
5.17842
5.08015
5.21614
106.883
150.299
317.58
59.0988
52.1941
89.5021
108.497
11.7332
3.3921
114.857
74.9521
155.807
3.27027
26.6833
34.1844
1.09602
1.09693
1.09895
1.11667
1.12071
1.10764
1.10965
0.945281
0.907828
0.935719
0.994749
0.889169
0.849627
0.925966
0.0263905
0.0308874
0.259344
-0.277102
-0.0597254
-0.148364
0.142992
0.759766
-3.41077
-2.79799
-2.34283
-1.53952
-3.60595
0.461906
-1.02199
-2.94835
-1.40516
0.301252
-1.17652
-1.44013
-2.66416
-8.41222
-8.53049
-9.17766
-8.62387
-9.52842
-8.46571
-9.10382
-4.86638
-3.40473
-3.66394
-3.32995
-3.78294
-3.03571
-4.44262
1.58781
0.735179
5.40697
-0.497402
5.16266
-0.656663
8.79655
7.02728
1.83003
6.19431
1.84024
2.25849
0.174206
6.14178
-2.06575
-2.41493
-2.33304
-1.74689
-1.90526
-2.59975
-1.76407
-7.61191
-8.12642
-9.50589
-9.03129
-7.9094
-9.42665
-9.58028
-1.01938
-1.66232
-2.1539
-2.58344
-2.91791
-2.03431
-0.0159335
-0.264339
-0.266047
-0.254402
-0.289673
-0.279266
-0.267693
-0.271828
0.475096
2.11467
3.48154
0.304574
-0.0669367
0.385164
1.16765
-0.00304338
-0.00411156
-0.00674124
-0.00427981
-0.00354002
-0.00565009
-0.000612254
-0.00213295
0.000643546
-0.00263494
0.0201305
0.0221786
0.0167312
0.0259668
0.0236789
0.0204413
0.0215003
3.76113
7.0487
2.56909
7.06441
7.00578
7.29972
2.89047
67.9155
35.0883
71.1754
73.6587
74.013
40.6236
48.5334
111.101
44.3848
43.1664
59.4421
64.22
67.4809
102.831
-1.19444
-2.25342
-0.948758
-0.302326
-1.62508
-2.21316
0.0577972
1.20909
1.18151
1.1984
1.23335
1.2239
1.19836
1.1917
1.24055
1.2146
1.20723
1.22401
1.20538
1.23139
1.17473
1.19909
1.25054
1.22773
1.29687
1.27981
1.23
1.16581
1.00749
3.74051
0.925668
-1.58668
2.17741
-2.54063
0.961991
-5.09977
-5.12601
-4.9487
-3.83269
-4.30901
-5.5712
-5.05418
0.781139
4.18909
-0.184505
-0.116522
-0.153394
2.32796
0.14263
-0.0580863
-0.0656365
-0.0861453
-0.0785891
-0.0664642
-0.0711186
-0.0728979
0.00285583
0.00169958
0.000828439
0.00488261
0.00388673
0.00350097
0.00509799
0.0596149
0.0765808
0.0853026
0.041776
0.0481199
0.0490766
0.0639704
3.48908
4.1535
4.2394
1.7306
2.67299
1.93153
1.46175
89.7814
172.231
153.995
109.122
35.9948
78.6198
127.543
-3.53906
-3.5836
-3.757
-4.60291
-4.25155
-4.23364
-4.59794
-3.06467
-3.47308
-3.26214
-4.00265
-3.60396
-3.68647
-3.42015
0.451931
0.70813
0.504497
0.220091
-0.0103201
0.341124
0.0744264
3.37264
3.61984
3.51566
3.22365
3.32301
3.50683
3.30501
4.24094
4.1327
4.08398
3.9896
4.01378
3.99225
4.14198
4.09627
4.12225
4.08381
3.84364
4.02136
3.97404
3.97491
4.61572
4.6982
4.56127
4.53889
4.61811
4.62056
4.46493
4.94306
4.73273
4.85073
4.89749
4.79359
4.74682
4.83636
1139.75
823.691
918.054
1286.64
458.666
1229.26
490.855
672.166
1469.12
1457.09
1588.24
1181.11
275.183
305.913
415.319
158.622
1261.97
1454.84
1.85059
1.67364
1.95795
1.41589
1.40904
2.08959
1.64025
1.49611
1.42856
1.41085
1.51902
1.52157
1.47781
1.47454
1.62356
1.58941
1.67427
1.66053
1.66566
1.56816
1.66954
1.67908
1.50147
1.47608
1.67729
1.63417
1.45842
1.50178
-0.552465
-0.128853
-0.294004
-0.0803886
-0.132462
0.117574
-0.379897
570.631
504.439
552.477
252.144
530.208
553.072
160.742
611.154
597.997
265.422
-6.96837
-6.07032
-6.70168
-7.06479
-6.35606
-6.09707
-6.84377
2138.89
2146.73
2133.38
1444.55
1924.63
2077.95
1869.46
3.78728
9.54861
0.930521
2.07666
0.860762
11.7501
5.50584
-0.275544
-0.304812
-0.258198
-0.261606
-0.260149
-0.282085
-0.222379
-0.106292
-0.0815442
-0.0753059
-0.0676667
-0.062685
-0.0751837
-0.0871959
-0.0275208
-0.00336326
-0.00610471
-0.00125136
0.00842708
-0.00886463
-0.0135867
0.0008837
0.00366561
0.00375684
0.019948
0.00753253
0.00101245
0.0206056
0.0108895
0.0178236
0.0603635
0.0390628
0.033589
0.0160875
0.0303742
0.0286707
0.0491937
0.00529425
0.0190856
0.0243712
0.0273815
0.0457889
0.051181
0.0976554
0.0411101
0.0318291
0.00851112
0.0225078
0.0653262
0.00604301
19.752
18.2279
17.936
19.5013
19.7202
9.86871
19.8051
11.2858
6.32843
15.8231
16.2761
15.7987
15.2203
15.7996
27.3898
12.6483
17.641
19.9368
16.7637
4.2999
26.6351
21.6023
13.1543
132.639
65.6702
156.896
4.62145
4.6968
3.20189
4.63747
5.59749
0.100901
2.1965
-4.94323
-5.203
-4.80008
-4.32958
-4.3654
-4.11847
-4.52937
4.16062
4.21708
4.14167
4.11914
4.08074
4.16813
4.11871
7.7526
4.95613
5.20906
7.56867
6.18804
5.3939
5.72879
-243.087
-23.7821
-145.026
33.0062
-39.618
16.129
2.3171
2.35227
2.32022
2.45245
2.2363
2.50495
2.3861
9.08477
14.18
15.0309
11.7772
7.66435
10.6616
6.56748
609.715
579.101
388.821
579.341
570.904
95.3433
594.85
582.868
263.59
570.904
-0.894793
-0.891523
-0.767725
-0.851517
-1.25071
-1.50577
-0.601258
-1.94239
-1.88367
-1.98538
-2.01998
-2.0956
-1.95152
-2.01493
-0.511517
-0.421889
-0.480809
-0.62999
-0.218248
-0.550114
-0.00251633
1921.12
1860.49
1683.01
1891.69
1919.95
1824.56
1897.2
-0.452507
-0.501994
-0.442317
-0.428109
-0.446743
-0.460109
-0.428386
-0.289788
-0.278389
-0.287026
-0.325193
-0.280983
-0.274509
-0.304351
-0.398613
-0.431784
-0.383284
-0.394602
-0.385681
-0.422572
-0.387382
-0.135019
-0.120823
-0.114661
-0.165011
-0.140634
-0.126947
-0.137772
-0.115844
-0.0838045
-0.0765325
-0.0620598
-0.0568332
-0.076585
-0.0898155
0.096141
0.0917617
0.113546
0.1072
0.0846345
0.0916881
0.133672
14.6375
15.0966
15.2996
15.9558
15.5576
15.2978
15.5398
14.8531
15.3663
9.48798
12.5979
8.13809
12.7442
6.35674
41.9655
44.0092
52.9884
28.4773
43.856
43.9578
34.085
34.2743
17.73
37.8142
7.57244
36.1948
14.1803
40.434
46.1529
39.876
71.8815
23.2452
20.2222
52.5784
64.5033
38.7472
22.2182
27.4772
8.22477
17.9651
10.5222
10.5189
12.193
18.8516
8.08629
-6.0514
-2.25184
-4.3768
-6.99621
-6.60509
-6.81139
-6.51633
-6.01266
-7.51871
-6.17228
-6.35407
-7.13452
-7.51845
-7.24817
-5.12639
-5.08322
-5.24284
-5.36234
-5.2703
-5.39965
-5.63745
-7.14342
-7.1841
-6.67906
-7.59274
-8.08235
-7.70313
-7.2524
-0.501891
-0.0348972
-0.140438
-0.147704
-0.71477
-0.311615
-1.36234
5.10582
6.09173
4.97604
11.3926
16.585
10.1758
6.4148
457.657
449.344
461.078
15.7328
232.32
66.5736
301.251
55.2497
80.8509
69.264
76.2288
60.4989
37.5768
89.9361
124.645
188.905
96.7429
85.5194
85.6886
99.2992
-58.708
85.1379
81.7254
3.78736
40.8502
56.8274
-40.8214
53.221
109.243
87.0375
23.5151
175.313
144.666
12.692
5.90268
6.16729
4.87966
5.41518
4.81166
4.48845
2.12783
1.98399
2.10681
2.26531
2.13016
2.02757
2.16686
23.6505
23.4269
18.6811
19.5468
24.0484
15.1912
12.6434
752.563
772.884
796.238
791.542
737.095
792.12
753.591
12.8978
34.8931
24.6236
20.4083
14.3343
27.3893
11.8661
7.59833
14.1636
13.7697
7.80213
10.988
7.45005
6.81768
-1.19885
-0.827201
-0.804913
-0.544193
-0.601321
-0.65963
-0.896336
-1.81309
-1.6583
-1.76832
-1.62569
-1.8945
-1.614
-1.81877
-0.676428
-1.02519
-0.971613
-0.76889
-0.679191
-1.07101
-0.6264
48.7375
32.5773
33.6606
287.03
514.326
86.2181
340.03
-0.536928
-0.526702
-0.538871
-0.577351
-0.533462
-0.53003
-0.551956
0.126885
0.107828
0.131936
0.147585
0.130335
0.126074
0.14513
2.35678
1.54357
1.18748
0.981073
1.05246
1.21637
1.45083
10.1765
15.2653
4.95974
43.6981
23.6257
-0.976146
-1.90948
-1.44645
-1.27459
-1.34608
-2.16054
-0.661771
-0.543939
-0.439886
-0.152764
-1.5471
-1.42953
-1.40991
-1.21817
1.07266
1.05631
1.03503
1.06982
1.09299
1.07962
1.05069
1.09377
1.1535
1.14675
1.14845
1.07473
1.13554
1.07585
124.778
124.999
26.7687
271.854
263.32
249.422
311.668
192.978
220.463
260.404
115.73
165.132
157.928
148.896
145.6
167.413
168.441
266.774
339.443
253.127
135.972
181.349
139.319
715.251
939.147
895.379
859.606
934.888
762.605
910.886
919.559
714.954
913.677
799.344
893.57
716.728
896.161
878.986
818.651
997.634
756.087
1033.35
1048.79
991.04
940.174
777.042
2091.69
2383.48
1867.88
2271.76
1740.29
1932.88
1947.02
1930.63
2356.56
2067.73
2461.41
2143.05
1362.25
1050.21
2090.39
1388.65
1351.3
1160.13
1904.57
2169.91
1570.35
1651.89
1473.8
1482.51
6.04614
4.84266
5.37723
3.57165
3.79523
3.95236
4.74257
4.84102
4.74292
4.08384
3.97013
4.70701
5.20406
4.01604
3.0738
2.02001
3.22833
2.9653
2.85259
2.10406
2.64221
1.4904
1.46127
1.53881
1.50456
1.52524
1.45202
1.48023
1.53312
1.53089
1.52059
1.46218
1.46516
1.47924
1.48036
0.997615
0.959227
0.955922
0.863234
0.868162
0.869272
0.914197
-0.458749
-0.38851
-0.461493
-0.302882
-0.437818
-0.335897
-0.468768
-0.776454
-0.789758
-0.778119
-0.799601
-0.744169
-0.801206
-0.752826
1.01211
0.881713
1.1467
1.19856
1.32597
1.04019
1.32117
11.2428
19.5101
6.15973
34.024
7.91253
40.1341
11.8213
12.0324
18.1135
38.8566
42.2849
37.0359
31.6376
37.0992
42.2759
44.8658
41.5524
19.8025
24.0375
26.3658
0.033933
-0.218253
0.306068
-0.241203
-0.0504952
0.00674921
0.0123944
1.4526
1.4407
1.63809
1.3606
1.37854
1.4006
1.51024
921.183
962.742
890.286
970.557
956.181
945.164
964.382
1.15509
1.17492
1.16425
1.20256
1.20275
1.18788
1.18395
1.08812
1.11168
1.10042
1.11328
1.08795
1.11249
1.08865
1.1622
1.17402
1.17392
1.13092
1.11902
1.14822
1.15245
94.5557
-31.5859
108.178
159.21
81.8896
85.0284
152.242
115.607
184.684
100.161
92.7174
-36.0608
-150.313
41.0597
-134.403
37.0206
13.8291
3.88735
3.78804
3.48009
4.98067
6.11318
4.21578
6.17059
5.60847
3.78757
4.74623
3.6146
5.2274
3.65669
6.19932
676.283
523.863
686.104
540.605
480.454
590.612
544.394
285.724
283.833
360.653
729.224
761.014
679.175
846.016
900.557
866.806
295.111
248.471
557.021
495.44
498.003
1083.48
901.598
1005.78
17.6869
9.92364
13.8979
26.5239
12.5776
10.6373
16.9471
213.615
-89.938
150.103
40.1981
-78.3976
56.6201
46.9375
-70.5831
22.1519
82.1612
165.734
53.9052
46.6355
161.251
95.879
31.5744
-7.7721
63.3287
70.0836
97.4349
1.78363
4.34389
3.53668
3.21709
3.72503
4.01911
3.34723
3.35252
2.22646
2.20886
2.36834
2.20852
2.09452
2.09901
2.31286
1.56254
1.47851
1.52746
1.48383
1.433
1.52431
1.53742
1.21077
1.24211
1.23009
1.2764
1.27402
1.23257
1.23333
0.831363
0.826175
0.84964
0.849557
0.905084
0.863587
0.873956
0.749949
0.618535
0.792513
0.532085
0.600861
0.624331
0.68787
-1.16792
-1.09081
-1.13884
-0.842366
-1.0201
-1.03379
-1.07362
-0.949251
-1.19734
-0.838334
0.136448
-0.784826
-1.08204
-0.225926
1.31222
0.980315
1.03569
1.23573
1.46369
1.2695
2.74077
5.82339
6.12404
5.86745
7.28813
9.50665
7.99011
9.42394
3.87245
3.68909
4.52992
4.05077
4.20263
4.08762
6.14542
8.75418
5.13811
6.15148
9.50962
7.14383
6.33442
6.60874
-4.93795
-4.2724
-5.11879
24.9285
6.6951
17.4333
31.4316
1.15752
17.7574
-1.88468
-5.62111
13.6519
20.3427
26.6935
6.70726
18.2421
-6.83068
10.2216
16.8847
-9.04877
29.2046
22.0745
-2.13712
17.6593
15.3386
2852.77
2838.83
2848.04
2853.28
2843.07
2830.16
2779.67
2832.24
2855.48
-0.17667
0.190728
-0.218286
55.6751
17.0634
0.53887
-0.259219
2.63292
-0.147385
-0.0744768
0.163876
0.78385
2808.58
2871.44
2835.8
2805.18
2804.51
2806.23
2809.41
2804.64
2794.12
2807.18
2786.47
2787.58
2795.96
2799.74
2802.24
2805.45
2837.67
2805.1
2815.15
2791.09
2802.39
2804.31
2802.87
2804.38
2805.26
2808.23
2804.06
2806.01
2803.95
2799.29
2794.95
2789.55
2782.27
2774.38
2801.17
2809.64
2797.94
2828.56
2793.25
2770.22
2797.11
1778.79
744.553
2832.49
2897.21
2865.05
2719.75
2720.99
6.62536
5.95595
4.83259
3.27718
3.93357
4.86874
3.7811
3.72866
3.40908
2168.85
2394.47
2300.29
2192.56
2295.08
2372.46
2450.82
2421.83
2284.1
2207.34
2421.04
2285.75
2352.36
2436.35
2069.26
5.14579
12.567
5.90082
0.0273998
1.72235
2.58647
-0.0931514
-0.275914
-0.223696
0.974827
1.64259
0.927205
-3.13326
-2.01061
-2.16309
-2.88281
-0.246032
-0.319744
-0.210415
-0.483344
-0.452324
-0.474978
1.53005
0.524512
1.33389
1.82677
3.46642
2.14695
-0.133809
-0.10479
-0.271024
-0.251882
1.89939
2.31712
1.64256
-0.457328
-0.394305
-0.53035
-0.593545
1.35931
1.2614
1.35623
1.24811
1.17785
1.29108
0.843729
1.30236
1.21252
1.19029
1.2023
1.19211
1.20511
1.20928
1.19636
1.20425
1.22401
1.18007
1.16975
1.79294
0.746851
1.30489
1.31872
1.36522
1.44957
1.89001
1.21122
1.30114
1.4312
1.5786
1.4766
1.48983
1.19612
1.17243
1.21195
1.25477
1.20663
1.21409
-2.76943
-3.43165
-2.66286
-2.67172
-4.0692
-4.21352
-3.28324
-4.4835
-0.278
-0.293211
-0.279598
-0.301043
151.642
127.895
176.811
173.383
0.0869259
0.109819
0.1117
-2.09163
-2.46543
-1.67867
-2.40723
9.88439
9.69583
8.12863
10.8633
5.07608
5.12533
5.07572
5.18301
4.60521
6.97996
2.90556
16.0863
11.6405
3.27095
2.21687
2.599
1.69798
450.486
212.86
285.508
458.788
4.81249
6.96801
0.122513
-0.174764
-0.0458267
0.303975
3291.28
2818.21
2558.01
2189.28
28.6694
49.1482
35.6655
35.865
1.90072
1.95326
1.81482
1.83646
47.0734
24.907
14.6359
69.1322
-0.264153
-0.301855
-0.293236
-0.231669
-0.415825
-0.428215
1.26934
1.22923
1.37239
1.26276
5.47547
5.38771
5.38494
5.34612
1.96737
1.97459
1.83365
1.85552
44.3683
53.6868
2843.61
2851.16
0.0636923
0.0829852
0.0666485
0.0986932
4.7301
4.67052
4.8154
4.62726
4.56672
4.66957
4.56574
4.71482
-0.548463
-0.578514
-0.0325561
-0.0191969
-0.0472547
-0.0340184
7.47725
2.97414
3.21945
1.95012
0.144334
0.107423
4.38664
4.07395
1.02695
1.01374
0.499488
5.72048
66.201
137.883
1992.49
1824.98
2410.59
6.06409
21.0501
23.0783
50.4017
257.35
240.758
290.719
399.548
734.349
825.075
932.031
68.3358
64.0951
27.8234
11.8018
83.918
80.3371
-0.245336
-0.239973
107.139
39.8978
49.3166
69.9301
15.8293
27.6188
0.997882
-2.07769
-0.584645
0.0131993
0.00536163
0.0096509
5.1187
4.77716
0.997672
0.986293
0.960095
0.999146
0.986223
0.976716
1.05291
1.02289
6.46092
10.042
4.65839
9.74454
0.111518
0.0198832
0.0808612
-0.0575772
-2.58607
-3.00051
582.912
214.412
-3.0258
-2.68195
740.795
722.791
-0.571382
-0.548634
987.03
936.891
4.52794
4.35664
4.35507
4.32949
906.752
989.447
7.03818
7.45561
2228.98
2700.39
0.223911
0.241799
0.213264
0.218641
8.09522
17.771
11.2253
19.4455
1.06753
1.05103
-0.837096
-0.806879
-0.804057
-0.744066
-0.347636
-0.357468
2839.21
2838.47
2849.04
2832.82
5.69368
4.3942
4.08155
0.457043
117.975
57.2171
337.726
120.855
-3.56673
-0.333025
-4.30988
-3.55966
14.2346
28.2517
4.13503
4.1736
-6.06617
-6.45889
-6.53902
-6.77937
5.41247
5.63845
3.74643
3.31818
0.176264
0.42439
1.68868
1.67457
5.08802
4.66095
29.5499
14.3486
1.09246
1.21546
8.90158
9.04508
2808.95
1204.25
1066.09
1461.93
569.65
7.0934
14.2382
6.7134
33.5865
9.51932
5.31103
2.1725
2.47099
-0.537084
-0.521987
0.823261
0.859159
0.578986
0.675366
1.96719
1.90072
374.04
310.157
161.618
85.3981
2333.54
2477.65
2769.55
-1.1466
-1.08345
-1.05012
-0.996061
-5.76935
-5.27245
-5.45705
-5.68602
-0.0210809
-0.013659
-0.0281604
-0.0776697
-0.587012
-0.683199
-2.43708
-2.12223
-1.66707
-1.93399
3.20637
3.28636
3.14272
3.27528
0.391519
-0.126289
-1.48716
-1.54681
-1.03164
-0.864144
4.28726
5.29723
1.55568
1.54143
-0.637913
-0.657904
-1.18035
-1.10753
-1.09557
-1.00694
-1.02635
-1.05797
64.0822
293.901
458.141
480.542
0.602581
0.479454
0.560902
-0.267579
-0.078455
-0.0788678
-0.0624259
-0.0573045
-0.0324686
-0.0285897
-0.0790666
-0.0343473
-1.25823
-0.202143
-6.40076
-6.08109
-0.481574
-0.614278
-0.443108
-0.634621
-0.635909
-0.482898
-0.65802
-0.47068
0.497719
0.425952
0.602648
0.464594
0.389572
0.492244
0.397753
0.555352
0.584714
1.62027
1.75329
24.5506
54.0609
39.9105
75.9373
0.387351
-0.474389
-0.307418
-3.42647
192.133
41.1717
474.865
449.003
59.3507
74.1848
169.616
152.676
38.8489
23.1988
66.756
50.8888
4.00188
4.07916
3.67424
3.33535
-0.401632
0.0290473
-3.57015
-2.88335
43.6031
52.8722
-3.6166
14.224
-4.03288
25.4563
-0.467769
-1.31309
1.20692
-1.29396
1995.39
2078.88
2089.19
2130.93
2826.26
2854.07
10.8407
8.29388
147.293
176.257
2195.8
1319.94
-0.364343
0.636614
-1.44826
-1.49202
14.8741
16.6772
1.18022
0.437073
-0.240534
-0.583685
2867.83
2880.43
1.82037
2.26192
0.511843
0.330934
-0.262535
0.183523
-0.209295
-0.214109
18.8788
13.8802
13.0044
-1.33218
-3.54566
6.53826
3.65716
690.719
668.848
631.755
237.74
-6.22273
-3.88827
-0.250526
0.833814
-0.54018
-0.460873
0.308806
-1.31654
-1.00656
-1.80727
-1.33033
-1.43524
-1.75992
-0.929447
-0.0762112
-0.173109
0.466926
0.56911
0.567171
0.464602
-0.540025
-0.349686
-0.45574
-0.500407
4.58166
4.55982
0.235049
0.18871
0.246154
0.144532
1.29489
0.505122
42.4529
35.5422
71.1156
50.6602
1.23642
1.18805
5.81976
5.91447
5.67665
5.73394
5.85099
5.78595
5.73054
5.69503
1.88775
1.87659
-0.97002
-1.93465
98.2639
125.464
163.703
169.975
-2.20026
-2.43073
-1.98243
-2.13292
1.26329
1.3185
-0.357157
-0.315878
2.70098
2.66069
2.80023
2.85978
0.166998
0.224186
2201.43
2171.08
2281.25
1940.74
3.17796
3.27018
3.32681
3.23836
0.777374
0.896006
717.506
715.469
319.002
216.052
-0.626473
-0.648154
-0.648372
-0.702389
0.349152
0.557298
0.304949
0.531745
3.23327
2.99685
-0.443215
-0.412275
364.698
485.578
471.3
497.197
-0.444101
-0.412591
95.2047
576.245
22.7278
384.019
0.868564
0.776662
1.29324
1.3016
849.1
1317.55
1101.11
1286.67
-0.263823
-0.24916
2853.78
2846.99
2843.84
2852.87
-0.369692
861.037
866.5
871.719
3.53365
0.13125
-1.55686
-0.916298
-0.929728
-0.849577
897.04
936.741
872.388
899.88
32.6285
22.5679
8.29159
12.5686
69.4174
108.357
-0.329381
-0.354941
-1.13282
-0.897381
8.4599
8.48687
9.02244
8.96296
8.13384
8.21927
8.16276
8.31481
-0.329476
-0.355329
-1.22549
-1.24079
1.22573
1.20329
10.1706
10.3312
26.6872
0.364429
0.351247
3.69824
3.62209
3.76675
3.66095
0.284359
0.321557
3.48929
3.45794
3.38888
3.33178
120.2
215.248
105.358
172.086
2757.01
2769.34
1.24507
1.14039
1.31564
1.28591
6.26869
3.56665
3.9837
3.79862
190.537
37.1442
-0.0941063
-0.0907243
15.3844
26.1763
-0.128851
-0.689868
-5.93042
-6.42517
-7.61504
-8.38328
-7.4783
-7.52312
16.2652
22.0991
0.728146
0.451233
3.82502
4.07788
11.4243
8.44223
2830.03
2826.16
12.6795
7.43258
32.1726
17.941
-0.0810345
-0.0808842
-6.68486
-5.32595
1.36553
1.25313
2.01544
1.5684
-5.20844
-5.32001
-1.11035
-1.67525
-0.861721
-1.67802
-1.08386
-1.15324
472.217
2.70286
5.4655
456.964
3.38803
3.26656
-1.75928
-1.02067
-2.32772
-1.5479
-3.00965
-3.00781
-0.271386
-0.295225
-0.270419
-0.305869
-5.03134
-4.35865
-0.103651
-0.130109
2785.82
9.26346
12.1371
7.50042
1.25165
1.2421
-5.43244
-5.36712
1.28864
-0.529584
0.273355
0.364562
-0.354615
-0.342522
-0.308889
0.23305
0.253076
4.53002
1.14017
-0.427873
-0.501791
1.05046
1.07829
92.4383
112.571
70.9007
229.922
92.6354
174.874
7.68539
5.17919
23.1801
25.2222
3.98591
3.78691
0.143856
0.075402
-0.909016
-0.902841
-0.536004
-0.828858
0.429331
0.444483
-1.23923
-0.908626
-1.47614
-1.47962
-0.358846
-0.677669
-13.9012
-9.50296
-14.1723
-10.2112
93.3116
94.4773
-3.08228
-3.05318
31.1153
22.956
-1.2828
-1.17578
1.38715
1.33277
-2.19551
-2.21578
84.4672
83.7667
0.425008
0.423169
10.9989
11.8695
17.1108
16.1998
1.43609
1.41982
4.84719
4.88517
1.41951
1.42417
843.582
828.936
854.118
859.76
1.22866
1.2208
835.725
851.077
851.642
851.983
2.86307
2.94589
-0.641737
-0.657613
-0.621257
-0.631096
4.45359
4.7755
0.821938
0.616517
-0.0705544
-0.0756276
0.816397
0.617992
6.96245
7.2448
1.10971
2.4712
0.776839
0.797479
0.848343
0.863797
5.06002
5.3804
-1.39304
-1.49444
5.00043
5.30367
217.943
55.7002
134.856
43.5623
2.70801
2.70845
-0.591202
-0.610278
16.5327
15.7435
18.3812
18.5761
0.255974
0.12369
62.5514
51.2977
44.5613
34.8445
5.55947
4.29933
5.67453
4.66459
5.09236
4.6633
2.06029
2.22157
-0.647972
-0.689803
2.69306
2.70282
972.149
272.656
-0.928281
-0.708517
0.54363
1.22383
-0.260282
-0.230489
-1.88044
-1.61546
-1.91049
-2.66971
4.61589
4.55504
0.16861
0.0677589
652.239
449.972
411.635
226.716
1004.49
324.289
14.1788
12.7481
52.9496
26.235
4.58657
4.5667
13.0097
17.4833
8.42005
7.1855
-2.96234
-3.3526
-0.0996161
-0.100188
0.474832
-0.889935
-5.72559
-5.83952
-4.88119
-5.11332
3.44904
2.91513
6.29978
5.02455
3.70878
4.40048
1.27956
1.52895
27.5732
27.8776
4.30172
-2.58429
323.109
281.894
2140.49
2481.1
-1.13962
-1.08034
2.92293
3.01001
-0.121271
-0.119778
-7.03857
-6.21216
0.746428
0.753768
4.56661
8.17469
76.7254
29.237
-4.06083
-4.6796
2840.52
2847.05
2858.99
2853.94
2856.45
-4.01512
-4.8779
0.329252
0.261837
0.262028
0.329501
1.1975
0.871777
-1.34136
-1.62807
0.351058
0.438497
405.822
374.559
0.348729
0.441007
0.840939
0.852486
-5.6971
-5.27891
1.25629
1.14031
0.816348
0.796362
-3.33868
-3.59642
21.8123
25.0523
4.68725
4.70683
22.5144
15.3146
-0.939775
-0.995834
-0.945564
-1.00223
59.3673
135.697
1.17751