/*--------------------------------*- C++ -*----------------------------------*\
| =========                 |                                                 |
| \\      /  F ield         | OpenFOAM: The Open Source CFD Toolbox           |
|  \\    /   O peration     | Version:  v2012                                 |
|   \\  /    A nd           | Website:  www.openfoam.com                      |
|    \\/     M anipulation  |                                                 |
\*---------------------------------------------------------------------------*/
FoamFile
{
    version     2.0;
    format      ascii;
    class       volVectorField;
    location    "0.3";
    object      U;
}
// * * * * * * * * * * * * * * * * * * * * * * * * * * * * * * * * * * * * * //

dimensions      [0 1 -1 0 0 0 0];


internalField   nonuniform List<vector> 
24700
(
(0.0187996 -1.7473 0.0184518)
(-0.0072509 -1.6961 0.00997462)
(-0.00529735 -1.63819 -0.00117563)
(0.0773548 -1.44636 -0.0181452)
(0.0355612 -1.56138 -0.0414566)
(0.0846242 -1.511 -0.0597901)
(0.0615548 -1.56422 -0.0507817)
(-0.0101178 -1.48851 0.00442966)
(0.0876207 -0.900431 -0.0188316)
(0.0288038 -1.39825 -0.0249632)
(-0.00231363 -1.46826 -0.0204904)
(-0.00355803 -1.49946 0.00498572)
(-3.31415e-05 -1.4857 -0.0223569)
(0.0039508 -1.47124 -0.0189822)
(0.00549196 -1.48455 0.00354057)
(-0.00167917 -1.4955 0.000834219)
(-0.00288042 -1.48982 -0.0169891)
(-0.00587927 -1.57281 0.0196805)
(0.0332682 -1.54444 0.0209747)
(0.000870067 -1.68104 0.103818)
(0.0457977 -1.45109 0.00216842)
(0.00647306 -1.49972 -0.00213661)
(0.0263855 -1.44992 0.011912)
(0.00361833 -1.57946 0.059134)
(0.0557657 -1.43776 -0.00355551)
(0.0067977 -1.51751 -0.00677059)
(0.0509085 -1.21387 -0.00231517)
(-0.0103641 -1.50214 0.013188)
(-0.0256966 -1.50458 -0.0315025)
(0.0597736 3.89686 -0.607326)
(-0.452338 2.71996 -1.54894)
(0.273458 4.0702 -0.506622)
(0.472988 4.25259 -1.00195)
(0.0206521 3.55964 -1.40069)
(0.423684 4.90954 -0.647385)
(-0.0390162 4.50005 -0.735455)
(0.02366 0.133058 0.282614)
(0.024822 0.105845 0.378523)
(-0.0152906 0.180244 0.216227)
(-0.016363 0.0604228 0.409561)
(-0.0395012 0.156727 0.409484)
(-0.134995 0.0326038 0.429864)
(-0.0415825 0.08297 0.341726)
(-0.00182978 -1.7642 0.0184402)
(0.0125661 -1.80114 0.0277962)
(0.0198193 -1.8175 0.0332947)
(-0.00226953 -1.75306 0.0516517)
(-0.0074034 -1.76679 0.0505631)
(-0.00129904 -1.78539 0.048395)
(0.0101845 -1.78606 0.0406432)
(-0.0212439 -0.181634 0.569862)
(-0.000160807 -0.111943 0.530681)
(-0.0184508 -0.213098 0.547152)
(-0.00252473 -0.234028 0.693398)
(0.00594805 -0.264895 0.653942)
(-0.0362921 -0.279124 0.691235)
(-0.0229629 -0.279937 0.605557)
(0.133177 -2.15571 0.483173)
(0.204475 -2.63621 2.24764)
(0.963119 -2.07632 -0.710373)
(0.293089 -1.73095 -0.817394)
(-0.85956 -1.48226 -0.287453)
(0.713264 -1.84721 -0.691352)
(-0.722011 -1.63118 -0.773472)
(-0.000481166 -0.621653 -0.35644)
(-0.00491811 -0.595656 -0.386651)
(0.00093266 -0.562366 -0.392976)
(-9.41494e-05 -0.565169 -0.330074)
(-0.00171826 -0.590722 -0.335186)
(-0.00972277 -0.578706 -0.3651)
(-0.00872931 -0.557176 -0.364599)
(-0.0121994 -0.48418 -0.076811)
(0.00243574 -0.350274 -0.0906391)
(0.0041666 -0.406132 -0.1175)
(-0.00314 -0.408853 -0.0205198)
(0.0391147 -0.400412 -0.0165993)
(0.0385816 -0.414234 -0.0485099)
(-0.0131585 -0.471768 -0.0156995)
(-0.00175794 -1.43953 -0.0712558)
(-0.0244674 -1.06668 0.0456737)
(-0.0137816 -1.49609 -0.0654221)
(-0.0639812 -1.59194 -0.0505541)
(0.0636171 -1.31767 -0.117046)
(-0.0307148 -1.52705 -0.122152)
(-0.0367456 -1.54386 -0.0957667)
(0.00757046 -0.219944 0.0293253)
(0.0208056 -0.342904 -0.0125637)
(-0.0423336 -0.446738 -0.027325)
(-0.0690323 -0.291721 -0.0290642)
(0.0552282 -0.386751 0.0484159)
(-0.00666894 -0.368378 0.0184931)
(-0.109837 -0.397283 0.0101014)
(0.00440516 -0.232074 -0.310292)
(-0.0137706 -0.224822 -0.318799)
(0.00145354 -0.253226 -0.33657)
(-0.00310517 -0.185936 -0.331181)
(0.00989416 -0.191516 -0.294753)
(-0.0162998 -0.191137 -0.318508)
(0.0100602 -0.189458 -0.285676)
(0.00511341 0.00400211 -0.638277)
(0.00874363 0.0622375 -0.757419)
(-0.0204614 0.0173263 -0.780087)
(-0.0434549 0.243922 -0.710869)
(-0.0163137 0.285469 -0.705295)
(-0.0419965 0.184656 -0.763225)
(-0.11295 0.150736 -0.84259)
(0.0251739 0.165975 -0.45023)
(-0.047543 0.217839 -0.519093)
(-0.0295989 0.658915 -0.176685)
(-0.0203842 0.686372 -0.283915)
(0.250327 0.492667 -0.140124)
(-0.0381285 0.511428 -0.55802)
(0.217187 0.319587 -0.440962)
(0.0267836 3.75603 -0.149706)
(-0.0409315 3.96505 0.0825959)
(0.0166819 3.97221 0.160323)
(-0.0919788 3.50818 0.292041)
(0.0569696 3.53747 0.0685661)
(0.0913363 3.44826 0.0467506)
(-0.123869 3.53543 0.293341)
(0.0585715 3.30934 -0.0115655)
(0.0083382 3.74441 0.241861)
(-0.0280696 3.95636 0.106349)
(-0.0254348 2.39824 0.479689)
(-0.214707 1.9432 0.710353)
(0.0954788 2.68755 0.887428)
(-0.11236 0.655346 0.86793)
(0.0327693 1.59557 0.704393)
(-0.346216 0.622796 0.760431)
(-0.147483 1.55491 0.545325)
(-0.000111144 2.57476 0.43491)
(0.0677996 1.39394 0.646584)
(0.21035 2.22965 0.431029)
(0.0883927 2.8946 0.542121)
(-0.0678673 2.63583 0.5633)
(0.0104355 0.365828 0.0286891)
(-0.0083206 0.30727 0.0172696)
(-0.0107804 0.304496 0.103496)
(0.039112 0.239127 -0.0378817)
(-0.0408037 0.342259 -0.102061)
(-0.03287 0.379474 -0.0418639)
(0.02181 0.271696 0.0220705)
(0.000399199 -0.175964 -0.387442)
(-0.0104694 -0.1076 -0.354111)
(0.00756815 -0.09664 -0.38377)
(-0.000316864 -0.158909 -0.360439)
(-0.00757097 -0.166169 -0.358621)
(-0.0100563 -0.115639 -0.342712)
(0.00107394 -0.122942 -0.365764)
(0.00641772 -1.79745 0.0545266)
(-0.00109911 -1.78541 0.0668127)
(-0.0030089 -1.75894 0.0712179)
(0.00145648 -1.75899 0.0989319)
(0.00169295 -1.74487 0.0896047)
(0.00579316 -1.77289 0.0890514)
(0.011627 -1.77168 0.0664947)
(0.02334 0.309038 -1.36315)
(-0.0432386 0.415548 -1.30456)
(0.00459042 0.64133 -1.52105)
(0.00431292 0.470619 -1.48812)
(-0.0479867 0.541205 -1.4913)
(-0.0630147 0.412136 -1.33643)
(-0.00759313 0.332927 -1.39431)
(-0.000839618 0.95853 -1.02359)
(0.0102311 1.1751 -1.24231)
(0.0492645 1.22121 -1.32454)
(0.00803405 0.887748 -0.97433)
(-0.01892 0.882829 -0.982832)
(0.00140492 1.12093 -1.20995)
(0.0350483 1.12394 -1.24242)
(-0.0040507 0.512521 -0.588668)
(-0.0239317 0.591127 -0.442227)
(0.0375335 0.638251 -0.400488)
(0.0245915 0.577601 -0.554148)
(-0.0444303 0.562422 -0.620801)
(-0.0307002 0.576511 -0.53865)
(0.0379272 0.624199 -0.466178)
(-0.0571065 0.00706372 0.467161)
(-0.070312 -0.101099 0.434879)
(0.0100315 -0.158517 0.333904)
(0.105447 0.0135139 0.675572)
(0.0371235 0.0749364 0.580557)
(0.00789995 -0.0506593 0.700329)
(0.0849972 -0.00338563 0.698179)
(0.0636987 0.462071 0.0188641)
(0.0593943 0.497927 -0.0575582)
(-0.0586164 0.46515 -0.192663)
(-0.044107 0.450157 0.21211)
(-0.0326832 0.370131 0.369195)
(0.0347171 0.429302 0.297384)
(-0.0356614 0.37082 0.343753)
(0.035444 -1.21324 -1.06841)
(0.0300008 -1.28516 -1.00873)
(-0.00553251 -1.09164 -1.05117)
(-0.0519903 -1.12996 -0.805783)
(-0.0140866 -1.05181 -0.867067)
(-0.0227022 -1.21632 -0.895908)
(-0.000981954 -1.11308 -0.921617)
(0.0121002 -1.78524 0.0181135)
(-0.000550579 -1.70936 -0.0253609)
(-0.00532428 -1.77687 -0.0066658)
(0.00264341 -1.73274 -0.00494206)
(0.0261746 -1.75318 0.00617428)
(0.0313912 -1.75602 0.0158439)
(0.00744414 -1.77042 0.00336127)
(0.00325821 -2.00614 -0.0246645)
(-0.00355075 -1.996 0.00388086)
(0.00869016 -2.00619 -0.0394639)
(-0.00280821 -1.98464 -0.0110199)
(0.00161822 -1.97896 -0.0193148)
(0.00632192 -1.99482 -0.0315597)
(0.00643252 -1.99524 -0.0214115)
(-0.00634555 -1.60075 0.10711)
(-0.0147727 -1.53098 0.124371)
(0.00479705 -1.5542 0.0990609)
(0.00475618 -1.6079 0.129632)
(0.00136943 -1.59835 0.149212)
(-0.013218 -1.55824 0.138869)
(-0.000535338 -1.55551 0.117465)
(-0.00145001 -1.35825 -0.768584)
(0.00596427 -1.16677 -0.818038)
(0.0629614 -1.52474 -0.702913)
(0.091967 -1.57551 -0.642033)
(-0.00711484 -1.40458 -0.757006)
(0.142177 -1.5577 -0.652223)
(0.0873133 -1.482 -0.723584)
(0.0226792 1.16506 -1.99375)
(0.0630524 1.01115 -2.01817)
(0.00174945 1.52124 -2.04453)
(0.0323059 1.55023 -2.24479)
(0.00419055 1.60485 -2.18816)
(0.163347 1.37212 -2.24093)
(0.12809 1.42327 -2.18783)
(-0.0139463 0.944065 -0.841523)
(-0.00952176 0.77187 -0.915283)
(-0.0272209 0.788434 -0.827439)
(0.0405233 1.18418 -1.12888)
(0.0876406 1.24654 -1.28091)
(0.0955481 1.03319 -1.16482)
(0.049494 0.992725 -1.03229)
(0.00095298 0.51588 -0.431519)
(0.0254906 0.378169 -0.441007)
(-0.0177634 0.432835 -0.387126)
(-0.0347233 0.529791 -0.449721)
(-0.00929809 0.514696 -0.461233)
(0.0121352 0.408097 -0.470191)
(-0.0184993 0.453626 -0.422112)
(0.0146889 1.42818 -0.040911)
(-0.00365536 1.17575 -0.0302981)
(0.152649 1.32654 0.083068)
(-0.0456201 1.75948 -0.0470804)
(0.0672657 1.59992 -0.00848281)
(0.177991 1.42432 -0.0259555)
(-0.00241769 -0.0371361 -1.77746)
(0.0948611 0.0385355 -2.60966)
(0.178198 0.197069 -2.84949)
(-0.0393804 -0.0621599 -2.86949)
(-0.0319049 0.00957263 -2.68947)
(0.0549564 0.0977401 -2.90154)
(-0.0504678 -0.0671957 -2.78321)
(-0.0115184 -0.0491675 -2.77183)
(-0.0230192 0.210132 -2.73144)
(-0.0147024 -0.07949 -2.72917)
(0.0981458 0.0141547 -2.58183)
(0.0684056 -0.0550469 -2.73675)
(0.000575171 -0.0647211 -2.81109)
(0.0555902 -0.0900892 -2.117)
(-0.0954425 -0.080049 -1.48887)
(0.00297426 -0.134214 -2.42722)
(0.0206833 -0.0824235 -2.24238)
(0.0806663 0.00272023 -2.53102)
(0.011096 -0.0901809 -1.81351)
(0.133993 -0.00826313 -2.21727)
(-0.0189825 0.0248908 -0.178732)
(0.00714278 0.072573 -0.0995306)
(0.0570889 0.100964 -0.183628)
(-0.0885745 -0.105258 -0.141257)
(-0.0638146 0.0117176 -0.192408)
(-0.0394121 -0.027892 -0.123795)
(-0.207224 -0.127984 -0.0657301)
(-0.0100022 0.178403 0.048331)
(-0.0987308 -0.0324641 -0.117999)
(-0.0672392 -0.0306288 -0.0327225)
(0.056334 0.177235 0.00751411)
(0.0527044 0.181619 -0.022732)
(-0.00834014 0.107807 -0.0559886)
(-0.00603636 0.0829392 0.000132078)
(0.000565929 0.0752989 0.297521)
(-0.070287 0.00283075 0.19809)
(-0.0136849 0.133448 0.411405)
(0.0799296 -0.0462742 0.288841)
(0.0733623 -0.127607 0.132138)
(0.0576174 -0.148292 0.210907)
(0.0464571 -0.0392115 0.327136)
(0.00395058 0.188254 -0.196918)
(-0.0228594 0.262881 0.137139)
(0.0178644 0.225395 0.137655)
(0.0196384 0.328115 -0.0573942)
(0.0385181 0.399442 -0.0511737)
(0.0419736 0.361549 0.0835148)
(0.0305516 0.338602 0.145084)
(-0.00803514 0.225975 -0.596072)
(-0.00460002 0.498927 -0.565838)
(0.0273988 0.346313 -0.594063)
(-0.0178271 0.384282 -0.620365)
(0.00683219 0.438625 -0.611351)
(0.0307231 0.342084 -0.621877)
(-0.00402858 0.320425 -0.625346)
(-0.0128696 -1.93528 -0.0220707)
(-0.0349864 -1.85641 0.00778667)
(-0.00113137 -2.0123 0.00249803)
(0.00767121 -2.26054 -0.0108126)
(-0.0109861 -2.20731 -0.0266239)
(-0.031003 -2.1326 -0.00685397)
(0.00271545 -2.22439 -0.00641871)
(-0.0178065 -1.55456 -0.0983965)
(-0.0559357 -1.57861 -0.10876)
(0.00949458 -1.52491 -0.0840678)
(0.00130474 -1.48749 -0.115386)
(0.0127307 -1.50308 -0.117152)
(-0.0218372 -1.54622 -0.090332)
(0.00219734 -1.52382 -0.102679)
(-0.0081119 -0.867213 -0.524236)
(0.00718238 -0.891396 -0.597165)
(-0.00257786 -0.998426 -0.594679)
(0.00245237 -0.978516 -0.55404)
(0.00126755 -0.94512 -0.491519)
(0.00334802 -0.896549 -0.570134)
(-0.00744665 -0.869519 -0.477622)
(-0.0182268 0.0463424 -0.587166)
(0.00421491 0.0480706 -0.603557)
(-0.000697289 -0.0396009 -0.60798)
(0.00542776 -0.0138664 -0.57119)
(0.00587935 -0.0254541 -0.571668)
(-0.0038685 0.03436 -0.59523)
(-0.0148682 0.0486637 -0.578829)
(-0.062216 0.618771 -0.778374)
(-0.160312 0.974605 -0.524611)
(-0.208089 1.15161 -0.429308)
(0.232709 0.292722 -0.541021)
(0.0124773 0.480483 -0.382421)
(-0.0369939 0.649576 -0.426644)
(-0.172837 0.931854 -0.357612)
(-0.09752 1.28113 -0.817021)
(-0.00654624 0.954735 -0.940858)
(-0.0870802 1.23809 -0.887962)
(0.13616 0.930666 -0.659666)
(-0.0437309 0.949067 -0.66598)
(-0.00753363 1.18601 -0.681138)
(-0.176482 1.21521 -0.684131)
(-0.0775311 1.73295 0.0144204)
(-0.0373158 1.93306 0.0375916)
(-0.0187187 1.59156 0.0638699)
(-0.0378404 1.34698 0.106302)
(0.0226987 1.27563 0.00807197)
(-0.126342 1.54346 0.0717951)
(-0.118695 1.56786 0.0267034)
(0.159937 1.49923 0.24459)
(0.0726173 1.46531 0.220477)
(-0.0121633 1.46495 0.224609)
(-0.0619919 1.03635 0.145486)
(0.00732262 1.11115 0.112222)
(-0.0028803 1.14091 0.127718)
(0.0630547 1.41754 0.0984009)
(-0.116784 0.955431 0.674711)
(0.0277462 2.12882 0.104705)
(-0.0984592 1.52857 0.482094)
(0.0783675 1.39259 0.324639)
(0.062141 1.56368 0.268895)
(-0.0262969 1.25763 0.434821)
(-0.0442961 1.06099 0.420288)
(0.0442713 0.507716 0.314708)
(0.0137635 0.481929 0.250228)
(0.0182149 0.577508 0.203204)
(-0.0216309 0.427124 0.0827549)
(-0.07472 0.38215 0.119616)
(0.0183232 0.425313 0.2409)
(0.00835951 0.531413 0.190632)
(0.00633795 0.311109 0.0320766)
(0.000472813 0.368714 0.0553858)
(0.0244861 0.300613 0.155769)
(0.0435907 0.338142 -0.0973346)
(-0.0424021 0.232873 -0.0306367)
(0.0511397 0.366834 -0.0285323)
(0.00410291 0.245764 0.0403761)
(-0.000740522 0.225091 -0.211222)
(-0.00244948 0.210378 -0.240537)
(-0.00183698 0.207163 -0.218457)
(-0.00675598 0.2483 -0.217831)
(0.00328817 0.258009 -0.230473)
(0.00814174 0.247718 -0.258643)
(-0.00941211 0.23414 -0.237828)
(-0.00118335 -0.254156 -0.333423)
(0.0140686 -0.227024 -0.315175)
(-0.00517452 -0.232898 -0.304396)
(-0.0115952 -0.19017 -0.290342)
(0.00385752 -0.189512 -0.32756)
(0.019275 -0.192525 -0.314068)
(-0.011365 -0.188274 -0.277939)
(-0.000652241 -0.440974 -0.26241)
(0.0068759 -0.38437 -0.287493)
(0.0114937 -0.415801 -0.28632)
(-0.00595155 -0.414007 -0.247961)
(-0.00971216 -0.388107 -0.238505)
(-0.0113317 -0.387444 -0.274011)
(-0.00621307 -0.407563 -0.275846)
(-0.00353363 -1.89241 -0.00328088)
(0.00399796 -1.90982 0.0169386)
(0.0123103 -1.92556 0.0370276)
(-0.00241838 -1.8623 -0.0103141)
(-0.00178332 -1.8627 -0.0235749)
(0.00506778 -1.87697 -0.0105739)
(0.0102001 -1.8935 0.00336183)
(-0.0264706 -0.621094 -1.26517)
(-0.223733 -0.434634 -1.43779)
(-0.0381778 0.612848 -1.99226)
(0.112086 -0.285465 -1.42401)
(-0.104063 0.0151329 -1.68497)
(-0.326883 -0.558622 -1.3971)
(0.00469512 -0.778412 -1.13111)
(0.0502674 1.83457 -2.22116)
(0.00386281 2.28452 -1.99929)
(0.0309785 2.0755 -2.13274)
(-0.0362193 2.08614 -2.08633)
(-0.0010353 1.9216 -2.21693)
(-0.0330428 2.0141 -2.1506)
(-0.0136851 1.83152 -2.2113)
(0.0261576 1.11695 -0.29634)
(-0.0389351 1.17555 -0.0926091)
(-0.018262 1.36769 -0.393391)
(-0.0135125 1.23221 -0.34382)
(0.00289706 1.31542 -0.397057)
(-0.072091 1.12888 -0.246677)
(0.0314185 1.11768 -0.400462)
(-0.103168 1.54703 0.240842)
(-0.0243618 1.84384 -0.099275)
(0.0770138 1.43536 0.0897009)
(-0.133156 2.06336 0.103687)
(0.028568 2.03404 -0.0692979)
(-0.246442 1.86117 -0.112517)
(0.0232839 1.6242 -0.17183)
(0.0548413 1.55277 -0.200862)
(-0.252351 1.80067 -0.0823321)
(-0.0289379 1.76995 -0.0550694)
(-0.186778 2.14229 0.0520702)
(-0.443961 1.85614 0.084939)
(0.109021 1.75597 -0.630352)
(-0.0508276 1.56702 -0.375616)
(-0.433897 2.14034 -0.0407413)
(-0.0910585 1.75955 -0.104061)
(0.0189264 1.36784 -0.19835)
(-0.0904697 1.26352 -0.175801)
(-0.398721 1.89418 0.0169651)
(-0.324939 2.81921 0.146795)
(-0.269918 2.4933 -0.165039)
(-0.784829 2.39628 0.102845)
(-0.234394 1.78218 -0.193456)
(-0.136795 1.62037 -0.0271558)
(-0.0373613 1.3922 0.114755)
(0.0301472 1.76529 0.268148)
(0.0163749 1.30709 -0.178249)
(0.0474673 1.50814 0.533325)
(0.0136208 1.34183 0.188562)
(0.0965719 1.79862 0.659857)
(-0.00651291 1.45387 0.328789)
(-0.00525022 0.309397 -0.0133297)
(-0.0649462 0.179806 -0.0212215)
(-0.0289339 0.209826 -0.00837623)
(0.0694397 0.25054 -0.111459)
(0.0578486 0.214239 -0.130175)
(0.00728315 0.1766 -0.060286)
(0.0344097 0.202719 -0.089409)
(0.00110023 -0.356006 -0.110912)
(-0.00615241 -0.407623 -0.18806)
(0.00515338 -0.437083 -0.209869)
(0.0072513 -0.486801 -0.17064)
(-0.000178415 -0.435243 -0.13687)
(-3.99571e-05 -0.460975 -0.183267)
(0.0168407 -0.50456 -0.225597)
(0.00386874 -0.432131 -0.0416677)
(-0.00498731 -0.491281 -0.094004)
(-0.000426476 -0.529959 -0.118141)
(0.0218523 -0.579843 -0.101481)
(-0.00370565 -0.552443 -0.0763149)
(0.00507533 -0.559812 -0.103564)
(0.0235348 -0.612092 -0.129269)
(-0.00226193 -1.66537 -0.0623243)
(-0.0145886 -1.6067 -0.134203)
(0.00215949 -1.61586 -0.168628)
(0.00909012 -1.63433 -0.123605)
(0.00137563 -1.63721 -0.0964341)
(-0.0128196 -1.6076 -0.144814)
(0.00348811 -1.63032 -0.160171)
(0.0598235 0.0158154 -0.873605)
(0.128627 -0.368459 -0.680416)
(-0.0583432 0.314713 -0.687243)
(0.0548394 0.0442516 -0.383214)
(0.127791 0.516847 -0.991984)
(0.204431 -0.251021 -0.554721)
(0.220785 0.361929 -0.848288)
(0.000143555 -0.344857 -0.622477)
(-0.0254199 -0.262941 -0.624445)
(0.0227704 -0.274053 -0.624902)
(0.0099073 -0.335252 -0.601902)
(-0.0146166 -0.338796 -0.599533)
(-0.0359447 -0.270242 -0.595882)
(0.00769242 -0.286526 -0.61337)
(0.0706396 0.0601621 -0.738698)
(-0.134217 0.284387 -0.681659)
(-0.0123562 0.184078 -0.577157)
(0.0940129 0.151583 -0.592877)
(0.0454878 0.0668962 -0.678387)
(-0.0407111 0.180099 -0.403087)
(0.148369 0.0537393 -0.6931)
(-0.158677 6.67427 -0.023802)
(0.0185972 6.77329 0.121526)
(-0.372076 5.32411 0.120203)
(-0.34486 6.61698 0.278128)
(-0.29637 6.21528 0.0404745)
(-0.0648598 6.38097 0.0337653)
(-0.204258 6.8739 0.400813)
(-0.0381372 1.50012 -0.189563)
(0.00388619 2.12881 -0.107802)
(-0.046143 1.75756 -0.172957)
(0.025959 2.03665 -0.147138)
(0.0314264 2.18081 -0.0277314)
(-0.00470599 1.77306 -0.202324)
(0.0020776 1.90343 -0.098439)
(-0.00023913 0.17627 -0.0601042)
(0.00331721 0.178653 -0.0683868)
(-0.000750202 0.162575 -0.0512836)
(-0.00545782 0.14773 -0.068218)
(-0.00300592 0.157027 -0.0553814)
(-0.00538547 0.150744 -0.0652084)
(-0.00243749 0.162626 -0.0518889)
(0.0033021 0.11466 -0.0357518)
(0.00730871 0.103799 -0.0566264)
(-0.00133073 0.0992435 -0.0269158)
(-0.0137086 0.0670072 -0.0376976)
(0.00284125 0.0811872 -0.0132356)
(-0.0043558 0.0772461 -0.0446135)
(0.00401834 0.101621 -0.0202016)
(-0.00131841 -1.40106 0.172533)
(-0.00820684 -1.40646 0.203175)
(0.00319633 -1.38093 0.221644)
(-0.00543222 -1.34734 0.208517)
(-0.00632186 -1.3631 0.191882)
(-0.0188908 -1.3998 0.206153)
(-0.00997269 -1.35317 0.216612)
(-0.0206626 3.06406 -2.25505)
(0.00255749 2.95066 -2.06682)
(0.014628 2.98507 -2.32836)
(0.0373224 2.62271 -2.06599)
(0.0517277 2.41175 -2.07595)
(0.0581368 2.80908 -2.21249)
(0.094343 2.72085 -2.23868)
(0.0280812 1.32606 -0.65158)
(0.0320088 1.16877 -0.427368)
(-0.0058254 1.24499 -0.531725)
(0.0314435 0.983866 -0.50459)
(0.0132972 1.18523 -0.658346)
(0.0421436 0.994769 -0.50827)
(0.0634517 1.30118 -0.751075)
(-0.0439202 0.978085 -0.44797)
(-0.126571 0.885755 -0.426031)
(-0.00908085 1.0862 -0.573683)
(0.108702 0.976934 -0.527056)
(0.00314568 0.92583 -0.606282)
(-0.21566 0.843557 -0.433471)
(0.00978913 0.934461 -0.378271)
(0.0327838 1.138 -0.531056)
(0.00201432 1.14655 -0.583752)
(0.0231129 1.173 -0.587434)
(0.0140713 0.990631 -0.442142)
(0.00976735 0.98463 -0.525857)
(0.0245842 1.01965 -0.545266)
(0.013191 1.02736 -0.419114)
(0.000897678 0.795899 -0.451827)
(0.0129319 0.803857 -0.409293)
(0.00146957 0.87028 -0.455203)
(0.00199014 0.683011 -0.3937)
(0.00707334 0.710107 -0.310344)
(0.0178775 0.703344 -0.327154)
(0.00227759 0.679828 -0.40424)
(0.000540357 0.0504656 -1.56524)
(-0.0852834 -0.335791 -0.24816)
(-0.170317 -0.124844 -0.892783)
(0.0123664 0.0152021 -1.64317)
(-0.0197476 -0.00462796 -1.14445)
(-0.273073 -0.181996 -0.657709)
(-0.166232 -0.0533843 -1.05982)
(0.0192525 0.0144626 -2.68583)
(0.0444609 -0.0836478 -2.75128)
(0.0276619 -0.05685 -2.73508)
(-0.0641866 -0.0475378 -2.696)
(-0.039811 -0.0513096 -2.68359)
(0.0345823 -0.113066 -2.70445)
(-0.00149201 -0.0622024 -2.73072)
(-0.0188695 -0.0275437 -0.0815442)
(0.0618385 -0.0421781 -0.158582)
(0.0449569 -0.0553928 0.0061898)
(-0.0549141 0.0564937 0.0479215)
(-0.0362041 0.122739 -0.00136373)
(0.0699928 0.167339 -0.225511)
(0.0295824 0.0732284 -0.0648882)
(0.0412723 -2.03755 0.00233922)
(-0.00097151 -2.2088 0.0122343)
(0.00380178 -2.18909 -0.0342885)
(-0.0500399 -2.3758 0.0179883)
(-0.0555096 -2.34579 -0.0159305)
(-0.0347523 -2.3605 0.0161796)
(-0.0132345 -2.27299 0.00529085)
(0.0078119 -2.4524 -0.0316192)
(-0.00175456 -2.4704 -0.02016)
(-0.00378652 -2.44446 -0.0269477)
(-0.00249718 -2.47494 -0.0170841)
(-0.00728983 -2.47732 -0.0161969)
(0.000968243 -2.45755 -0.0253901)
(-0.00651494 -2.46083 -0.0204301)
(-0.00551116 -1.36802 0.0868085)
(0.018649 -1.40894 0.0823004)
(0.0047598 -1.315 0.127325)
(-0.00523915 -1.38307 0.179114)
(-0.0100295 -1.33945 0.155355)
(0.0136239 -1.42537 0.132868)
(-0.00179569 -1.37567 0.112199)
(-0.0771813 0.42104 -2.06011)
(-0.01284 0.479409 -2.1065)
(0.00647354 0.410733 -2.06093)
(-0.0261874 0.3551 -2.10817)
(0.0411553 0.472415 -2.13314)
(-0.0102369 0.468678 -2.11483)
(-0.115393 0.319149 -2.05088)
(0.0478287 -0.708449 -0.554905)
(-0.0806391 -0.420923 -0.26137)
(-0.00481664 -0.452234 -0.538666)
(-0.0247103 -0.422774 -0.436818)
(0.0333114 -0.541857 -0.588062)
(-0.0612284 -0.404497 -0.222548)
(-0.00551712 -0.597886 -0.562598)
(-0.076395 4.45122 -0.0337169)
(-0.181285 5.20405 0.0159398)
(-0.0527295 5.47118 -0.155524)
(-0.0925768 5.73667 0.0880843)
(-0.152682 5.41205 0.253602)
(-0.174198 5.38159 0.203984)
(-0.0784534 5.7002 -0.0152762)
(0.0103482 5.71683 -0.138862)
(0.10845 5.04634 0.37341)
(0.0810546 5.52675 0.113271)
(-0.105819 5.19947 0.0494766)
(-0.0728618 5.08808 0.280107)
(-0.514379 4.42506 0.0598062)
(-0.382902 6.82434 0.109447)
(-0.090001 7.50755 0.363286)
(-0.180373 6.34503 0.152002)
(-0.0618382 5.80309 0.0812096)
(-0.126224 6.8491 0.14381)
(-0.252366 7.01568 0.318618)
(0.00154141 5.35067 1.19695)
(-0.32441 6.61509 0.364812)
(0.118145 3.88802 1.23046)
(-0.252468 5.28242 0.964211)
(-0.0898759 6.5691 0.367335)
(-0.166848 5.38272 -0.915144)
(0.22263 4.28598 -0.921703)
(-0.00749938 6.56614 0.112503)
(0.127347 5.19534 -0.617481)
(-0.297716 5.94784 -0.410971)
(0.000198672 0.0856141 0.03689)
(-0.0120712 0.0587737 0.0293437)
(-3.67329e-05 0.0822273 0.0557711)
(0.00675636 0.103782 0.0295708)
(0.00345832 0.0918441 0.00924788)
(-0.000872849 0.0612877 0.0190219)
(0.01313 0.0992278 0.0426906)
(-0.00678967 -0.3577 0.00210273)
(-0.0265046 -0.388828 0.0662417)
(-5.25526e-05 -0.40388 0.0643994)
(-0.00189536 -0.381194 0.0307058)
(0.0691661 -0.451571 0.105937)
(-0.0211343 -0.399555 0.0732937)
(0.0316076 -0.454079 0.123181)
(-0.0041484 -1.13479 0.152825)
(0.00761129 -1.14445 0.213064)
(0.0183411 -1.1369 0.24301)
(-0.00163926 -1.06639 0.204032)
(-0.00884106 -1.09537 0.176995)
(-0.00222719 -1.08308 0.205272)
(0.00430562 -1.06656 0.226242)
(0.00684493 -1.15705 0.271976)
(-0.00589072 -1.1363 0.310214)
(0.0114215 -1.16502 0.245672)
(0.0011474 -1.09359 0.310964)
(-0.00763069 -1.07681 0.274282)
(0.00162907 -1.11265 0.246491)
(0.00486129 -1.10801 0.280374)
(-0.0362103 -0.238185 0.341774)
(-0.00282676 -0.33088 0.290506)
(-0.0962551 -0.116123 0.371502)
(-0.0503141 -0.147645 0.27532)
(0.0376183 -0.263979 0.235557)
(-0.165416 -0.0275753 0.300807)
(-0.0824057 -0.157409 0.27468)
(0.117611 -0.677217 0.45692)
(-0.0290008 -0.788579 0.224288)
(0.0585139 -0.757414 0.293037)
(-0.085638 -0.572897 0.302132)
(-0.0800779 -0.477936 0.365368)
(-0.0786878 -0.585212 0.348757)
(-0.000231146 -0.475258 0.461413)
(0.00389302 1.11057 -0.346616)
(0.0186607 1.14538 -0.204112)
(0.204005 1.15679 -0.102144)
(0.0574246 1.71422 -0.327347)
(-0.0789648 1.57237 -0.365296)
(0.0612997 1.50107 -0.209485)
(0.206143 1.51568 -0.133074)
(-0.0138651 2.74303 -1.27214)
(-0.0308391 2.90953 -1.42152)
(0.00541426 2.76946 -1.26219)
(-0.0292467 2.89332 -1.45873)
(0.00590464 2.78612 -1.32317)
(-0.0636214 2.95234 -1.51992)
(-0.0193639 2.78043 -1.32546)
(-0.0571733 -0.264907 0.490519)
(-0.000836447 0.44941 0.83511)
(0.326353 0.637818 0.919025)
(-0.174825 0.105894 -0.25756)
(-0.105001 -0.124273 -0.156812)
(-0.316686 0.111843 -0.168743)
(-0.135811 0.375172 -0.244172)
(0.330176 0.12598 -0.0320025)
(-0.00078899 0.274843 0.101053)
(-0.0374869 0.270636 -0.107857)
(0.141834 0.278003 0.123138)
(-0.188602 0.0800476 0.0929397)
(0.0252511 0.462053 -0.30511)
(-0.0296369 0.3952 -0.405692)
(0.00350441 0.564978 -0.438471)
(0.0317158 0.562335 -0.443981)
(-0.00437938 0.530816 -0.47467)
(-0.0364851 0.411419 -0.445581)
(0.0177912 0.487737 -0.359558)
(0.0354096 0.383747 0.674119)
(-0.00792249 0.130385 1.04481)
(0.0150221 0.589226 0.406707)
(-0.0874829 -0.0627681 1.00778)
(0.0171683 0.275553 0.639104)
(-0.155803 -0.0486112 1.19932)
(-0.0836478 0.208411 0.893259)
(0.0233742 -0.098778 -0.274465)
(-0.0193795 -0.114013 -0.207785)
(-0.0137572 -0.00451631 -0.181551)
(-0.00808224 -0.161498 -0.35277)
(0.024106 -0.106579 -0.296798)
(-0.0479938 -0.131768 -0.27083)
(0.00688526 -0.139636 -0.364118)
(-0.0271471 0.229383 -2.72527)
(0.144357 0.216235 -2.87814)
(0.0631081 0.211931 -2.95212)
(-0.0301307 0.0741183 -2.77612)
(-0.0717519 0.056055 -2.75176)
(0.109642 0.0221214 -2.87385)
(-0.0245815 0.0167185 -2.81653)
(-0.00687577 -0.089173 0.0157987)
(0.0164862 -0.134549 0.0754089)
(-0.00336295 -0.000329982 0.0202944)
(0.0463737 -0.00228406 0.0879325)
(-0.0118363 -0.0105186 0.0647112)
(0.0605149 -0.113431 0.116777)
(0.03653 -0.00774049 0.0829886)
(0.027501 -2.40219 0.0373238)
(0.0530635 -2.13807 0.111588)
(-0.0118781 -2.62845 -0.0272908)
(-0.0158486 -2.42347 0.0198348)
(-0.0106045 -2.55038 0.00034728)
(0.015082 -2.15896 0.052261)
(-0.00208751 -2.41112 0.0131907)
(-0.00379794 -2.13744 -0.0901128)
(-0.0124945 -2.14904 -0.104448)
(-0.0165052 -2.16339 -0.122656)
(-0.00621318 -2.07305 -0.116437)
(0.0193752 -1.99326 -0.12982)
(-0.00809966 -2.07055 -0.109123)
(-0.0182934 -2.11353 -0.103057)
(0.0173933 -1.41618 0.541942)
(-0.00375858 -1.49717 0.557412)
(-0.0187622 -1.22187 0.517359)
(-0.0290836 -1.1763 0.259558)
(0.0548037 -1.19118 0.311225)
(0.0308518 -1.37241 0.440396)
(0.0974092 -1.33576 0.336493)
(-0.0166017 -0.302843 -0.334849)
(-0.0131422 -0.370678 -0.372434)
(-0.0635527 -0.544734 -0.367202)
(-0.0308735 -0.72809 -0.114837)
(0.0902843 -0.427277 -0.253809)
(0.0609435 -0.567731 -0.184557)
(-0.211685 -0.940984 -0.169352)
(-0.153588 3.39694 -0.0022766)
(-0.130926 4.07282 0.0120377)
(-0.0767709 4.28128 -0.0571532)
(-0.155884 4.3217 -0.0250371)
(-0.156983 3.93447 0.0496509)
(-0.177649 4.02755 0.0276706)
(-0.116916 4.33146 -0.0465124)
(-0.00736031 4.61879 -0.113531)
(0.031717 4.08444 0.18179)
(0.00708175 4.42761 -0.00736145)
(-0.0774138 4.11407 0.0192262)
(-0.112692 3.91329 0.0952947)
(0.00181198 1.36986 -0.158194)
(-0.118915 1.144 -0.0248897)
(-0.0779013 1.22465 -0.197503)
(0.0373863 1.64967 -0.169869)
(-0.010775 1.70253 0.0295263)
(-0.0582441 1.35338 0.150018)
(-0.0244047 1.44076 -0.0948915)
(-0.00255221 0.110867 -0.696253)
(0.0020697 0.202057 -0.774767)
(-0.0352387 0.236278 -0.814088)
(-0.0160162 0.221202 -0.757236)
(0.00926899 0.175893 -0.744629)
(-0.0222767 0.217117 -0.81528)
(-0.0624491 0.242239 -0.820854)
(-0.00207756 0.0746943 -0.42744)
(-0.000187069 0.103883 -0.489901)
(-0.0143179 0.15092 -0.47522)
(0.0126525 0.140453 -0.434663)
(0.00488466 0.0936366 -0.428066)
(0.00796653 0.10002 -0.488677)
(-0.00759935 0.157766 -0.485391)
(0.00254167 0.187754 0.0105253)
(-0.00527043 0.182435 0.0044452)
(-0.00423192 0.190973 0.0203195)
(-0.00292227 0.179546 0.017033)
(-0.011893 0.181653 0.0347482)
(-0.0189422 0.191339 0.0324583)
(0.00696003 0.13852 0.0125679)
(0.00770624 0.140565 0.0187881)
(-0.000273368 0.146166 0.0192836)
(-0.011424 0.153634 0.0471009)
(-0.00558406 0.143166 0.0341041)
(-0.00542391 0.146278 0.0340015)
(-0.0194546 0.155851 0.0457519)
(-0.000439468 0.136655 0.018464)
(0.0105209 0.121911 0.0299594)
(-0.00394825 0.141769 0.0369601)
(-1.65675e-05 -1.66348 -0.037834)
(-8.098e-05 -1.6518 -0.0216282)
(-0.00155892 -1.66475 -0.0541751)
(-0.00343951 -1.62947 -0.0339626)
(-0.0014278 -1.6564 -0.0470611)
(-0.00448872 -1.6355 -0.0259043)
(-0.00128811 -1.65699 -0.0395556)
(-0.0770043 -0.829336 0.143212)
(-0.0172274 -0.807955 0.11809)
(0.00504032 -0.823539 0.0651995)
(0.0277504 -0.806006 0.0837713)
(-0.0249033 -0.729285 0.0553878)
(-0.0259415 -0.80079 0.0864007)
(-0.096731 -0.802861 0.0798109)
(-0.00204887 -0.953276 0.313858)
(0.00342301 -0.923932 0.256127)
(0.000595689 -0.940772 0.292008)
(0.000943286 -0.907697 0.299303)
(-0.00173788 -0.889812 0.257756)
(0.000214916 -0.889751 0.244438)
(0.000578426 -0.910298 0.287773)
(0.0361668 -1.21524 0.710252)
(-0.0044925 -1.2737 0.562882)
(0.0181628 -1.26879 0.656797)
(-0.0314705 -1.12954 0.565697)
(-0.0402236 -1.06122 0.614862)
(-0.0563249 -1.15651 0.641811)
(-0.0506798 -1.09531 0.690292)
(-0.00356597 -0.0737469 0.392119)
(-0.0215936 -0.00071455 0.330087)
(0.00808155 -0.17189 0.522467)
(0.0340734 -0.0899098 0.311834)
(-0.00989868 -0.0951624 0.244893)
(-0.0175538 -0.0444849 0.387393)
(-0.0509776 0.00698071 0.285621)
(-0.000235235 -1.43054 1.45782)
(-0.151077 -0.738874 1.65134)
(-0.0460452 -0.918734 1.38522)
(0.0225861 -1.70126 1.80486)
(-0.0448017 -1.49834 1.96202)
(-0.25323 -1.17881 1.93276)
(-0.165944 -1.40636 1.76502)
(0.305704 1.12791 0.0139552)
(0.187551 0.823594 -0.143579)
(0.0455497 1.02475 0.406558)
(-0.0552092 -0.132345 -0.0435064)
(-0.0628054 -0.0263985 0.161696)
(0.411779 -0.42063 -0.406205)
(0.538482 0.272583 0.0480645)
(-0.0144201 3.02719 -1.88188)
(0.0133929 3.10275 -1.76658)
(-0.0081139 3.22136 -1.65988)
(0.00560845 3.11556 -1.72578)
(-0.000826135 2.99585 -1.83114)
(-0.00919081 3.11529 -1.7981)
(-0.0461568 3.0705 -1.88715)
(-0.12866 2.06579 -0.941951)
(-0.0424 1.6627 -0.75142)
(-0.0154845 2.24045 -0.838738)
(0.107591 1.79918 -0.661967)
(0.0272289 2.16567 -0.913518)
(0.0268584 1.44041 -0.61208)
(-0.0764201 2.14956 -0.967844)
(0.0206991 0.127776 -2.7995)
(9.94191e-05 -0.135592 -2.79133)
(0.0634645 -0.137132 -2.80876)
(0.0773045 -0.191129 -2.77505)
(-0.155 -0.150006 -2.66049)
(-0.123373 -0.234829 -2.7347)
(0.00229917 -0.208351 -2.81417)
(0.00322839 0.0215943 -3.05984)
(-0.0556361 -0.039071 -2.95317)
(-0.00166015 -0.0839016 -2.8195)
(-0.084554 -0.116873 -2.65199)
(-0.124272 -0.13299 -2.72958)
(-0.128692 -0.0170866 -2.60984)
(-0.156296 -0.12409 -2.78802)
(-0.0134393 0.0526209 -3.1015)
(-0.0899362 -0.0389638 -2.58906)
(-0.0757337 -0.0479824 -1.65735)