/*--------------------------------*- C++ -*----------------------------------*\
| =========                 |                                                 |
| \\      /  F ield         | OpenFOAM: The Open Source CFD Toolbox           |
|  \\    /   O peration     | Version:  v2012                                 |
|   \\  /    A nd           | Website:  www.openfoam.com                      |
|    \\/     M anipulation  |                                                 |
\*---------------------------------------------------------------------------*/
FoamFile
{
    version     2.0;
    format      ascii;
    class       volScalarField;
    location    "0.45";
    object      alpha.water;
}
// * * * * * * * * * * * * * * * * * * * * * * * * * * * * * * * * * * * * * //

dimensions      [0 0 0 0 0 0 0];


internalField   nonuniform List<scalar> 
6576
(
1
1
1
1
1
1
1
1
1
1
1
1
1
1
1
1
1
1
1
1
1
1
1
1
1
1
1
1
1
1
1
1
1
1
1
1
1
1
1
1
1
1
1
0.195057
0.435963
0.655545
0.681543
0.682826
0.599698
0.655707
0.681395
0.601372
0.000366571
0.000607519
0.000358709
0.00109798
0.000358709
0.000373506
0.000748073
0.001254
0.00131363
0.00124766
0.00202381
0.00231941
0.00179978
0.00193826
0.000313448
0.000451063
0.00028998
0.000599983
0.000551275
0.00028998
0.000337489
2.33723e-05
2.61295e-05
2.73555e-05
2.60572e-05
2.92292e-05
8.49085e-05
9.12677e-05
1.15673e-06
1.6475e-06
1.1228e-06
3.97396e-06
2.8458e-06
2.6454e-06
1.48628e-06
0.0575552
0.0396797
0.0442164
0.150644
0.0853501
0.100915
0.0644713
0.0155618
0.0163854
0.0238563
0.0165597
0.0220847
0.0320977
0.014585
0.429525
0.334232
0.330474
0.367476
0.401969
0.330474
0.330474
0.477486
0.477486
0.382376
0.477392
0.382076
0.380473
1.36262e-07
4.34938e-143
2.55283e-08
5.38265e-11
2.21269e-12
1.56234e-08
2.1059e-08
0.378841
0.862283
0.96076
0.97688
0.955214
0.989185
0.978371
1.82094e-65
2.39077e-74
4.96518e-316
1.69628e-51
1.04406e-35
2.83842e-51
6.38309e-35
0.0198235
0.0136264
0.0116104
0.0122248
0.0261399
0.0158369
0.0066291
0.0012127
0.00080343
0.00127073
0.000866109
0.00146869
0.00256952
0.000923732
4.06866e-05
0.000134147
0.000103947
0.00030953
0.000158028
9.81903e-05
0.000111008
3.21515e-06
1.46728e-06
1.59736e-06
1.12383e-05
1.69876e-06
5.11102e-07
9.44778e-06
6.17263e-07
9.8375e-06
8.449e-06
8.43098e-06
6.69179e-06
1.51933e-06
2.11215e-06
7.02063e-06
8.41453e-06
4.47483e-07
6.41886e-07
1.04621e-07
6.43744e-07
4.64581e-07
1.31385e-07
1.04571e-07
2.23993e-07
2.75004e-07
7.77803e-09
5.30763e-09
7.42637e-09
5.5799e-09
1.47646e-09
5.35625e-10
2.92073e-09
2.26983e-09
7.77548e-10
3.55439e-09
9.65074e-09
3.32338e-09
8.22572e-09
7.39944e-09
4.44278e-09
1.99124e-09
2.01176e-12
1.64819e-12
1.15942e-12
2.17222e-12
2.37358e-12
2.19943e-12
1.64898e-12
1.84263e-13
4.56271e-14
7.61572e-14
9.98774e-13
1.4505e-12
1.03651e-12
7.30674e-13
5.16357e-22
3.00729e-20
1.00591e-18
1.17977e-17
3.04383e-17
3.76378e-18
2.8872e-19
2.07259e-08
2.1533e-08
1.31802e-08
5.56862e-07
8.52685e-07
1.47906e-07
1.00819e-07
5.96636e-07
4.84026e-07
3.00556e-07
2.30557e-07
3.39403e-07
3.73431e-07
2.98487e-07
4.82884e-08
4.84205e-08
6.43897e-08
1.21968e-07
4.85913e-08
6.41871e-08
1.44484e-07
9.30334e-07
1.86246e-06
7.77925e-07
4.96677e-07
1.48223e-06
4.14762e-07
5.87022e-07
1.28824e-05
5.81457e-06
1.30112e-05
5.52044e-06
1.05925e-06
3.58392e-06
9.64423e-07
1.62222e-06
9.1542e-06
2.06168e-05
5.57559e-05
2.20269e-05
7.79007e-06
7.63841e-06
2.35331e-05
1.43488e-05
0.19654
0.35859
0.196648
0.326479
0.242211
0.122754
0.675838
0.559929
0.567889
0.559903
0.577313
0.577808
0.578109
0.559903
0.577808
0.560508
0.467819
0.458785
0.467934
0.413069
0.447419
0.413069
0.41379
0.566273
0.52427
0.462273
0.555001
0.452824
0.391415
0.57612
0.553817
0.42192
0.410546
0.410546
0.414474
0.411109
0.516645
0.515564
0.427121
0.516645
0.513839
0.41099
0.568213
0.761075
0.923823
0.510761
0.5733
0.92422
0.923836
0.201769
0.0791541
0.0303989
0.0542331
0.0400177
0.0306045
0.0305455
0.0294969
0.0296921
0.323705
0.175103
0.043224
0.328503
0.059788
0.133728
0.133031
0.00192654
0.00192654
0.00192784
0.00219325
0.0025981
0.00199628
0.00421812
0.00575435
0.00575661
0.0138187
0.0649455
0.0299235
0.0277241
0.00983818
0.0135919
0.0225561
0.0346557
0.0588787
0.034941
0.0242787
0.0468795
0.168284
0.516213
0.267141
0.0516142
0.57257
0.570105
0.567463
0.577416
0.577324
0.577202
0.576747
0.577653
0.577743
0.577705
0.577662
0.577729
0.577808
0.577765
0.577765
0.561541
0.0740566
0.0184421
0.128785
0.0183843
0.127967
0.00956222
0.0344766
0.0069016
0.00350375
0.0112558
0.00499483
0.0113164
0.00302691
0.00608549
0.00848072
0.00707143
0.00697193
0.00900569
0.0152393
0.00798069
0.0049802
0.00464469
0.00847234
0.0261524
0.345039
0.0853534
0.0455606
0.0429908
0.106539
0.0260292
0.161266
0.212067
0.433921
0.434591
0.435268
0.365179
0.43618
0.437007
0.434351
0.0137603
0.0267426
0.0640275
0.0349037
0.0121277
0.00814747
0.0591643
0.929687
0.929681
0.929687
0.727405
0.9005
0.866831
0.929681
2.9372e-06
4.30405e-06
3.18678e-06
5.68782e-06
2.87461e-06
5.17303e-06
2.58827e-06
2.08288e-05
1.1698e-05
1.14287e-05
1.43646e-05
3.3336e-05
1.75061e-05
1.28211e-05
0.000279102
0.000269514
0.000377967
0.000463704
0.000854584
0.000906485
0.000464225
0.00700065
0.0146176
0.0225456
0.0198938
0.016535
0.0558002
0.0954544
0.0333255
0.0581499
0.00875172
0.00854947
0.0085194
0.0315215
0.0390131
0.0128319
0.0219728
0.133394
0.193029
0.183933
0.133087
0.136418
0.132621
0.156642
0.0215962
0.00719122
0.0291899
0.10598
0.0690534
0.0382666
0.105552
0.0949062
0.0420364
0.0555067
0.0949263
0.0949089
0.0453376
0.0949263
0.183491
0.123781
0.162336
0.18351
0.0881599
0.156567
0.0628266
0.0860123
0.0949263
0.0189608
0.0862078
0.0872808
0.18351
0.000144752
0.000144752
0.000144752
0.000177655
0.000144786
0.000166785
0.000144752
0.000804289
0.000348433
0.000798481
0.000805857
0.000371678
0.000736234
0.000342813
0.000265699
0.000254302
0.000273398
0.000248673
0.000450927
0.000455186
0.000264714
0.000245752
0.00045536
0.000453259
0.00045536
0.00045536
0.000232374
0.000452576
0.000450088
0.000126558
0.000205133
0.000452576
0.000377883
0.000169195
0.00045536
3.1152e-05
2.62377e-05
1.86583e-05
3.92345e-05
4.52441e-05
3.32081e-05
1.82385e-05
1.07673e-05
5.84995e-06
3.90273e-06
3.33395e-05
2.51642e-05
1.3582e-05
1.56205e-05
5.70733e-06
6.39803e-06
5.5388e-06
1.20168e-06
7.62785e-06
5.34268e-06
5.68226e-06
3.02283e-06
3.44171e-06
1.22075e-05
8.9876e-06
8.64106e-06
7.42705e-06
1.18694e-05
8.30317e-06
2.70836e-06
1.7513e-06
6.42209e-07
9.21866e-07
6.39983e-07
6.4598e-07
8.57511e-07
1.69148e-06
9.42828e-07
1.36544e-06
9.53503e-07
4.24473e-06
5.39613e-06
8.85607e-07
7.4284e-07
1.06027e-06
1.56617e-07
4.60133e-07
6.42119e-08
1.65109e-07
6.61537e-08
7.91586e-08
1.21728e-07
4.17054e-08
1.95611e-08
1.93951e-08
3.4631e-08
8.30464e-11
3.27663e-10
5.29521e-10
3.65087e-11
1.74044e-10
1.12961e-10
4.09615e-11
0.00104129
0.000504845
0.000462519
0.000976781
0.000445184
0.000443618
0.000484244
0.00166067
0.00165006
0.00294062
0.00149268
0.00108117
0.000941384
0.00111172
0.0011366
0.00193988
0.00269187
0.00562733
0.00269193
0.00623893
0.00248161
0.00760127
0.00337714
0.834669
0.942479
0.835997
0.838368
0.942498
0.942479
0.893958
0.928793
0.880894
0.896733
0.930615
0.942444
0.798958
0.918896
0.0390561
0.0396646
0.497738
0.7434
0.618442
0.123919
0.130603
0.0154481
0.0130795
0.0256449
0.0145015
0.00781814
0.0172372
0.0122662
0.150427
0.0720939
0.16986
0.176683
0.0877733
0.0756281
0.052068
0.0410005
0.0228673
0.632403
0.638161
0.595159
0.609382
0.595143
0.650069
0.637317
0.643829
0.642144
0.619791
0.22825
0.646878
0.657032
0.621157
0.250873
0.607247
0.653529
0.656778
0.656573
0.656836
0.656617
0.65659
0.656679
0.656428
0.65633
0.631992
0.636927
0.636927
0.636927
0.445393
0.22949
0.422689
0.490317
0.42192
0.549209
0.555001
0.105712
0.159101
0.388335
0.379096
0.369322
0.391898
0.379707
0.469152
0.384605
0.385193
0.384605
0.529996
0.513945
0.41107
0.41099
0.0178526
0.0244233
0.0359788
0.00709054
0.0165644
0.0329538
0.0242461
0.458484
0.446084
0.458576
0.0243689
0.0567676
0.579485
0.579423
0.579305
0.57911
0.57911
0.17509
0.228826
0.577423
0.577516
0.573999
0.252187
0.319313
0.244562
0.244584
0.245237
0.31903
0.497704
0.107017
0.369021
0.058862
0.323267
0.568368
0.135461
0.0553356
0.493346
0.129227
0.530478
0.568368
0.346483
0.506206
0.5082
0.506207
0.45922
0.510358
0.487034
0.507428
0.510396
0.512203
0.519821
0.51992
0.519814
0.51992
0.51941
0.479744
0.516585
0.51992
0.51992
0.308337
0.476326
0.477234
0.477081
0.518365
0.520579
0.520548
0.520356
0.332122
0.257217
0.271397
0.505529
0.510871
0.512264
0.512204
0.0178368
0.0126906
0.0124407
0.0277624
0.0171667
0.0139085
0.0136073
0.015767
0.00608804
0.00952066
0.014029
0.0263544
0.0153583
0.0136073
0.00128673
0.00103144
0.00124029
0.00070037
0.000872076
0.000701053
0.000911975
0.00320912
0.00154399
0.00321
0.000849562
0.00223595
0.00272934
0.00263715
0.000486771
0.000476483
0.000926398
0.000389691
0.000644006
0.000484102
0.00050199
0.000388903
0.000388921
0.000388959
0.000647067
0.000647777
0.000619067
0.000647652
0.000486021
0.000609313
0.00449121
0.0019331
0.000880681
0.00071776
0.00102044
0.000798984
0.00245958
0.00144436
0.00439556
0.00967147
0.00932895
0.00937488
0.0176497
0.0165498
0.0321372
0.0202959
0.000153095
0.000197264
0.0003007
9.67639e-05
0.00014044
0.000186327
4.336e-05
2.88628e-06
5.24817e-06
9.20205e-07
6.25453e-07
7.15672e-07
2.13631e-07
4.96057e-07
7.41665e-07
2.63163e-06
1.0192e-05
4.70259e-05
2.11307e-05
0.00433008
0.00123223
0.0033815
0.0143546
0.0232623
0.00284707
0.00813253
0.0556797
0.0584225
0.0523684
0.410519
0.143668
0.119625
0.111514
0.848909
0.835964
0.372249
0.411253
0.928375
0.509656
0.372719
0.748575
0.860084
0.720939
0.489147
0.743457
0.570612
0.685268
0.775756
0.794433
0.497711
0.928375
0.872266
0.849598
0.49138
0.540003
0.365265
0.365691
0.365265
0.365265
0.736559
0.445955
0.498482
0.365875
0.631487
0.679234
0.790197
0.749297
0.387872
0.387929
0.173681
0.164233
0.664056
0.175884
0.66204
0.644205
0.124339
0.13228
0.183491
0.00118655
0.00118247
0.00118247
0.00144757
0.0019891
0.00207145
0.00138285
0.000312671
0.000461784
0.00032379
0.000327628
0.000326442
0.000401847
0.000302309
3.86435e-05
5.52364e-05
3.72886e-05
5.57301e-05
7.18607e-05
6.20184e-05
2.47588e-05
3.22571e-05
3.91548e-05
5.5757e-05
6.59052e-06
5.16463e-06
5.56145e-06
4.86505e-06
1.0874e-05
4.85032e-06
4.85331e-06
1.12617e-05
1.12617e-05
1.15318e-05
1.13232e-05
2.07436e-05
2.14089e-05
1.11376e-05
4.70608e-06
7.26697e-06
4.05759e-06
4.43723e-06
8.38275e-06
1.53224e-10
4.56887e-11
1.25332e-11
2.03146e-07
3.44706e-08
1.546e-08
4.25028e-08
2.40481e-08
1.90612e-07
2.08004e-07
2.9902e-08
1.59099e-07
3.47809e-07
6.75055e-07
2.89572e-05
1.84154e-05
3.11058e-06
2.40807e-06
1.44968e-06
1.07395e-05
9.62507e-06
2.53453e-06
9.82667e-07
1.10373e-06
3.05837e-05
7.04717e-07
3.11073e-05
2.33885e-05
2.99784e-06
4.05121e-06
2.19296e-07
2.82682e-07
2.78295e-07
1.74009e-07
2.8274e-07
2.18813e-07
3.73364e-07
8.02589e-10
4.01498e-09
2.62518e-09
1.0627e-09
6.75223e-10
3.03103e-12
3.56804e-12
4.07012e-12
3.26362e-12
2.36482e-12
2.93918e-12
2.50411e-12
1.84118e-11
2.81928e-11
2.48333e-11
5.59252e-12
9.02996e-12
8.72788e-12
9.6922e-12
1.51482e-11
1.27757e-11
0.000818746
0.00141596
0.0017343
0.000842302
0.00173423
0.00127034
0.00173423
0.00173423
0.0011448
0.00128428
0.00411904
0.00387511
0.00127274
0.00292743
0.00605041
0.00302502
0.000545541
0.000612956
0.000859927
0.000743449
0.000840734
0.000547372
0.000548614
0.0580571
0.117768
0.0425
0.0236298
0.0440046
0.015068
0.0161055
0.0132783
0.0132791
0.862031
0.64323
0.939782
0.108753
0.196225
0.38989
0.102111
0.518376
0.431609
0.430581
0.584618
0.438049
0.503412
0.430646
0.392084
0.379583
0.616724
0.447672
0.607825
0.618735
0.619485
0.546403
0.620255
0.608467
0.461013
0.556827
0.466464
0.620351
0.553375
0.61355
0.626507
0.587805
0.629688
0.592395
0.590724
0.591898
0.625868
0.623351
0.587787
0.618559
0.65566
0.655868
0.655673
0.656333
0.65671
0.656499
0.00103075
0.00242827
0.00555596
0.00302964
0.00586744
0.00195638
0.00319027
0.442981
0.424377
0.5125
0.520617
0.520617
0.443466
0.520618
0.520618
0.170572
0.520565
0.475807
0.50073
0.520598
0.509753
0.518327
0.510046
0.518346
0.484572
0.494059
0.428906
0.520008
0.51963
0.520077
0.605146
0.589222
0.594891
0.489674
0.500861
0.501753
0.504222
0.609158
0.430449
0.432469
0.426666
0.42246
0.494839
0.0104052
0.0267718
0.0155545
0.0333088
0.0517243
0.0240992
0.0244636
0.0250489
0.0106004
0.046332
0.0139931
0.0482692
0.0112171
0.0255155
0.00190479
0.00126383
0.00360125
0.00181866
0.00409869
0.00126383
0.00191144
0.00108836
0.00108741
0.00101848
0.00101891
0.00101848
0.00153076
0.00102821
0.0655638
0.064318
0.391713
0.0968034
0.574564
0.119369
0.112072
0.612787
0.802928
0.893045
0.892986
0.893035
0.893019
0.893033
0.0011994
0.00486617
0.00274025
0.0109881
0.00707537
0.00332583
0.0114607
0.000533321
3.26195e-05
2.17869e-05
0.000238188
3.13531e-05
3.14473e-05
5.15582e-05
9.53905e-07
1.42083e-06
4.0054e-07
8.96288e-07
4.90161e-07
1.16344e-06
3.64394e-06
0.00318127
0.00435744
0.00496485
0.00371775
0.00711398
0.0078202
0.00492626
0.224106
0.123027
0.0955196
0.597558
0.439268
0.145888
0.302272
0.340519
0.133326
0.10361
0.10361
0.104252
0.104763
0.359248
0.108295
0.140245
0.107993
0.19164
0.739094
0.242466
0.108601
0.745082
0.919649
0.620831
0.919649
0.919649
0.919404
0.919492
0.923328
0.927465
0.640735
0.922451
0.925064
0.867096
0.855154
0.817825
0.909188
0.704359
0.735339
0.704365
0.704548
0.704365
0.745707
0.730064
0.708331
0.77729
0.71027
0.705759
0.810777
0.745982
0.822028
0.846205
0.859896
0.846187
0.927285
0.853489
0.925909
0.927657
0.872228
0.727782
0.926815
0.926753
0.809233
0.856041
0.810188
0.926815
0.925895
0.927133
0.861935
0.727471
0.863942
0.656548
0.489147
0.489147
0.102475
0.0828241
0.106526
0.141874
0.28428
0.446401
0.629615
0.0179442
0.0320245
0.0178887
0.0256957
0.0533272
0.0025677
0.00374981
0.00259276
0.00892087
0.00760525
0.00448422
0.00527489
0.00572706
0.0225661
0.0143601
0.0072858
0.00403241
0.0112796
0.00798635
0.000767844
0.000621982
0.000979074
0.000671328
0.000933285
0.00198851
0.000894314
4.93661e-06
4.9392e-06
6.56244e-06
8.31e-06
8.84968e-06
6.95525e-06
6.88006e-06
6.85925e-06
1.40292e-05
1.97341e-05
9.44339e-06
8.21472e-06
3.50865e-06
1.78728e-05
3.02536e-05
2.76224e-05
3.01333e-05
2.10926e-05
8.94882e-06
3.37685e-06
3.96333e-07
1.69204e-06
1.10221e-05
1.57729e-07
6.22328e-06
6.60306e-06
6.61097e-07
2.82748e-07
2.17267e-07
1.32306e-07
1.51073e-07
7.55586e-07
6.38354e-08
1.131e-07
4.43197e-07
2.59402e-07
3.66599e-08
8.46215e-09
6.08513e-08
6.79385e-06
5.2438e-07
8.55208e-06
6.73685e-06
2.21569e-06
8.45818e-06
3.94253e-06
1.44533e-06
1.41256e-06
3.12983e-06
3.75044e-06
1.40935e-06
2.69614e-07
1.39049e-06
1.2044e-06
1.45525e-06
1.28335e-06
3.2413e-08
2.71096e-08
7.04372e-09
2.63149e-08
7.62742e-08
4.10938e-09
3.12031e-08
2.03583e-06
4.59527e-06
1.00067e-06
1.67811e-06
1.04362e-06
1.74473e-07
4.50036e-07
5.36735e-17
3.34487e-11
3.54788e-11
3.76969e-17
1.85945e-11
1.95814e-11
4.98915e-13
2.1947e-10
4.01819e-11
1.1204e-09
2.01575e-09
1.57794e-09
1.27067e-09
7.75863e-10
2.61598e-05
1.88815e-05
2.61667e-05
2.50107e-05
8.60734e-06
9.02151e-06
1.2479e-05
1.08061e-05
1.08261e-05
1.08261e-05
2.1286e-05
1.29533e-05
1.08191e-05
1.08061e-05
4.69314e-06
5.05387e-06
1.11512e-05
4.49613e-06
6.23979e-06
4.49613e-06
5.72908e-06
0.00243307
0.00274181
0.004422
0.000933663
0.000375238
0.000997441
0.00125231
0.00188421
0.00217646
0.00519041
0.00139078
0.00373293
0.00519041
0.0051904
0.0051904
0.00465665
0.00284556
0.00301188
0.00281454
0.00269797
0.00144239
0.0028413
0.00185391
0.00150095
0.000728786
0.0015401
0.000505783
0.000253662
0.000529632
0.000483417
0.000654553
0.00102484
0.000605347
0.000605347
0.000604793
0.00045145
0.000372345
0.000208239
0.000342921
0.000603587
0.0003263
0.00562972
0.00497695
0.00317723
0.0024283
0.000937942
0.00327391
0.00155664
0.0462822
0.0706531
0.0914996
0.0856736
0.04637
0.043956
0.096901
0.311226
0.296129
0.269857
0.841757
0.84116
0.832488
0.84116
0.699576
0.767754
0.804314
0.796662
0.698614
0.698031
0.697187
0.894632
0.893502
0.854348
0.780945
0.896654
0.896521
0.896906
0.596892
0.276923
0.303332
0.0727301
0.0887694
0.0923537
0.155108
0.43208
0.418967
0.537031
0.419225
0.418993
0.521489
0.419472
0.51089
0.520799
0.516221
0.28985
0.281663
0.522064
0.523843
0.418912
0.418912
0.527402
0.539903
0.420062
0.531059
0.605504
0.464772
0.594005
0.608038
0.608467
0.608038
0.607619
0.465623
0.468526
0.442702
0.621632
0.620904
0.620904
0.00300908
0.00282447
0.00870441
0.00282447
0.00282539
0.00203289
0.0054794
0.640887
0.577529
0.598815
0.638786
0.635225
0.188279
0.640887
0.616597
0.627911
0.617445
0.535025
0.535944
0.539684
0.497661
0.441073
0.54547
0.255914
0.480262
0.535367
0.441105
0.0117125
0.0197891
0.0118547
0.0143196
0.0252968
0.0230081
0.00568749
0.00406852
0.0105388
0.00349771
0.0104636
0.0232738
0.0232339
0.00910058
0.00868169
0.00856928
0.0122885
0.00900116
0.00925817
0.0084448
0.00817194
0.239027
0.083071
0.227663
0.119581
0.0817072
0.0231106
0.0710743
0.0449129
0.0381332
0.00325037
0.00165809
0.00169765
0.0982472
0.0416631
0.386541
0.159899
0.000958789
0.000581054
0.00117078
0.00135374
0.00132996
0.00679731
0.00546607
0.00383214
0.00663152
0.000563902
0.000272097
0.000417469
0.00109603
0.000380614
0.000877934
0.00171185
0.00104657
0.00218218
0.000159414
9.68128e-05
9.96942e-05
0.000180617
8.07882e-05
0.000295254
0.000115799
0.900176
0.774778
0.752886
0.908352
0.908978
0.908066
0.873336
0.795377
0.790863
0.661925
0.333004
0.255263
0.124905
0.1249
0.613481
0.552576
0.548757
0.70624
0.70624
0.70624
0.706326
0.833148
0.5717
0.628848
0.45388
0.763855
0.456673
0.452903
0.705287
0.596097
0.706326
0.706126
0.705521
0.844407
0.725711
0.589158
0.841286
0.845118
0.335658
0.696714
0.694536
0.541711
0.705173
0.845118
0.844407
0.699275
0.845118
0.845118
0.823055
0.742256
0.823055
0.426109
0.631094
0.424824
0.88993
0.880202
0.909726
0.884677
0.490804
0.572633
0.780013
0.923357
0.923357
0.610399
0.607624
0.334307
0.166095
0.35619
0.448829
0.610017
0.50915
0.538426
0.374408
0.60464
0.604741
0.599417
0.603501
0.0410941
0.0150005
0.0175258
0.0504227
0.0823979
0.0336687
0.0774884
7.97472e-07
7.9838e-07
7.97472e-07
8.61853e-07
7.9838e-07
1.0094e-06
1.02184e-06
8.63811e-06
3.58529e-06
4.75547e-06
3.17945e-06
4.06304e-06
9.97952e-06
3.55733e-06
1.50865e-07
1.12059e-07
4.83709e-07
8.14501e-10
6.31386e-11
8.79811e-10
3.75267e-09
7.2206e-10
5.27005e-10
1.93765e-09
1.9783e-09
1.66893e-17
6.01294e-09
5.88625e-27
9.91805e-26
2.95601e-28
3.96618e-17
1.45997e-17
7.63494e-19
1.64561e-18
2.43802e-15
3.75175e-16
8.42686e-16
2.85264e-47
4.31645e-48
1.07679e-33
2.34148e-21
8.07713e-22
1.43177e-32
1.90991e-50
2.5725e-49
4.43287e-36
3.80109e-20
2.32983e-20
9.97486e-22
1.96445e-21
1.413e-21
1.17276e-21
1.58088e-22
0.31682
0.817319
0.973623
0.952071
0.985479
0.951761
0.932889
0.00260599
0.000876304
0.00264871
0.00847324
0.00926858
0.00541937
0.0164808
0.00182786
0.0208137
0.00356647
0.0109844
0.00182293
0.0681592
0.0061482
1.6783e-08
7.80514e-08
5.8695e-08
3.35223e-08
4.85665e-07
2.90824e-07
6.62305e-09
0.000186706
0.00047774
0.000751477
5.68302e-05
0.00184604
0.000461392
0.00228544
1.62561e-05
3.51683e-05
2.32553e-05
3.07805e-05
7.18309e-05
0.000103454
4.49931e-05
0.000433133
0.000436112
0.000436294
0.000353794
0.000251112
0.00023474
0.000405273
0.000166929
5.13895e-05
1.31144e-05
1.30607e-05
1.59404e-05
2.19885e-05
5.18177e-05
2.02057e-05
1.30607e-05
1.37668e-05
1.37874e-05
5.05881e-05
4.80911e-05
2.73955e-05
0.000123645
5.68959e-05
8.06529e-05
7.42569e-05
5.86899e-05
4.78394e-05
5.48478e-05
0.000104877
5.53495e-05
0.000216697
0.000272916
0.00030698
0.000218265
0.000219526
0.000153231
0.000318292
0.323954
0.151666
0.152378
0.202745
0.281604
0.338919
0.200692
0.731182
0.427048
0.39689
0.669739
0.469997
0.468385
0.39443
0.882107
0.897142
0.73332
0.803693
0.73332
0.620905
0.897456
0.808028
0.897456
0.775721
0.739983
0.786434
0.739983
0.89741
0.754934
0.804517
0.618091
0.55098
0.751245
0.810898
0.543815
0.546736
0.730441
0.543815
0.763824
0.897096
0.758552
0.460944
0.471081
0.460846
0.769574
0.572909
0.769574
0.591383
0.679859
0.674024
0.374525
0.0732538
0.0727178
0.608965
0.438134
0.33368
0.534865
0.524756
0.524594
0.461559
0.195901
0.17004
0.111384
0.173489
0.0738901
0.095985
0.0452276
0.000910706
0.00048315
0.000927833
0.000927797
0.000495132
0.000480938
0.000490007
0.0011975
0.0017686
0.0017686
0.0017686
0.0016021
0.00143844
0.00167569
0.0156918
0.039409
0.0406543
0.0210366
0.00708168
0.00846469
0.0213594
0.0231665
0.022802
0.0444095
0.0863172
0.0414878
0.0224892
0.10155
0.899425
0.899437
0.899437
0.899437
0.899425
0.880525
0.841807
0.498282
0.85994
0.859749
0.862457
0.85994
0.85994
0.0637949
0.0750422
0.225308
0.0594841
0.0570709
0.199866
0.0589141
0.0496034
0.0538324
0.0866518
0.0489899
0.0491813
0.0515769
0.0659062
0.171499
0.347492
0.114654
0.366157
0.0802551
0.0748149
0.186137
0.704311
0.382411
0.398991
0.704299
0.704311
0.704236
0.379666
0.579432
0.580163
0.579252
0.317394
0.314757
0.579313
0.317905
0.580163
0.324905
0.317567
0.511964
0.512411
0.513278
0.428794
0.158577
0.513352
0.506734
0.375074
0.132613
0.134573
0.0738286
0.434475
0.129162
0.128211
0.750642
0.79466
0.727275
0.0971002
0.10317
0.3496
0.395835
0.832337
0.838191
0.891358
0.898241
0.896679
0.899246
0.899213
1.25142e-08
2.81778e-08
1.5842e-08
2.93132e-08
2.55432e-08
2.14933e-08
2.00182e-08
3.26138e-09
2.53141e-09
9.00342e-10
5.57322e-09
5.29465e-09
8.91634e-10
9.33232e-10
1.20173e-11
4.33379e-11
7.63692e-12
3.58946e-11
1.93053e-11
4.74281e-14
5.26804e-14
1.16432e-13
6.63538e-14
1.35009e-13
6.58391e-14
2.76134e-13
0.922202
0.729503
0.968636
0.764859
0.865752
0.222571
0.898023
0.000607773
0.00145541
0.00181121
0.000252091
0.000929781
0.0020782
0.000658525
7.60068e-05
5.73842e-06
2.61081e-05
1.00816e-05
5.58691e-06
5.69677e-06
9.01731e-06
3.29067e-09
1.28563e-09
1.9716e-09
1.40077e-06
1.41094e-06
1.40077e-06
1.52248e-06
2.27657e-06
2.51955e-06
1.94644e-06
1.68643e-06
1.40366e-06
3.51929e-06
1.15726e-05
5.42736e-06
5.30654e-06
2.31141e-05
1.12916e-05
5.28539e-06
2.65828e-05
0.000140929
2.76654e-05
0.000233661
0.000117059
9.61909e-05
5.94675e-05
0.000452348
0.000278132
0.000284942
0.00029827
7.84821e-05
0.000103756
0.000253445
0.000403956
0.000150874
0.000274249
0.000182893
0.000150707
0.000177916
0.000343585
0.000451359
0.000383622
0.000451056
0.000451056
0.000451359
0.000285661
0.000451056
0.000108502
0.000269722
0.000108062
0.000139744
0.000236566
0.000448957
0.000225923
4.59126e-05
9.45797e-05
4.60654e-05
4.61982e-05
4.62062e-05
4.62062e-05
4.65901e-05
5.49262e-05
4.62928e-05
0.000414862
0.000272147
0.000326602
0.000549867
0.000799532
0.00104529
0.00111034
0.111941
0.111954
0.111936
0.150829
0.354451
0.111935
0.230452
0.111954
0.133469
0.191946
0.247991
0.113807
0.181118
0.113807
0.337457
0.139357
0.354451
0.215607
0.1627
0.15267
0.125878
0.463596
0.112823
0.770488
0.441261
0.773545
0.517622
0.590351
0.594744
0.502055
0.771524
0.767594
0.394462
0.897458
0.740455
0.896769
0.809376
0.886266
0.617677
0.894929
0.618936
0.895307
0.893805
0.901823
0.892327
0.479583
0.281161
0.681938
0.901822
0.901766
0.00314342
0.000902871
0.00698809
0.000553859
0.000555797
0.000389154
0.000516496
0.000631703
0.00054217
0.000531679
0.000388855
0.000388959
0.000283319
0.000282867
0.000401298
0.000283696
0.000400699
0.000283107
0.000283128
0.00031642
0.000322262
0.000576451
0.000314485
0.000615859
0.000280027
0.000284343
0.0003503
0.000280344
0.000280522
0.000279677
0.000279677
0.00247726
0.000910997
0.001237
0.000338029
0.00146975
0.000279684
0.00111125
0.00719968
0.00411149
0.00713674
0.00293237
0.00299331
0.00145669
0.0041187
0.899437
0.862587
0.546326
0.921741
0.925307
0.925314
0.925314
0.925311
0.925118
0.9253
0.899761
0.631484
0.899761
0.472289
0.900156
0.845253
0.915423
0.912993
0.9148
0.91575
0.915733
0.89103
0.700251
0.917984
0.924739
0.810431
0.660267
0.660267
0.660267
0.599517
0.60954
0.660258
0.660257
0.660263
0.660278
0.660257
0.0276074
0.0721208
0.0713468
0.0298395
0.0115358
0.0514839
0.0276559
0.0978046
0.0222453
0.0469255
0.0190689
0.0317552
0.0350291
0.0527234
0.00901921
0.0296629
0.012503
0.0241776
0.0961489
0.148928
0.0577672
4.01382e-09
4.95608e-09
3.21995e-08
6.27265e-10
3.9212e-09
1.14736e-08
5.98987e-10
3.92955e-09
1.093e-08
5.24375e-12
2.9138e-10
4.52458e-10
5.57814e-12
7.72681e-12
2.52654e-13
1.66997e-13
6.09206e-13
9.70168e-14
1.14113e-13
2.82997e-13
5.00929e-14
3.26153e-14
5.24784e-14
6.4174e-15
1.48656e-14
2.2826e-14
5.41127e-15
1.15758e-14
4.61826e-05
5.30815e-05
7.46266e-05
0.000133875
0.000339917
0.00018309
3.91174e-05
9.75037e-06
7.22143e-06
7.23559e-06
8.60181e-06
1.30975e-05
1.72671e-05
9.70824e-06
8.87407e-06
1.64145e-05
5.16439e-06
5.45976e-06
1.19499e-05
1.01495e-05
7.58364e-06
1.95308e-05
1.27269e-05
0.000294371
0.000159932
0.000159601
0.000455155
0.000296872
0.000312936
0.000459035
2.32629e-05
6.20853e-05
2.29991e-05
0.000264629
0.000238656
0.000263152
6.20012e-05
0.000142217
3.55173e-06
0.000117311
0.000264725
0.000264725
0.000245124
1.53123e-06
6.0949e-06
1.03089e-11
3.01444e-06
5.8943e-07
2.47632e-07
3.09521e-11
2.7617e-26
9.09847e-10
1.81545e-08
4.24122e-09
1.87291e-08
3.70687e-09
0.000340914
0.000336563
0.000457121
0.000567883
0.000337793
0.000148459
0.000148213
0.00014789
0.000147817
0.000147224
0.00055463
7.52959e-05
0.000579494
0.000427409
0.000183069
0.000253212
0.012232
0.0195579
0.0121337
0.0368188
0.0160843
0.0619861
0.0336576
0.143732
0.148196
0.143732
0.190973
0.143742
0.143837
0.190328
0.143727
0.143731
0.154238
0.143742
0.143727
0.143754
0.216522
0.143729
0.143729
0.143728
0.259365
0.359899
0.25937
0.363232
0.363229
0.362736
0.283354
0.113672
0.113717
0.0208794
0.0400887
0.0194771
0.0220423
0.0464061
0.0369014
0.0194584
0.942364
0.94233
0.911573
0.943477
0.943485
0.942583
0.943341
0.942142
0.942134
0.926151
0.942245
0.939093
0.926117
0.939021
0.174784
0.834614
0.839317
0.168861
0.554696
0.838581
0.839162
0.0693245
0.0476963
0.065054
0.0477602
0.0795086
0.0979652
0.253176
0.00340717
0.00138277
0.00759378
0.00138277
0.00138277
0.00238196
0.00304606
0.0329182
0.0200588
0.0340667
0.0266685
0.0201802
0.0338816
0.0353066
0.0038526
0.00527782
0.00737755
0.00642557
0.00347674
0.00131643
0.00139275
0.00326086
0.00131739
0.00131643
0.00238859
0.00169478
0.000418445
0.000433308
0.000283059
0.000464693
0.00119438
0.000282192
0.000507522
0.000362323
0.000451215
0.000361532
0.000879369
0.00103802
0.000828816
0.000579988
0.91575
0.91575
0.916722
0.870658
0.87061
0.870658
0.870409
0.860884
0.87061
0.87061
0.889741
0.89107
0.889741
0.889741
0.43149
0.792916
0.871418
0.871418
0.871418
0.871392
0.871444
0.870591
0.650774
0.848357
0.87061
0.594032
0.00956533
0.0123132
0.0127392
0.00547286
0.00591017
0.00591804
0.0126202
0.643317
0.643317
0.643317
0.643312
0.634049
0.587474
0.523041
0.659622
0.64163
0.64163
0.659213
0.659077
0.660434
0.646703
0.643312
0.342894
0.643303
0.64589
0.660434
0.660434
0.0856622
0.0220239
0.253325
0.042972
0.270601
0.0184157
0.0903691
0.00709243
0.0040697
0.0151501
0.0156428
0.00659746
0.0069839
0.00476415
0.00513663
0.00476415
4.1716e-05
0.000108075
4.0869e-05
0.000131385
0.00018631
0.000304888
7.96383e-05
0.000140266
1.08492e-05
0.000812011
0.000140495
2.17386e-05
0.000876741
0.000756083
8.01162e-05
7.01141e-05
8.90758e-05
4.53204e-05
4.17251e-05
4.01892e-05
5.87757e-05
5.18932e-07
2.40307e-07
2.46421e-07
0.000224768
0.000106152
5.30082e-05
7.13431e-05
0.000713921
0.000186689
1.47401e-05
3.59352e-07
9.96051e-09
6.53538e-07
1.02115e-05
2.28191e-06
8.23717e-08
1.31977e-08
1.36764e-07
2.25161e-07
9.66455e-08
4.8925e-30
3.22e-08
3.42774e-05
1.76819e-05
6.30585e-06
6.71966e-05
0.000140092
4.84956e-05
1.22883e-05
9.00938e-06
6.22505e-06
4.1147e-05
7.93409e-05
9.603e-05
7.81601e-05
0.000334519
0.000141041
0.000339691
2.50659e-05
6.19145e-05
4.09686e-05
1.85345e-05
0.000162132
0.000249558
6.62138e-05
0.000178461
0.000168032
0.00016803
0.000166353
0.000300721
0.00032857
0.000164962
0.220479
0.239646
0.200936
0.138933
0.0424335
0.135202
0.258503
0.181692
0.258428
0.175427
0.207628
0.258503
0.258503
0.258503
0.186068
0.190973
0.143731
0.000223884
0.000222595
0.000246025
0.000404467
0.000307217
0.000269878
0.000496278
0.000591979
0.00148262
0.00292148
0.00371046
0.00297741
0.00159062
0.00213443
0.00819184
0.00375
0.0037168
0.00553167
0.0140776
0.00427572
0.0128974
0.00142251
0.00177455
0.00379473
0.00143531
0.00144667
0.00133785
0.00225969
0.00986849
0.0175836
0.00633617
0.00963186
0.00633617
0.0092958
0.0224
0.000823617
0.00103196
0.000833696
0.00102222
0.00200557
0.00101724
0.00098976
0.0160296
0.0159594
0.010653
0.0141886
0.0107699
0.0120034
0.00408096
0.00258176
0.000553454
0.00150041
0.00150681
0.00246632
0.00757271
0.0014719
0.0424561
0.0424421
0.043244
0.0793406
0.0348728
0.0327382
0.0344094
0.0180715
0.0861534
0.0468457
0.0231975
0.0139308
0.092053
0.260277
0.0804419
0.157591
0.0798399
0.0564469
0.108983
0.0760994
0.156224
0.882896
0.882156
0.289423
0.701704
0.153593
0.845535
0.879822
0.877467
0.344508
0.595502
0.541189
0.521931
0.54066
0.540834
0.591136
0.506898
0.154296
0.0687745
0.105044
0.0593183
0.0615086
0.0660796
0.153274
0.0429165
0.0917614
0.0155145
0.100211
0.016844
0.00966431
0.0402743
0.0137903
0.0136421
0.0331383
0.00832833
0.0262155
0.0332489
0.0222408
0.0331949
0.0194278
0.0325097
0.0580039
0.0620989
0.0236153
0.0439172
0.13754
0.165328
0.0808069
0.144258
0.0652579
0.403627
0.0681867
0.871415
0.87124
0.871321
0.864636
0.864626
0.864626
0.853387
0.866235
0.86467
0.86465
0.868021
0.869717
0.868021
0.868022
0.866845
0.634342
0.864625
0.864636
0.828047
0.689037
0.689052
0.689052
0.442619
0.627621
0.633491
0.689052
0.242213
0.244523
0.241973
0.28601
0.851451
0.441347
0.855186
0.850665
0.810761
0.856396
0.856754
0.856529
0.856685
0.856714
0.856717
0.0789145
0.217326
0.123315
0.0793366
0.0790606
0.0792116
0.0807672
0.731433
0.774281
0.483194
0.774281
0.774316
0.241372
0.288844
0.774281
0.39876
0.781524
0.785231
0.589286
0.785255
0.785255
0.774887
0.778453
0.785255
0.760363
0.00716533
0.0184502
0.0228138
0.00713382
0.00703911
0.00704266