/*--------------------------------*- C++ -*----------------------------------*\
| =========                 |                                                 |
| \\      /  F ield         | OpenFOAM: The Open Source CFD Toolbox           |
|  \\    /   O peration     | Version:  v2012                                 |
|   \\  /    A nd           | Website:  www.openfoam.com                      |
|    \\/     M anipulation  |                                                 |
\*---------------------------------------------------------------------------*/
FoamFile
{
    version     2.0;
    format      ascii;
    class       volScalarField;
    location    "0.45";
    object      p;
}
// * * * * * * * * * * * * * * * * * * * * * * * * * * * * * * * * * * * * * //

dimensions      [1 -1 -2 0 0 0 0];


internalField   nonuniform List<scalar> 
6576
(
-375.204
-398.027
-366.268
-373.281
-382.51
-361.904
-361.875
-348.361
-368.234
-365.686
-365.547
-356.362
-343.649
-358.846
-269.287
-287.002
-323.182
-317.466
-291.218
-284.529
-324.95
-353.627
-362.504
-433.194
-262.66
-221.175
-147.421
-404.391
-404.094
-401.455
-393.293
-384.019
-345.724
-248.701
-231.313
-246.275
-273.246
-271.26
-263.5
-266.539
-302.257
-348.151
-296.455
934.914
521.209
1413.63
631.579
805.035
1424.75
1262.63
771.728
1106.8
-4.56474
-4.85597
-4.74979
-5.19742
-7.4058
-10.7831
-6.11449
-5.78299
-4.93763
-4.83018
-5.02951
-6.54585
-6.49828
-4.87855
-3.85358
-3.81992
-4.08204
-3.9171
-3.99385
-4.33428
-4.25338
13.3299
12.4716
12.9536
13.0923
13.6202
13.0227
12.9126
12.9917
13.2291
12.7422
13.2216
13.2468
13.2485
13.4912
8.27276
-6.98075
0.433687
1.93478
16.0582
3.85038
17.1578
-4.25358
-3.07653
-5.84363
-5.13606
-3.12328
-3.7253
-1.62573
72.5942
188.882
15.9228
133.861
181.645
61.7451
98.8826
1403.46
1460.72
1433.78
1295.84
1506.06
1984.5
-2.72059
-2.88005
-2.81377
-2.9493
-3.19101
-2.89763
-2.87132
-18.5803
-73.2813
-192.049
-102.053
-59.9259
-36.4824
1.08124
-2.48485
-2.9899
-2.9027
-3.19302
-3.03492
-3.32477
-3.28853
-3.64413
-0.889773
-2.07253
-5.71059
-7.16352
-3.05434
-4.21493
0.0501115
0.0760971
0.247529
0.445494
-1.15045
-2.38762
-0.437487
0.49784
0.513371
0.821666
0.0839438
0.283863
0.58697
0.307687
0.408432
0.571393
0.677792
0.64377
0.643926
0.93394
1.48492
0.833531
1.15467
0.224456
0.0347643
0.173032
0.466898
0.186609
0.181895
0.301962
0.230296
0.0730979
0.345407
0.354711
0.206918
0.536686
0.39009
0.411006
0.569389
-0.71953
-0.793505
-0.62162
-0.626943
-0.736065
-0.469168
-0.328549
-0.418546
-0.540929
-1.14224
-1.1036
-1.27943
-1.08646
-0.910017
-1.17184
-1.04523
-0.88431
-1.07829
-1.19817
-0.896631
-0.764775
-0.990519
-1.11769
-1.55258
-1.47157
-1.53509
-1.32524
-1.52077
-1.37731
-1.1416
-2.93501
-3.01802
-3.07321
-2.74725
-2.76404
-3.0316
-3.12338
-1.92841
-1.98524
-1.89526
-1.82448
-1.89886
-1.90806
-1.81624
-1.6495
-1.74406
-1.57729
-1.64294
-1.55409
-1.412
-1.5258
-1.09521
-0.970187
-1.09454
-1.17086
-1.08517
-0.986275
-1.09356
-0.731662
-0.798959
-0.5801
-0.83849
-0.954466
-0.715641
-0.831912
-0.319814
-0.130982
-0.336146
-0.53647
-0.374377
-0.481253
-0.317971
-0.213398
-0.381903
0.45928
0.710749
0.214979
0.151209
0.370095
0.471583
0.370687
42.3508
55.0036
20.2263
43.1245
58.9816
47.5657
42.6993
1038.05
921.066
776.328
1279.79
813.489
806.575
1429.42
742.45
1456.89
1355.54
1339.09
1230.79
1123.51
907.789
996.493
600.186
91.56
38.8719
120.507
184.413
140.562
119.879
172.082
146.639
106.002
1317.32
1337.46
1262.98
337.091
408.171
177.059
539.264
481.549
289.503
442.568
-36.4145
-32.7958
-23.7028
-24.9827
-38.1211
-35.8575
-24.4426
3.42641
1.39736
2.60639
4.73192
2.16278
2.344
2.84083
2.37596
4.23509
-2.75442
-1.47587
0.46209
0.0962013
0.388197
-3.39933
-0.915279
-15.3565
-12.9704
-12.1553
-13.4692
-13.1809
-12.8606
-13
-9.82446
-11.2303
-18.0317
-11.5365
-21.0311
-16.4177
-12.4703
-15.831
-12.6939
58.5965
57.559
88.3082
57.283
77.0579
52.9062
132.6
139.387
53.7373
351.708
710.235
316.947
386.212
444.843
287.268
470.389
1495.17
1197.66
1281.83
1259.62
1022.96
497.828
947.069
1218.63
1760.51
12.5079
-7.98535
14.1805
11.5969
23.7862
8.61722
35.4153
-11.3802
-13.4487
-10.3593
-11.3257
-10.449
-12.5849
-11.2151
-15.2325
-15.3388
-15.5747
-15.2771
-15.9621
-15.2834
-15.9733
-15.8741
-15.1665
-0.743447
3.68147
-1.25489
0.688509
-2.43953
-0.717877
-2.18081
16.4481
31.4328
28.9059
33.0557
23.4108
21.3487
22.303
21.6746
17.3657
6.49764
5.49288
6.32111
5.15729
5.05452
5.45114
4.80347
2.03873
-1.32264
-8.10412
12.0037
2.69174
10.4831
12.8218
-1.27247
-1.19705
-1.08613
-1.06773
-1.13607
-1.15469
-1.11457
-0.801425
-1.78035
-1.8961
-1.03617
-0.441926
-1.9788
-1.53673
-2.46849
-1.82402
-2.28983
-1.95695
-2.50938
-2.10626
-2.2927
-1.79156
-4.08831
-1.24831
-2.24137
-3.19307
-1.04407
-0.242963
-2.45867
-1.96491
-2.77896
-2.88067
-1.84992
-2.04876
-2.49762
-2.82516
-2.48838
5.04704
3.35523
-0.321765
0.575248
-1.1585
-2.5958
-1.27785
-1.01689
-3.02492
-4.61795
-2.93675
-2.56161
-3.00213
-3.83967
-0.577448
-3.02968
-2.85046
-2.07082
-9.09959
-5.49049
-4.61632
3.16363
2.68163
2.93152
9.60147
-3.55204
-2.27783
-0.674389
-10.6765
-5.83502
-7.03581
-0.486391
-0.262278
-0.0548133
-4.18142
-5.00381
-4.78504
-4.76954
-3.55239
-3.69605
-4.43021
-4.50537
-4.76952
-4.3524
-5.29058
-4.55143
-5.61672
-4.50081
-5.13069
-3.83389
-5.32747
-3.69058
-3.90618
-3.98825
-3.59631
-3.64006
-3.58115
-3.63825
-3.73461
-3.77383
-3.49243
-3.53832
-3.31206
-3.68125
-3.58607
-3.28465
-3.57881
-3.67767
-3.55206
-3.38129
-3.006
-2.99239
-4.12215
-3.80741
-3.72067
-4.10299
-2.744
-2.88987
-2.24153
-2.64401
-3.0479
-2.45439
-2.98289
-2.83673
-2.3287
-1.38344
-1.26695
-1.45841
-1.57212
-1.61526
-1.44886
-1.5345
-1.58578
-1.69016
-1.59933
-1.50496
-1.60766
-1.70952
-1.58461
-1.16922
-1.22028
-1.2356
-1.25517
-1.26293
-1.27609
-1.21581
-0.345
-0.128628
-0.233141
-0.554514
-0.483477
-0.196727
-0.0277459
-0.244964
-0.293256
-0.453792
-0.165759
-0.307433
0.25468
0.436657
0.330464
0.18605
0.354007
0.297134
0.13617
0.532917
0.644697
0.575872
0.454795
0.582383
0.548339
0.436341
-0.619322
-0.406379
-0.742023
-0.233843
-0.272623
-0.437522
-0.274169
-0.072712
-0.229241
0.0601806
-0.0719648
-0.0398103
-0.0181398
-0.0889046
-0.184179
-0.107949
0.486788
0.547957
0.372759
0.28374
0.232954
0.265147
0.0699042
-32.5853
-39.1239
-53.8994
-51.018
-34.2548
-54.8887
-43.1123
-2.47334
20.7081
-13.6349
-10.7864
-5.24902
-26.4631
-16.877
26.0111
28.8014
35.1506
35.8661
27.9836
26.6109
28.7254
-8.06106
-7.55478
-10.4685
-12.0297
-11.3984
-11.5349
-12.8281
-16.845
-8.12952
-18.4301
-15.5849
-9.81624
-16.3587
-14.1105
-12.4087
-8.68905
18.3463
-4.37616
26.5443
-20.6676
-63.8801
-54.9432
-92.2235
44.195
36.2994
1.66368
55.465
11.2157
44.0662
17.0617
-7.55935
36.5039
-15.3979
47.7537
27.8249
102.61
184.07
73.7804
65.0511
17.5378
-8.78664
-23.989
163.558
-76.7883
-42.9429
-11.4018
-29.5699
284.337
173.14
172.898
168.258
192.811
7.05282
-29.035
18.9892
50.5128
22.3571
105.889
18.0773
210.188
144.038
131.95
150.557
167.282
443.159
496.888
526.678
-12.2772
34.064
8.37265
8.83618
41.7482
36.3704
6.96422
288.45
94.6675
120.289
51.3575
26.3571
744.535
453.45
500.786
723.269
120.344
433.194
841.163
590.416
574.43
1160.02
8.58886
41.157
6.95906
76.5825
1.72373
73.069
-21.5661
235.728
134.16
138.118
117.848
195.931
76.7859
46.9446
106.545
75.0275
374.745
219.75
197.666
2.75942
-28.2985
-27.518
-5.78535
-17.0751
18.8535
46.0096
-32.1559
-14.8058
-8.11926
139.665
106.122
65.1345
75.0727
75.3482
-38.856
66.0348
88.2717
36.2946
39.7238
-77.8447
-25.5965
144.586
15.6625
7.56081
63.1047
-4.35784
1.61011
62.5025
-18.9644
-22.791
-0.472088
25.3487
-9.11013
-6.80336
-10.1208
-7.40089
-6.6383
-8.54922
-7.79443
-9.2912
-11.4701
-12.8561
-11.7717
-11.0802
-9.10263
-8.94537
-15.5453
-15.5039
-15.5464
-15.4711
-15.5465
-15.6002
-15.8946
-16.015
-15.8933
-16.1562
-15.7998
-15.9339
-16.0759
-15.9345
-16.0998
-16.2624
-16.1605
-16.2756
-16.1632
-16.1302
-16.2338
-16.6329
-16.5278
-16.5809
-16.4879
-16.3685
-16.5337
-16.4496
-16.5721
-16.6017
-16.8095
-16.9984
-16.801
-16.6869
-16.7812
-16.7176
-16.8093
-16.8435
-16.8784
-13.716
-18.2154
-14.8061
-11.412
-15.771
-11.2969
-15.0278
0.874845
1.43185
-0.0566095
2.17954
0.913917
-0.0241181
0.755671
1.07032
1.94851
1.31278
1.17011
1.48513
1.34985
1.2461
0.711959
0.726021
0.577584
1.78922
0.543111
1.69961
2.72061
-0.517249
1.75635
1.65262
2.91007
1.00683
2.7691
9.24268
3.54739
3.17302
9.13493
2.80441
-0.130185
109.485
130.583
88.8245
113.082
116.055
103.088
91.9335
162.647
189.396
127.702
108.368
135.958
94.463
97.4091
125.199
67.3656
96.7417
150.18
125.458
81.0459
85.2749
51.2994
59.0761
57.5001
51.9392
78.5724
91.9046
70.0261
58.198
106.592
59.3525
58.0822
49.516
97.9316
-4.84926
9.62671
30.4304
-1.68529
25.4225
1.99584
49.752
23.6379
-3.2845
-2.12936
-2.64416
-2.51665
-2.69897
-3.79867
-3.42166
-2.66832
-2.89065
-2.74193
-3.81798
-3.46629
-3.47603
-2.96248
-3.63075
-3.3103
-3.23517
-3.90165
-3.79665
-3.96583
-4.01837
-3.80775
-3.95674
-4.25299
-3.92972
-3.80836
-3.94425
-4.53825
-4.44973
-4.24765
-4.39009
-4.6046
-4.37908
-4.43967
-3.68651
-3.78036
-3.16268
-3.8336
-3.49132
-3.6186
-3.29217
-3.07843
-3.31727
-3.195
-3.24273
-3.26185
-2.94867
-3.0902
-2.95456
-2.94773
-2.97775
-2.91026
-2.91587
-2.88949
-2.84385
-2.82934
-2.87543
-2.83355
-2.78795
-2.84308
-2.45072
-2.28163
-2.45744
-2.48104
-2.59365
-2.57093
-2.44224
-2.47962
-2.59082
-1.48796
-1.52039
-1.38016
-1.64076
-1.58072
-1.497
-1.56828
-1.13339
-1.1929
-1.24076
-1.19601
-1.32264
-1.21185
-1.33597
-0.564383
-0.570159
-0.343025
-0.779692
-0.605709
-0.693245
-0.471185
-0.64336
-0.842387
-0.6521
-0.71278
-0.706334
0.0780693
0.293816
0.0235934
-0.140477
-0.048196
-0.0607615
0.0730911
0.219336
0.0917227
-1.89422
-1.70045
-1.56722
-1.75238
-1.58052
-1.47019
-1.29468
-1.35314
-1.59187
0.227826
0.0689123
-0.0211991
0.519361
0.405025
0.354035
0.389629
0.714505
0.582904
0.505171
0.395105
0.510591
0.684276
0.569499
2.66701
-2.45707
-0.0329999
0.393045
-0.551593
1.21585
0.629725
0.654497
0.997414
9.98529
13.4118
-18.8905
15.3089
18.7057
5.91234
14.9881
27.7121
-11.015
66.1763
69.9271
30.732
239.18
93.6273
66.9735
7.54406
54.3743
13.2989
63.5283
30.2526
48.7109
11.0578
53.7876
71.0838
34.0325
14.0611
66.9027
46.3192
89.452
50.0368
-67.7226
19.0876
-22.8636
-7.18732
97.1845
-21.9352
39.8987
-87.3645
71.9589
2.46223
-121.131
36.9871
-81.6259
63.9735
93.4292
57.8653
-13.6586
-14.0449
-12.4036
-12.9834
-12.1867
-13.2127
-13.1317
90.9707
30.4393
30.5379
-0.782762
-22.1995
-19.7983
-4.04091
-22.1755
-11.9363
1.89866
95.9837
-92.7507
6.28535
-21.1857
24.9811
20.0438
-13.4524
-17.8755
13.4431
90.3934
70.0643
-18.6383
19.2605
59.9039
-19.286
-2.99995
44.3611
29.4319
53.703
127.154
45.3422
-23.1789
45.5613
9.48097
-1.60844
-4.95644
-15.1531
-14.9819
-13.4801
-14.4766
-11.6752
-14.208
-18.4985
-14.1294
-15.8279
-17.0796
-16.2345
-17.7012
-14.1702
-14.8251
-14.9268
-14.7394
-14.6691
-14.0911
-13.0697
-14.8316
-14.6645
-15.398
-15.4266
-15.2631
-15.1719
-14.9515
-15.2882
-15.239
-7.95732
-16.7746
1.28251
-15.0312
1.64711
1.44391
-0.648078
26.7453
0.695296
5.6057
6.09198
4.99951
6.56082
-3.97496
14.3715
13.9826
15.7188
14.7511
14.3645
14.4513
14.2022
13.5146
13.7044
13.7823
13.8863
13.7126
13.8226
14.2847
11.2014
13.5231
12.3051
11.9097
11.2534
9.93162
11.3917
-2.53054
-3.87547
-3.12931
-0.790695
0.40988
-0.92966
-0.509794
26.068
5.57088
6.48748
32.4496
22.6873
8.8961
10.6768
29.2002
48.794
43.7229
41.2789
44.3443
44.0732
47.3854
42.4478
62.2924
40.9854
52.6199
51.7324
41.0678
40.1327
128.523
92.0034
53.9649
146.667
154.979
149.298
114.89
140.064
105.211
110.333
117.457
122.65
64.5044
135.323
119.683
75.387
118.438
303.306
145.435
110.234
172.813
188.274
148.499
196.68
166.595
210.265
166.313
215.927
160.724
177.784
125.584
266.299
240.471
147.971
162.338
223.384
174.171
78.1605
74.2984
31.9194
221.952
75.9484
201.3
110.113
118.6
275.682
137.92
190.132
184.418
160.593
122.894
88.4859
71.584
-0.537885
-0.738565
23.2528
0.365493
-0.039793
17.9024
16.0454
-2.18581
-2.38637
-3.31024
-1.36582
-2.34372
-3.30383
-2.27475
-2.61531
-1.93489
-2.91595
-2.30911
-2.67858
-2.01098
-5.45721
-2.64591
-4.26122
-2.14564
-4.41646
-4.92614
-2.76856
-2.29578
-1.40097
-2.55788
-3.08775
-3.84428
-3.19497
-2.58628
-3.21137
-3.21547
-2.28975
-2.02667
-3.49715
-3.37228
-3.70083
-3.63313
-3.50889
-4.06398
-3.75034
-1.79727
-2.19247
-1.96537
-2.00612
-1.90877
-1.95873
-1.75421
-3.14288
-2.92753
-2.77057
-2.83433
-2.75225
-2.63837
-2.62297
-2.99353
-3.01106
-3.15618
-2.84987
-2.87785
-2.80508
-2.76722
-2.8196
-2.76999
-2.67999
-2.8962
-2.91786
-2.8251
-2.91547
-2.81267
-2.79311
-2.80202
-2.72306
-2.64394
-2.74855
-2.89967
-2.91019
-2.94006
-2.80476
-2.80814
-2.84657
-2.76175
-2.83913
-2.80931
-2.77576
-2.87882
-2.88307
-2.92013
-2.81524
-2.7992
-2.83872
-2.81415
-2.73532
-2.61008
-2.74758
-2.6348
-2.71854
-2.77759
-2.71026
-2.85764
-2.77175
-2.77459
-2.85807
-2.77996
-2.73135
-2.79809
-2.44953
-2.5373
-2.41206
-2.4668
-2.35758
-2.54066
-2.44618
-1.8021
-1.77341
-1.82278
-1.81969
-1.82944
-1.69508
-1.77579
-1.78349
-1.82437
-1.79627
-1.81929
-1.90246
-1.81673
-1.84317
-1.81145
-1.78321
-1.83545
-1.75838
-1.75752
-1.8057
-1.82023
-1.40684
-1.38791
-1.53688
-1.52149
-1.5271
-1.44495
-1.48727
-1.4786
-1.41751
-1.21066
-1.03334
-1.28105
-1.33636
-1.41475
-1.29444
-1.34427
-1.02259
-1.26123
-1.34993
-1.32511
-1.32925
-1.08618
-1.20379
-1.26247
-1.20098
-1.16919
-1.2247
-1.3261
-1.28882
-1.40244
-1.25415
-1.3489
-1.25519
-1.33947
-1.25359
-1.13835
-1.21453
-1.16512
-1.24428
-1.29652
-1.213
-0.857802
-0.59827
-1.00459
-0.820678
-0.922462
-0.450158
-0.819951
4.67692
4.75074
5.46467
5.64024
2.41152
2.70472
4.77666
7.44329
2.50928
5.78464
11.3417
8.127
30.3571
20.4019
138.198
110.868
136.932
119.604
138.499
118.789
119.679
166.545
109.177
144.106
160.103
163.997
165.625
146.242
142.795
166.921
150.807
153.719
153.237
144.072
153.272
79.2544
83.2169
-4.42302
110.216
102.14
92.0919
65.9011
121.184
113.579
104.239
218.118
168.095
158.075
177.905
215.337
154.529
120.894
120.774
127.548
130.71
68.9105
-9.27886
-24.3831
6.69068
15.8317
37.1097
44.7006
132.639
1.56209
67.2506
-31.6828
50.7265
105.677
-14.3768
-12.9008
-14.93
-12.4003
-14.6136
-15.7331
-14.7344
53.8029
76.0583
4.53865
25.0298
-0.380178
-15.782
39.956
100.009
47.3849
-20.0406
1.08278
63.5409
71.3599
-15.5199
-19.2939
4.07969
58.1684
47.5476
3.38313
12.979
16.0844
22.5199
-4.98322
9.71085
33.6553
26.8875
0.86787
-3.23553
-12.1607
-12.6608
-7.96185
-9.21666
-12.5565
-11.7868
-2.3314
3.45527
-5.65754
6.4078
-4.61492
-5.93273
-8.29747
6.53037
-7.47923
7.67573
7.59871
3.21268
-14.1947
-16.3527
1.09327
15.6276
11.6293
10.999
9.05525
10.211
7.21835
1.21907
6.90057
9.4728
11.7018
10.4209
8.45511
10.8535
11.5513
6.99043
9.60075
2.8218
14.8943
14.8743
14.5101
14.1837
14.3909
13.0271
15.7713
13.3038
14.193
13.3157
13.2619
13.2177
12.9058
12.783
12.7181
12.6052
60.5596
61.1097
74.852
57.922
63.4549
81.6028
66.6052
97.6906
127.99
130.656
142.228
119.801
132.185
125.401
285.208
191.087
185.205
133.874
237.33
168.594
141.478
258.252
199.7
205.139
280.052
246.513
222.643
307.656
91.2767
237.39
146.071
149.112
229.517
249.288
216.346
238.541
284.627
278.898
222.36
111.24
168.716
74.9039
148.296
335.282
303.377
290.32
183.944
242.708
155.125
287.731
191.48
110.786
111.3
64.8344
127.997
105.169
78.0133
71.0164
40.7842
44.9139
66.794
58.2677
67.4287
56.6671
38.9037
60.8213
62.5033
73.7665
74.2397
78.5194
12.3293
15.7143
32.2073
20.0647
19.9202
34.8643
36.1352
-6.14844
-0.874119
-1.92614
-1.2348
1.32689
0.844628
-0.954051
-1.30839
-1.25029
-1.2187
-1.46534
-1.31785
-1.18043
-1.19356
-1.90155
-1.93888
-1.80861
-1.89421
-1.97568
-1.89691
-1.82332
-2.829
-2.80064
-2.74593
-2.77942
-2.8551
-2.75302
-2.69163
-2.76851
-2.70941
-2.6141
-2.81685
-2.91091
-2.73008
-2.85487
-2.86174
-2.91794
-2.77183
-2.77126
-2.79869
-2.80124
-2.79382
-2.75947
-2.72047
-2.75553
-3.07366
-2.66557
-2.76389
-2.69067
-2.67818
-2.96259
-2.72739
-2.73554
-3.09943
-3.19845
-3.81541
-3.46332
-3.42144
-3.89516
-3.66267
-6.30858
17.6216
-3.75893
-27.2053
-25.2919
-18.7574
-40.7874
-3.44928
-3.14974
0.746781
-1.66952
-2.69081
-1.09829
0.968209
-4.63102
-6.0422
-5.23812
-4.21189
-4.75792
-3.60772
-4.95964
-3.67392
-2.22497
-2.86341
-2.76652
-2.66211
-2.34242
-2.75623
-2.29163
-2.13082
-2.66776
-1.90549
-1.76538
-2.12339
-2.25622
-1.65259
-1.67711
-1.69861
-1.68477
-1.7186
-1.75949
-1.73099
-2.06839
-1.91588
-1.97732
-1.93991
-1.99164
-2.11878
-1.98108
-1.95056
-2.04278
-1.58333
-1.72204
-1.65652
-1.67726
-1.72678
-1.74502
-1.67109
-1.74489
-1.69174
-1.82076
-1.71661
-1.74696
-1.85266
-1.95907
-2.06688
-2.04498
-1.93452
-1.98516
-1.96057
-1.88111
-1.83296
-1.53533
-1.48882
-1.41187
-1.47634
-1.54452
-1.46824
-1.36033
23.1676
13.0153
18.4197
15.4181
38.1147
30.6308
13.8749
93.9578
61.8696
81.4351
67.9209
50.5064
81.0415
71.2017
106.504
149.293
109.847
86.842
101.34
115.431
128.172
75.4662
112.078
93.1328
129.612
149.855
124.419
134.033
105.458
82.0494
173.459
167.656
185.215
174.001
185.073
212.499
189.273
158.489
154.126
152.346
254.021
171.887
217.533
190.418
188.544
203.163
192.994
155.261
152.161
144.293
131.638
143.202
152.13
153.979
180.835
216.627
154.326
133.242
137.23
143.382
126.233
118.931
118.062
124.554
145.047
130.676
116.516
-16.0754
-16.1053
-16.1014
-16.1293
-15.9676
-16.0955
-15.9677
-15.4825
-15.3718
-15.2898
-14.7855
-15.2946
-14.8622
-15.1572
-13.6597
-7.18781
-25.428
-10.4456
-13.1245
-13.3177
-16.0941
-18.6726
-13.8353
-9.23814
-10.6868
-18.1425
-10.3588
5.84222
845.428
409.989
671.681
882.277
662.406
772.46
792.819
96.9636
121.448
33.0977
282.013
37.3851
146.797
-0.339713
23.6607
18.8397
3.75218
21.2947
6.23086
10.0287
9.13981
30.5094
16.2325
17.6628
30.9324
14.7647
16.1048
40.1226
17.7434
10.6215
34.5977
29.8682
30.8331
54.0877
17.0011
30.557
79.6083
8.58031
-32.4359
-7.65551
38.0313
78.0249
53.6679
37.031
191.884
115.199
133.912
112.34
99.3112
212.09
144.613
90.4996
110.578
29.7025
78.0563
91.1107
111.802
77.1805
47.2282
72.0853
32.608
48.1367
34.5056
75.846
52.4066
70.0494
35.1458
49.2502
39.4701
37.1593
46.7452
57.961
28.2151
16.5949
-9.07355
31.4038
26.9397
21.3158
11.5115
0.837834
0.838587
0.94163
0.730957
0.922622
0.961305
0.874779
0.711325
0.552381
0.591116
0.667511
0.603375
0.583465
0.626744
-0.00511732
0.115727
-0.131478
0.320044
0.149316
0.171569
0.547726
0.103781
0.304626
0.644445
0.0344986
0.0413948
65.7635
-6.05713
24.8496
15.7723
-0.924159
-5.00009
5.62792
-4.59052
-5.06315
-3.85196
-3.84197
-3.59015
-5.16758
-4.95265
-2.66351
-2.41546
-2.2877
-2.58105
-2.15386
-2.41151
-2.5774
-2.8639
-3.17288
-2.97754
-2.72591
-2.8932
-2.75418
-2.91941
-2.76403
-2.84934
-2.72985
-2.7342
-2.94931
-2.7999
-2.99457
-2.88543
-2.93128
-2.86438
-2.85065
-2.86281
-3.21691
-3.35699
-3.31927
-3.37387
-3.3667
-3.25683
-3.2271
-2.66037
-2.78382
-3.08095
-2.80258
-2.75585
-3.21349
-3.45776
-3.481
-3.77717
-3.57016
-3.85247
-3.88031
-3.61756
-3.5042
-3.13669
-3.00939
-2.67731
-2.94779
-3.24495
-2.97474
-2.67466
-2.37306
-2.11703
-1.9894
-2.38157
-2.53523
-2.26476
-2.15068
-1.78804
-1.69477
-1.86462
-1.91698
-2.00696
-1.85938
-1.94542
-1.75564
-1.82847
-1.98855
-1.85376
-1.94044
-1.91966
-1.93214
-1.90829
-1.77516
61.3887
55.577
62.7233
43.7326
54.424
57.9945
56.0408
63.9805
58.0662
50.5564
61.064
55.6316
52.0746
54.0397
59.6411
45.5129
54.7484
65.8258
60.9464
54.8102
75.6086
79.2139
62.2301
77.1259
51.7735
94.8385
63.2299
77.5998
71.2116
70.2332
77.849
67.1641
68.8368
134.003
125.759
157.573
69.2777
117.563
139.178
140.334
117.811
137.626
137.422
92.6041
85.2562
97.3441
83.2526
95.2346
82.9866
98.7134
-16.8961
-16.8144
-16.8421
-16.827
-16.6903
-16.3157
-16.4529
-16.5144
-16.4803
-16.5069
-16.5796
-16.4761
-16.7689
-16.6081
-16.5492
-16.2826
-16.5209
-16.5051
-16.7043
-16.5118
-16.526
-16.3964
-16.5825
-16.6252
-15.7271
-15.6312
-15.5602
-15.269
-15.3753
-15.2826
-15.4361
-15.113
-14.9991
-15.0862
-15.2707
-15.2751
-15.0764
-15.1352
-11.8349
-11.0844
-11.6292
-12.5797
-12.8933
-14.3835
-13.3566
842.957
370.311
572.684
3019.47
1451.21
2366.74
2381.84
2015.96
3160.97
2438.67
1961.59
984.991
2470.45
1625.54
2332.2
2417.33
1159.69
713.563
625.095
614.954
690.981
27.6034
428.036
807.187
3863.97
2545.63
-107.586
52.6029
126.963
44.7452
103.627
-175.793
-92.7766
-244.738
-160.25
28.4184
-25.2268
-19.9803
-26.3195
-23.2248
-33.5066
-23.8175
-39.2887
6.2533
7.95449
2.70954
13.6286
11.7592
8.51273
12.1605
10.8556
11.2433
14.6159
8.9213
9.2919
11.4451
12.2755
0.857029
0.642782
1.10679
0.88949
0.934448
0.707259
1.31883
1.34331
0.587872
1.50735
0.617508
0.743307
1.43503
0.900117
1.31761
1.18114
1.27893
0.547903
1.28991
1.0875
1.0794
0.749819
0.89634
1.13839
0.493387
0.734393
0.682655
0.320738
-1.98256
-1.90384
-2.07036
-1.82135
-1.76449
-1.90268
-1.86258
-2.00569
-2.09061
-1.9632
-1.99661
-2.03299
-1.92985
-1.91245
-1.93157
-1.93127
-2.11184
-2.13506
-2.13283
-2.14007
-2.17265
-2.10147
-2.11017
-2.86473
-2.70786
-2.51543
-2.70922
-2.5919
-2.44617
-2.69915
-3.21454
-3.1184
-3.05838
-4.00502
-3.8389
-4.10871
-4.4137
-4.16104
-4.36495
-4.21098
-3.66145
-3.87893
-3.92422
-3.19006
-3.72739
-3.14179
-3.36523
-4.3225
-3.72565
-3.07473
-2.91298
-2.95865
-2.83205
-2.86244
-2.89458
-2.95361
-3.47665
-3.70958
-3.76896
-3.56851
-3.80151
-3.90157
-3.9291
-3.92201
-3.77863
-2.39632
-2.48056
-2.51177
-2.63736
-2.68975
-2.62111
-2.59631
-0.787431
-1.74103
-0.287986
-1.51917
-1.26848
0.393987
-1.012
10.6097
7.98488
9.96694
7.22342
9.86076
7.81022
5.81957
9.59519
8.19558
10.9713
8.90642
8.80444
10.6558
11.8064
9.38795
6.81926
7.71278
36.2118
42.8776
25.9289
37.6516
20.6367
15.869
62.3579
63.855
61.9256
1.82459
3.98723
3.6478
1.13557
2.5643
2.789
1.69196
-29.0554
-68.4995
-58.184
-61.7604
-49.6061
-78.1716
-63.5791
-58.0781
-64.5603
-50.9692
-47.8365
-63.7666
-78.5144
-64.4705
13.3909
2.64259
-22.1813
-4.12863
-9.97935
21.2892
-7.71394
-13.4709
-12.8139
-17.3093
-11.1914
-7.65682
-11.463
-16.8768
-15.9924
-16.1723
-17.0765
-16.1652
-15.6154
-15.5889
-16.6009
-14.6054
-14.2912
-13.9194
-16.9233
-16.3163
-15.4304
-15.4902
-15.9731
-16.2827
-15.9347
-15.0977
-14.7286
-17.3886
-17.2613
-17.2786
-17.6002
-17.5948
-17.4366
-17.3919
-16.9947
-16.8808
-16.8248
-16.8076
-16.9011
-16.7235
-16.8315
-17.3929
-17.1384
-17.1049
-17.5739
-17.5345
-17.3069
-17.2474
1443.44
970.232
620.284
469.731
396.329
821.968
74.3047
230.887
87.5744
164.456
-534.82
137.197
543.925
93.6819
261.903
-107.51
188.948
367.002
352.419
83.0588
285.937
251.827
340.973
25.3035
117.353
133.726
-49.8654
-44.6241
-47.0201
-40.985
-38.575
-44.293
-41.1194
-103.786
-14.2446
-0.135013
-113.633
-142.183
70.0521
-36.9916
-43.4488
-160.711
-111.791
66.9473
-61.585
189.643
1.6291
-136.858
-143.87
120.889
-18.2242
37.814
129.692
-29.8695
-40.8126
-33.2126
-27.4558
-20.9186
-28.7654
-24.1063
-53.7076
-51.4241
-47.3424
-45.4716
-45.4114
-47.9451
-48.9769
-47.8736
-50.3839
-1.95517
-1.79647
-1.75485
-1.87207
-1.85145
-1.80771
-1.8822
-1.77053
-1.81163
-1.71441
-1.75191
-1.75167
-1.69957
-1.7109
-2.48967
-2.59308
-2.29675
-2.12807
-2.12772
-2.30383
-2.30984
-2.97231
-2.97791
-3.06089
-2.58856
-2.7486
-2.52543
-2.49187
-2.60807
-2.70449
-2.61206
-2.78228
-2.8724
-2.73916
-2.66998
-2.53026
-2.76631
-2.84152
-2.76769
-2.686
-2.83414
-2.92052
-2.82073
-3.03136
-2.94674
-2.98132
-2.94454
-2.99315
-2.90009
-2.89958
-2.80611
-2.83184
-2.78886
-3.16435
-3.23546
-3.05027
-3.03107
-3.00491
-3.13573
-2.96685
-3.20056
-3.30688
-3.46816
-3.15933
-3.46439
-4.18852
-3.63972
-3.94119
-3.72895
-3.75981
-3.69086
-3.71148
-3.82926
-3.18763
-3.33873
-3.66554
-5.99427
-3.76399
-5.30389
-0.868217
3.86759
1.81639
-2.80604
-8.17809
-1.89732
-1.81865
-5.35057
7.93821
10.5366
10.0068
-1.69994
-1.77566
-1.52715
-1.67319
-1.61827
-1.83613
-1.73009
-1.50904
-1.95406
-1.7922
-2.15314
-1.99164
-2.16088
-1.98852
-2.35373
-1.96512
-2.1128
-1.85294
-0.997345
-1.90959
-1.844
-1.19889
-1.78121
-1.43438
-1.16579
-1.46288
-1.56066
-1.26826
-0.715095
0.57899
0.429521
1.44708
0.965036
0.471948
1.69199
-0.711309
-0.0242871
-0.270554
-0.719923
-0.487069
-0.393083
-0.576793
2.02102
2.66481
2.05155
1.47727
1.95169
2.20343
1.84573
1.05036
0.819185
0.971863
1.06724
1.26689
1.0866
0.952972
-3.41137
0.186409
0.767806
-0.385278
0.521171
0.38773
0.853458
0.952382
-0.438488
0.901577
-0.000558669
1.18713
5.88152
4.10766
12.453
4.71476
2.57688
1.73778
3.8066
1.04698
3.37379
-12.4362
-10.6262
-1.7286
-25.8235
-12.4094
28.8125
16.5879
-11.2599
6.11777
18.7606
8.87163
13.6506
7.17719
9.23027
12.1336
9.94108
5.68188
6.73648
4.25161
0.194322
4.71468
8.64129
4.7194
-9.77441
-5.99919
-12.0786
-8.3223
-8.72022
-10.3095
-8.45419
-11.777
-10.5963
-12.0222
-10.6338
-9.60521
-11.0687
-10.2363
-12.7622
-13.6401
-11.9266
-11.4099
-8.06225
-14.1293
-12.0157
-9.60603
-13.8746
-3.37962
-8.77513
-5.6763
-10.8292
0.575993
-3.47456
183.071
93.4265
1047.33
1007.88
1012.8
984.167
876.957
1024.77
1038.7
680.907
469.811
571.782
499.232
645.373
622.925
972.54
1040.67
1055.54
786.312
815.355
766.206
697.393
440.068
705.382
457.021
973.625
856.362
766.975
752.833
745.527
780.937
1059.57
796.159
663.198
494.232
544.469
734.572
600.922
508.724
605.074
182.63
223.442
222.861
145.586
78.4241
154.372
208.458
116.909
114.914
133.624
146.493
87.3168
144.001
48.524
88.5463
155.889
24.5309
33.7492
43.4318
32.6078
18.7932
58.4341
31.3357
21.1844
28.722
-15.648
-11.2589
-17.004
-15.4192
-16.9481
-13.5887
-15.2504
-21.5594
-18.8514
-20.2341
-20.6168
-23.3857
-21.1082
-24.4281
-31.3444
-32.8335
-32.664
-30.6897
-30.334
-32.0338
-31.2344
-29.7503
-29.6868
-29.6538
-30.5249
-32.3564
-30.8956
-29.6682
-34.569
-37.484
-28.3259
-33.3895
-33.7398
-26.3889
-34.0742
44.1603
88.6866
-17.9728
-46.6126
10.2854
-69.3241
-35.7009
69.0343
129.953
-144.697
65.7933
-80.6199
-45.3986
-54.2418
-63.5339
-106.724
-44.1757
-108.858
133.123
-1.56331
-52.3699
-29.1324
28.6507
136.103
-33.7293
-38.2643
-35.876
-36.8741
-36.3297
-26.3214
-27.5507
-28.495
-30.7219
-29.7036
-28.8707
-29.2113
-30.6981
-30.0659
-26.8891
-27.6642
-26.9823
-29.3005
-29.2589
-28.5013
-28.3919
125.454
-254.211
55.6187
186.02
115.851
-28.3816
-311.612
1190.74
1423.62
1402.59
506.712
1124.84
1584.07
451.32
625.277
759.878
710.166
649.33
211.14
467.573
295.991
316.219
450.739
795.764
623.684
656.393
745.919
-17.7782
-19.0064
-17.9107
-18.5576
-18.5417
-18.7588
-17.9964
-17.2412
-19.2543
-18.3837
-13.2821
-14.3155
-18.5346
-15.933
-5.69451
-14.3128
-16.0615
-17.3661
-17.052
-17.3082
-18.4414
6.70749
7.70591
8.07208
8.26635
9.47593
8.61994
7.36995
12.9897
11.8436
13.2819
12.1906
11.2764
12.1368
12.824
4.8125
5.01233
5.10486
5.78715
4.89853
4.47096
5.29899
5.76858
7.1602
9.30895
8.63537
8.79898
10.079
11.2123
9.55579
9.22068
13.6602
15.7134
3.80933
3.5964
-10.6357
1.79819
2.12512
7.07072
-0.90681
8.06067
7.73526
-9.56809
8.17388
3.71614
7.80462
10.2268
-2.81021
11.1364
-5.27846
6.26578
4.5432
5.65006
9.47865
4.31484
1.66858
1.99648
-0.0129742
-0.123838
-1.96566
-2.33711
-3.41197
-1.00491
-0.680221
-2.03406
-2.07075
-1.90844
-1.88295
-2.12531
-2.08367
-1.98887
-1.64336
-1.77682
-1.64464
-1.304
-1.46625
-1.67011
-1.71783
-1.64085
-1.82574
-1.7549
-1.73866
-1.75181
-2.33943
-2.31
-2.27971
-2.80047
-2.71452
-2.50563
-2.54104
-2.63057
-2.99223
-3.1596
-2.88763
-3.30947
-3.50929
-3.08681
-4.01872
-4.19561
-4.0417
-4.11483
-4.09563
-3.91745
-4.01669
-3.78096
-3.92544
-3.92005
-3.76096
-3.48145
-3.41415
-3.48864
-3.59076
-3.36135
-3.73509
-3.35446
-3.34051
-3.11567
-3.15027
-3.37048
-3.33346
-4.03515
-3.4814
-3.13606
-2.97375
-3.17023
-3.10072
-5.85364
-4.56575
-4.34519
-8.02644
-6.02183
-6.82706
-5.73101
-4.92124
-4.84384
-7.40817
-7.88605
-9.04487
-6.8097
-5.99975
-4.89392
-5.37169
-5.63005
-4.93367
-6.59339
-5.15573
-5.43712
-4.68479
-4.86084
-4.7163
-5.09502
-4.88387
-4.7719
-4.95336
0.858783
-8.29178
-0.423399
-0.466043
-2.65558
-2.09397
-5.88363
0.486891
-12.1508
-4.03798
-5.30627
-4.51151
-2.70019
-2.64664
-4.07388
-7.92609
-4.28664
-3.8181
-3.90305
-4.15442
-3.75679
-4.14687
-4.2121
-3.47631
-3.53566
-5.37732
-6.64769
-6.11366
-4.07758
-6.98248
-4.88547
-5.99385
-2.04305
-2.15148
-2.26651
-2.47983
-2.36506
-2.20509
-2.35029
-2.21079
-2.24766
-2.16682
-2.46786
-2.30508
-2.45688
-2.34182
-1.96961
-1.895
-1.82202
-1.72497
-1.78206
-1.82493
-1.90332
-1.72864
-1.84741
-1.81257
-1.97716
-1.90336
-1.52553
-1.50351
-1.57251
-1.64869
-1.5879
-1.6073
-1.64511
-1.52238
-1.55387
-1.46941
-1.61625
-1.56177
-1.55956
-1.52689
-1.28181
-1.2
-1.12305
-0.888702
-1.01588
-1.02923
-1.18326
-1.22124
-1.32882
-1.25358
-1.1608
-1.13671
-1.06121
-1.05201
-1.10917
-1.21937
-1.29467
-1.21812
-1.1688
-0.838171
-0.662164
-1.01275
-1.01193
-0.679954
-0.549
-0.929956
-1.00685
-1.1384
-1.03925
-0.891992
-1.10054
-1.1533
-1.03072
-0.348004
-0.264686
-0.153527
-0.148084
-0.265824
-0.202113
-0.234049
-0.323306
-0.431404
0.113876
0.331543
0.138444
-0.311684
-0.171686
0.0472167
-0.0899837
-0.0939611
-0.248696
-0.105282
0.0331807
0.0485004
0.119611
0.0738452
0.149791
-0.0746975
-0.0426243
-0.00385743
-0.00960401
0.299908
0.366743
0.457189
0.447446
0.516958
0.50666
0.524733
2.56033
8.00281
-2.34888
4.84662
5.1152
0.786398
7.56181
7.36153
11.1171
10.2793
17.3674
9.96907
10.5776
10.8465
6.90725
15.2241
15.2188
11.6008
3.84664
7.96061
7.16358
4.06756
27.8999
45.5851
44.1037
35.2874
53.1304
74.8499
19.0966
18.4767
21.2765
23.1699
10.1813
23.2917
12.089
25.3427
7.32682
13.1253
6.97879
18.1177
26.7102
17.817
19.3731
9.39544
15.8996
15.628
20.4957
860.443
670.658
749.183
496.151
338.288
377.03
114.286
264.647
-8.45171
179.475
239.116
364.971
282.99
198.569
53.118
175.387
264.806
169.026
40.913
30.3565
25.3763
95.0069
208.28
109.987
156.676
179.527
35.5404
29.1561
30.5228
-68.5365
5.09173
14.6271
-0.331393
-15.9568
-100.508
-67.3663
13.6952
-62.007
130.268
-27.5322
-10.561
209.916
21.8626
19.7072
24.3474
-5.13795
0.154716
86.6029
14.5905
-16.1847
66.0535
122.179
6.84143
-57.9029
9.92708
35.5557
138.412
3.3302
3.52432
117.794
91.8201
-17.6657
-63.6774
-52.8387
-104.703
-41.663
108.813
-12.1827
287.353
223.481
73.1629
-414.014
119.718
-28.9329
2.15138
8.92685
15.1058
14.8462
19.9832
-6.82429
45.9051
39.5731
57.3939
192.596
40.2337
73.41
168.211
196.895
203.6
383.649
227.186