/*--------------------------------*- C++ -*----------------------------------*\
| =========                 |                                                 |
| \\      /  F ield         | OpenFOAM: The Open Source CFD Toolbox           |
|  \\    /   O peration     | Version:  v2012                                 |
|   \\  /    A nd           | Website:  www.openfoam.com                      |
|    \\/     M anipulation  |                                                 |
\*---------------------------------------------------------------------------*/
FoamFile
{
    version     2.0;
    format      ascii;
    class       volVectorField;
    location    "0.45";
    object      U;
}
// * * * * * * * * * * * * * * * * * * * * * * * * * * * * * * * * * * * * * //

dimensions      [0 1 -1 0 0 0 0];


internalField   nonuniform List<vector> 
6576
(
(0.0328831 -1.48221 -0.0641305)
(-0.0901776 -1.53361 0.0759498)
(-0.0317527 -1.56679 0.0120825)
(0.0428927 -1.45217 -0.0606759)
(-0.00415458 -1.5066 0.00517444)
(-0.077525 -1.59611 0.0770348)
(-0.0162393 -1.54623 0.0308179)
(0.0146621 -1.49721 0.00120984)
(0.0164628 -1.24771 -0.0101541)
(0.0167188 -1.45882 -0.000147783)
(-0.0115132 -1.51421 -0.0163981)
(-0.0167191 -1.55568 -0.0120234)
(-0.00213321 -1.55019 0.00504173)
(0.00701519 -1.48765 -0.000861332)
(0.0592107 -1.45443 0.0229235)
(0.0084544 -1.8223 -0.033102)
(0.0651099 -0.858401 0.0336765)
(0.0164788 -1.71833 -0.0169837)
(0.0544938 -1.56013 0.0620218)
(0.0168123 -1.47996 0.00280534)
(0.0470881 -1.37454 0.0484173)
(0.00190028 -1.52498 0.012865)
(0.00996857 -1.46646 0.0077622)
(-0.00488946 -1.49985 -0.0124806)
(0.00200575 -1.59928 0.0163455)
(0.0524985 -1.52861 0.0543874)
(0.0626649 -1.49349 0.0646779)
(0.00014431 -1.4575 0.0140604)
(-0.0057923 -1.58068 -0.0313699)
(0.00428378 -0.963073 -0.00777435)
(-0.0518434 -1.57425 0.0608463)
(-0.026932 -1.45619 -0.00964829)
(-0.0109896 -1.55488 -0.000523273)
(0.0117941 -1.45773 0.030692)
(0.0159125 -1.46697 0.0340966)
(-0.0189862 -1.25634 0.00995364)
(0.00207149 -1.63981 0.0124688)
(-0.0137099 -1.56764 0.0103829)
(0.0175691 -1.48063 0.0240337)
(0.0101516 -1.47726 0.0179494)
(0.0021611 -1.31513 0.0302456)
(-0.0168116 -1.47681 0.00603104)
(-0.00118313 -1.40743 0.00527562)
(0.858559 2.71325 1.2219)
(0.519733 2.37608 0.506343)
(-0.239118 1.2292 -0.319968)
(-0.06562 2.17837 1.02282)
(0.377766 2.29686 1.41864)
(-0.193749 0.993908 0.22811)
(-0.678153 1.43721 -0.0392649)
(-0.504273 1.69727 0.279426)
(0.263062 1.69535 0.933837)
(-0.0635516 -1.10052 -0.989658)
(0.0777318 1.11893 0.441706)
(0.323099 0.217914 -1.07983)
(-0.00251977 1.8626 -0.503479)
(-0.145912 0.377305 -1.49266)
(0.347687 -0.530076 -1.41813)
(0.0397589 1.23147 -0.806751)
(-0.175714 2.49632 0.382517)
(-0.433033 2.33865 0.842705)
(0.145794 2.3125 -0.210762)
(-0.00390172 2.06751 -0.021748)
(0.097223 1.94608 -0.222159)
(-0.135033 2.33037 0.371577)
(-0.288047 2.42714 0.573629)
(-0.00506189 1.63485 -0.233073)
(0.0426202 1.60696 -0.202372)
(-0.00789063 1.5659 -0.26478)
(0.132403 1.39986 -0.302963)
(0.0383834 1.56915 -0.312427)
(0.0120396 1.49021 -0.273413)
(-0.0541409 1.521 -0.250727)
(0.0819119 -0.936617 0.674452)
(0.361749 -0.985879 0.94776)
(-0.078363 -1.28849 0.158373)
(0.225305 -1.16417 0.890143)
(0.152079 -1.04276 0.472709)
(0.00797156 -1.21773 -0.0690141)
(0.0275838 -1.48149 0.242466)
(-0.13293 -0.498576 0.743582)
(0.329799 -0.796812 1.42368)
(0.571329 -0.890847 1.70344)
(-0.0158094 -0.864176 0.92789)
(-0.143027 -0.661127 0.840171)
(0.379291 -1.10341 1.40689)
(0.563569 -1.0258 2.08207)
(0.0371551 -1.15884 0.155244)
(0.0672957 -1.2069 0.0942531)
(-0.0382645 -1.19819 0.0200744)
(-0.0424229 -1.3285 -0.202651)
(0.0355974 -1.1471 -0.10382)
(-0.0109189 -1.31591 -0.0187956)
(-0.0468435 -1.19368 0.121192)
(0.035329 -0.146767 1.71703)
(0.0328433 0.079818 1.70883)
(0.0354766 -0.273702 1.97747)
(0.106276 0.160102 1.3331)
(0.069256 -0.110777 1.69193)
(0.0981263 -0.389026 1.77115)
(0.159289 -0.254591 1.62223)
(-0.0905828 -0.0353353 3.61693)
(0.0623594 0.0848852 3.0162)
(0.0429299 0.150626 2.48464)
(0.0270169 0.194931 3.22063)
(-0.19078 0.0616283 3.52048)
(0.0259806 0.179422 2.9898)
(-0.125551 0.0559638 3.1794)
(0.107534 0.33973 2.02326)
(0.0371752 0.489265 1.29664)
(0.140177 -0.0855523 0.926246)
(0.0189738 0.868646 2.03469)
(0.705165 0.0790525 0.448634)
(0.276815 0.364205 0.493972)
(0.0634214 -1.34773 0.0709987)
(0.0114988 -1.8399 0.0421629)
(0.0822558 -1.70664 0.0749586)
(-0.0270502 -1.97791 0.0752488)
(0.00470187 -2.02793 0.0885593)
(0.0687415 -1.974 0.101932)
(0.0555611 -1.97821 0.128906)
(0.084485 -1.37488 0.0345277)
(0.100849 -1.54888 0.0813452)
(-0.0416982 -1.51176 -0.0149503)
(-0.0344004 -1.57083 -0.0217869)
(-0.0983334 -1.53411 -0.0675458)
(0.068452 -1.6752 0.0935021)
(-0.0462939 -1.49591 -0.0183388)
(0.017798 -6.40302 -0.0302849)
(0.00570272 -6.28365 -0.0317773)
(0.0106113 -6.25035 -0.0197298)
(0.0264815 -6.22125 -0.0642424)
(0.0407872 -6.35868 -0.0722052)
(0.0128411 -5.89843 -0.0512023)
(0.0139085 -6.2064 -0.044233)
(0.116998 0.783584 0.238579)
(-0.0764472 0.0314083 -0.569674)
(0.0825105 0.623324 0.0393112)
(-0.0304413 0.0221021 -0.649081)
(0.041415 0.180444 -1.04076)
(-0.118291 -0.160679 -0.908134)
(-0.623357 -0.631377 -0.211368)
(-0.248764 2.08777 1.83403)
(0.0785011 2.63586 2.09509)
(-0.227176 2.03449 1.4675)
(-0.0802513 2.29995 1.84637)
(-0.0123452 2.23887 1.68092)
(-0.177298 1.75373 1.13064)
(-0.377321 1.5589 1.56752)
(0.132818 2.09433 1.54528)
(-0.00725706 2.05117 1.82511)
(0.102465 2.0618 1.62306)
(-0.0875972 2.4142 1.93157)
(-0.118344 2.34517 1.97974)
(-0.0224219 2.33714 1.85708)
(0.0346951 2.49494 1.88318)
(0.191511 1.33924 1.174)
(0.0926518 1.05795 0.951083)
(-0.00134066 1.25991 0.993435)
(0.149674 1.50922 1.29419)
(0.0640396 0.913076 0.870533)
(0.115667 0.991492 0.786534)
(-0.171263 0.953212 0.951807)
(0.221781 1.03455 0.661006)
(0.044111 0.874239 0.81958)
(-0.0224196 0.897708 0.815645)
(0.0240044 0.722515 0.770866)
(-0.00769704 0.651846 0.784455)
(-0.0164528 1.02424 0.967633)
(0.00917061 0.990376 0.968968)
(0.0513687 0.698585 0.791968)
(-0.106508 0.752551 0.834315)
(-0.00891388 0.638737 0.80704)
(0.106525 0.644085 0.661439)
(0.00625002 0.462747 1.06879)
(0.0461992 0.603434 0.640112)
(0.181857 0.615981 0.542991)
(0.016644 0.311736 0.789183)
(0.0717869 0.230282 0.80667)
(0.229208 0.585691 0.630763)
(-0.0401646 0.455593 0.845103)
(0.00483787 -0.52895 0.2782)
(-0.0207925 -0.550111 0.216528)
(0.0113656 -0.425601 0.301209)
(0.0332486 -0.543964 0.246505)
(0.0535466 -0.558541 0.1782)
(-0.0408368 -0.65559 0.193639)
(0.025095 -0.544946 0.259034)
(-0.00215825 -0.636408 0.231165)
(-0.0583664 -0.758118 0.182367)
(-0.0381278 -0.64887 0.158332)
(-0.00817953 -0.656023 0.107227)
(0.00167716 -0.644489 0.133922)
(0.105002 -0.579001 0.212671)
(-0.0203725 -0.547932 0.23342)
(0.035391 -0.541939 0.205171)
(-0.0663354 -0.508394 0.252417)
(0.0369025 -1.08583 0.118803)
(0.0445787 -1.22857 0.154722)
(0.08547 -1.26139 0.101437)
(-0.109172 -1.11535 0.193482)
(-0.134 -1.13361 0.196155)
(-0.0924744 -1.07892 0.123369)
(-0.00374229 -1.14694 0.0364292)
(-0.00987846 -1.34924 -0.210696)
(-0.0234781 -1.24235 -0.0448468)
(0.121057 -1.18172 -0.169046)
(0.121603 -1.26564 0.0848393)
(0.0917805 -1.27436 0.239045)
(0.0250172 -1.27606 0.223605)
(0.105308 -1.11713 0.0738027)
(-0.0417816 -6.22678 -0.139184)
(0.00813749 -6.12416 -0.154334)
(0.0144122 -6.11303 -0.187281)
(-0.0177554 -6.30786 -0.226159)
(-0.0790023 -6.40992 -0.259022)
(-0.104307 -6.42658 -0.195414)
(-0.0190022 -6.08368 -0.175171)
(0.0149863 -0.322043 0.0493706)
(0.0389347 -0.168171 0.0995522)
(-0.0156783 -0.285538 0.0760825)
(-0.0262206 -0.223337 0.0677092)
(-0.00721342 -0.0975789 0.0959548)
(0.0566889 -0.0657384 0.173992)
(-0.0125544 -0.158344 0.128485)
(-0.0383685 -0.135131 0.119749)
(-0.0523697 -0.218636 0.0658171)
(-0.00382086 -0.111549 0.185978)
(-0.108943 -0.218195 0.118378)
(-0.133689 -0.0594618 0.170294)
(0.00336565 -0.110293 0.208309)
(0.0145882 -0.19243 0.110509)
(-0.0103865 -0.187401 0.166833)
(-0.0921046 -0.0998687 0.156462)
(0.0362875 -0.0152273 0.251504)
(0.0547449 -0.10375 0.271713)
(0.0508584 -0.380781 0.223495)
(-0.00215122 -0.136607 0.226008)
(0.102843 0.065332 0.338669)
(0.0172204 0.502655 0.492882)
(-0.00161509 0.484316 0.23971)
(-0.0521698 0.454243 0.584204)
(0.0277909 0.20399 0.331018)
(0.0416668 0.362746 0.233053)
(-0.0402516 0.320745 0.495708)
(0.0267931 0.406217 0.448875)
(0.0314055 0.765386 0.540359)
(0.0259776 0.695854 0.724861)
(0.0419751 0.721914 0.680783)
(-0.0496048 0.666941 0.550417)
(-0.016855 0.534781 0.608421)
(-0.0287816 0.6057 0.540138)
(-0.0200115 0.536535 0.551488)
(0.045632 0.634388 0.647475)
(0.0452258 0.650725 0.630855)
(0.00239049 1.81831 1.46845)
(0.0404372 2.00401 1.55155)
(0.0219424 1.98349 1.56634)
(0.0120629 1.24506 1.04234)
(-0.0571041 1.39008 1.12282)
(-0.0427429 1.81222 1.337)
(-0.00565339 1.88159 1.42806)
(-0.00420744 0.494427 -0.401836)
(-0.0990063 0.121863 -0.618157)
(0.0286667 0.212679 -0.563038)
(-0.0588243 0.500108 -0.396133)
(-0.0130769 0.686787 -0.383089)
(-0.00117121 0.307236 -0.440107)
(0.0207224 0.239934 -0.485057)
(0.181799 0.0219482 -1.81121)
(-0.332509 0.217051 -2.30191)
(-0.0873205 0.523965 -1.67365)
(0.186394 0.0601031 -1.8879)
(-0.122938 0.380625 -2.1433)
(0.101362 0.863347 -1.54883)
(0.235462 0.753162 -1.59878)
(0.0131645 0.747316 -1.96813)
(0.179425 0.392814 -1.63714)
(-0.175115 1.70009 0.168833)
(0.265785 1.15233 -0.302538)
(0.113448 1.81787 0.0448391)
(0.348079 1.35405 -0.0263614)
(0.270324 2.22931 0.198109)
(-0.184632 1.81427 -0.541993)
(0.0101202 2.19288 -0.0564017)
(-0.0257152 2.31287 0.120495)
(-0.0206818 2.30015 0.117068)
(0.0115728 2.38381 0.0777507)
(0.0212571 2.37989 0.0434094)
(0.00379622 2.33155 0.0779624)
(0.0167643 2.37029 0.0541514)
(-0.0195282 2.36625 0.0501295)
(0.037001 2.43878 -0.00895695)
(-0.0222084 2.43681 0.0311952)
(0.291554 1.37049 -0.34721)
(0.3782 1.88183 -0.118026)
(0.306442 1.34295 -0.193723)
(0.0209247 2.42631 0.0341392)
(-0.15407 2.02517 0.00167168)
(-0.0645961 2.46786 -0.0809397)
(-0.00962734 2.31525 0.00952622)
(-0.0554199 2.38525 0.036928)
(-0.0208141 2.52427 -0.173175)
(-0.0221738 2.32107 -0.0789398)
(-0.0202515 0.149136 0.916068)
(-0.00324949 0.202889 0.921692)
(0.00715836 0.204465 0.895086)
(0.0042707 0.172872 0.953334)
(-0.0129283 0.113051 0.921429)
(-0.00484417 0.0942661 0.919411)
(0.00257258 0.151432 0.941147)
(-0.0127298 -2.08183 -0.0699732)
(-0.0210705 -2.06597 -0.0604582)
(0.00813742 -2.05241 -0.00173385)
(-0.0139545 -2.03536 -0.0634029)
(-0.017524 -2.01486 -0.0406146)
(0.0122183 -1.9711 -0.00378065)
(0.0186095 -1.84978 0.0110634)
(0.0291325 -1.94374 -0.00480634)
(0.0402203 -1.92972 -0.0565988)
(-0.016357 -0.0990204 0.90857)
(0.015937 -0.0135842 0.972854)
(0.112455 0.0923338 1.03433)
(-0.0550583 -0.0300834 0.921844)
(0.0857679 0.0721583 0.970018)
(-0.0523053 0.0721153 0.998646)
(0.0562761 0.15692 0.989263)
(-0.146628 0.636341 -1.0802)
(0.17393 1.08053 -0.451062)
(0.400866 0.737536 -1.07294)
(-1.03015 0.446171 0.545585)
(-0.525313 -0.00390143 0.40312)
(-0.257948 0.0986488 -0.373585)
(-1.15318 0.304005 0.187277)
(-0.258856 1.40321 -0.802008)
(-0.140415 1.47034 -1.03265)
(-0.159547 0.972166 -1.20609)
(0.585507 2.15787 -0.0773575)
(0.274932 2.18601 -0.125214)
(0.44994 2.19959 -0.137838)
(-0.0898443 2.25626 0.0312424)
(0.275173 1.91449 -0.330453)
(0.38392 2.11777 -0.147484)
(0.20744 1.72642 -0.44876)
(-0.206386 1.80099 -1.00461)
(-0.0525917 1.98428 -0.23507)
(0.201481 1.60028 -0.576599)
(-0.395474 1.66915 -1.23371)
(-0.0699069 1.968 -0.202854)
(-0.110752 1.94849 -0.328103)
(-0.11862 1.83004 -0.56097)
(-0.0282953 1.92609 -0.295692)
(0.107462 0.00306952 -3.1625)
(-0.194514 -0.129305 -1.98615)
(-0.357938 -0.0698011 -0.81137)
(-0.193779 -0.0927261 -2.43126)
(-0.012956 0.159052 -2.98309)
(-0.172216 -0.040173 -1.8887)
(0.00964878 0.143433 -2.26954)
(0.122861 -0.0255986 -0.716767)
(-0.113562 0.124194 -1.19797)
(0.214606 0.00440306 -0.440472)
(-0.179247 0.0268114 -1.68415)
(-0.104834 0.258001 -1.89301)
(0.11132 0.916986 -1.77611)
(0.0045611 0.43772 -2.0486)
(-0.00356227 1.13016 -0.969987)
(0.103991 0.496425 -0.841471)
(-0.036564 0.386641 -2.41056)
(-0.232079 0.707077 -2.11462)
(0.0176875 0.277451 -2.5836)
(-0.106103 0.557376 -2.41534)
(0.0229609 0.36816 -2.56048)
(-0.205089 0.728667 -2.17473)
(-0.0831614 0.469971 -2.38085)
(0.112263 0.191413 -1.24709)
(0.159852 0.0341355 -0.903036)
(-0.0571922 0.312938 -1.49288)
(-0.0990446 0.182849 -1.03435)
(-0.0260389 0.352136 -1.57687)
(-0.0419189 -0.0131473 -0.922947)
(-0.0178198 0.173916 -1.26168)
(0.00821807 -0.222897 1.13315)
(-0.00410222 -0.181165 1.05498)
(-0.0428786 -0.224445 1.14641)
(0.00377894 -0.289815 1.08765)
(-0.0144775 -0.330339 1.09436)
(0.011425 -0.318171 1.11258)
(-0.0212227 -0.378106 1.13832)
(-0.0517001 -0.314918 1.18955)
(-0.0136086 -0.271539 1.14155)
(0.0492886 -0.298883 1.02956)
(-0.00187951 -0.337741 0.978171)
(-0.00648191 -0.341712 1.04884)
(-0.0115097 -0.326419 1.10662)
(0.0198134 -0.285213 1.18725)
(0.0180482 -0.314119 1.04327)
(0.0513741 -0.279325 1.12069)
(-0.0385742 -0.331286 0.532476)
(-0.00158203 -0.244155 0.825136)
(-0.0301111 -0.361509 0.772881)
(0.00996217 -0.288876 0.890332)
(-0.0325367 -0.33338 0.947089)
(0.0192396 -0.322055 0.835228)
(-0.0239623 -0.386955 0.947363)
(-0.00299305 -0.374099 0.898407)
(0.0296976 -0.328947 0.735393)
(-0.0163607 -2.41139 -0.143577)
(-0.00341206 -2.61836 -0.128646)
(0.0236258 -2.66733 -0.136897)
(-0.0169378 -2.55307 -0.181969)
(-0.00898402 -2.64941 -0.17566)
(0.00202051 -2.68135 -0.183862)
(-0.000817707 -2.59784 -0.1909)
(0.00071919 -2.23781 -0.0826249)
(0.00289721 -2.21147 -0.0743175)
(-0.000744944 -2.20353 -0.0833619)
(-0.00321347 -2.20742 -0.0944261)
(-0.00919208 -2.23248 -0.0932126)
(-0.0156582 -2.23617 -0.0980373)
(-0.0042617 -2.19286 -0.0931691)
(0.0322275 1.58395 0.792715)
(-0.042882 0.919938 0.359304)
(-0.0624304 1.08289 0.467812)
(0.178156 1.89034 0.949317)
(0.0818751 1.72623 0.909506)
(0.0610279 1.25978 0.432533)
(0.0832573 1.29768 0.506485)
(0.178033 2.32148 0.893651)
(-0.193992 1.29012 0.663765)
(-0.0658366 1.64238 0.664864)
(-0.260956 2.70938 1.13539)
(0.140679 3.11586 1.67228)
(-0.013518 2.97815 1.64182)
(-0.236746 2.51658 1.21799)
(0.0365295 3.32955 1.57905)
(-0.0617333 3.37549 2.12781)
(-0.0703096 3.41671 2.05615)
(0.159917 3.5239 1.67093)
(0.131839 3.26123 1.50688)
(0.0374037 3.28522 1.93998)
(0.079169 3.43199 1.92396)
(-0.000130018 0.957163 0.0206648)
(0.00982701 0.713289 -0.0692427)
(-0.000911199 0.345853 -0.373525)
(-0.0432065 0.454929 -0.0507225)
(-0.0890271 0.468525 -0.0308019)
(-0.0481258 0.313635 -0.346769)
(-0.0263975 0.346456 -0.434286)
(0.00331079 0.283751 -0.310723)
(0.0845916 0.343546 -0.345848)
(-0.293253 0.479173 -0.0299929)
(-0.0785238 0.418934 -0.0213316)
(-0.000982187 0.437067 0.0940633)
(0.119495 0.29017 -0.110984)
(-0.00109278 0.135992 -0.0547381)
(-0.0163476 0.287245 -0.103638)
(-0.222671 0.293101 -0.103195)
(-0.0440075 0.401107 0.0172359)
(-0.0595687 0.383594 0.083798)
(0.0194433 0.361106 -0.0394773)
(-0.0801338 0.36151 0.0268863)
(-0.0626562 0.473158 -0.0353698)
(-0.0649963 0.385903 0.0682709)
(0.00975728 0.38068 -0.0396972)
(-0.109042 0.689925 0.168517)
(0.239919 0.482136 0.129639)
(0.195244 0.55484 0.243298)
(-0.0211727 0.217917 0.00687967)
(-0.1095 0.32151 0.0558295)
(-0.102386 0.097678 -0.0544047)
(0.100928 0.116471 -0.065174)
(0.0632458 0.843714 0.314519)
(0.075591 0.671082 -0.00693483)
(0.0879625 0.556043 0.0346603)
(-0.1328 0.678347 0.0992319)
(-0.0317984 0.843295 0.153413)
(0.0648387 0.650168 -0.177932)
(-0.0148106 0.401092 -0.0855054)
(0.0202624 0.396164 -0.0302459)
(-0.0196198 0.531124 -0.0330939)
(-0.0274776 0.523177 0.00884591)
(0.100179 0.400594 -0.0297723)
(0.0950021 0.599596 0.0106087)
(0.100691 0.559318 0.0301054)
(0.0474203 0.383609 -0.0115276)
(0.0396331 0.718076 0.0890319)
(0.0175656 0.277737 0.0122566)
(0.160667 0.624271 -0.131522)
(0.0812495 0.402337 -0.0179715)
(0.0831389 0.445815 0.024813)
(0.0226662 0.419317 -0.0262864)
(-0.0637633 3.45657 1.70704)
(-0.223139 3.008 1.8164)
(0.113533 3.63785 1.51302)
(-0.187526 3.01984 1.64093)
(-0.0177347 3.53516 1.5993)
(0.0906489 3.91745 1.41123)
(0.0919135 3.71205 1.49815)
(0.0417584 2.15074 1.02576)
(-0.0896403 2.29344 0.994467)
(-0.0830695 2.15829 1.15928)
(0.0178371 2.41247 0.749953)
(0.117852 2.67205 0.934259)
(0.017168 2.41507 0.898731)
(-0.100093 2.65918 1.30239)
(0.142003 1.58943 1.02368)
(0.0156461 2.99172 1.58906)
(-0.128136 2.51842 1.42652)
(0.0132895 3.8268 1.3929)
(0.0347734 3.99805 1.37827)
(0.0267099 3.82255 1.39203)
(0.018452 4.00968 1.34569)
(0.00840016 4.24309 1.32047)
(0.0384882 4.18664 1.4196)
(0.0359531 4.35514 1.44762)
(0.022937 4.31001 1.48037)
(0.0350587 4.08364 1.44365)
(0.037514 4.02793 1.34142)
(0.0851245 4.12418 1.45716)
(0.0201689 4.15996 1.35352)
(-0.0644493 3.90109 1.24645)
(-0.0114284 4.16641 1.31123)
(-0.0100321 4.19257 1.42449)
(-0.0278061 4.3141 1.50203)
(-0.0472404 4.1363 1.36698)
(0.0694345 4.04207 1.44868)
(0.0982526 3.14488 0.669554)
(-0.0165254 3.75177 1.14129)
(0.0281136 2.95493 0.705318)
(0.168745 2.87391 0.44709)
(0.0184351 3.65403 0.852453)
(0.0288523 2.79367 0.646308)
(0.165327 2.03767 0.490419)
(0.0108328 1.23707 1.32822)
(0.107493 1.4193 1.62383)
(0.14461 1.33666 1.57079)
(-0.018516 0.410106 1.21025)
(-0.070209 0.644738 1.24021)
(0.0249054 0.698531 1.32389)
(-0.0411379 0.716555 1.36878)
(0.0615902 1.18958 1.62504)
(0.0499304 1.08126 1.43775)
(0.0508265 0.893728 0.844633)
(0.0791103 0.933564 0.810488)
(-0.00444372 0.582633 0.730327)
(-0.013964 0.580757 0.651527)
(0.00139453 0.551034 0.692791)
(0.0267964 0.85167 0.749148)
(0.045546 0.808696 0.778204)
(-0.00176707 0.421572 0.498991)
(-0.0973829 0.442541 0.600241)
(-0.0260198 0.517179 0.573357)
(0.0391705 0.534609 0.364502)
(0.014672 0.294883 0.414028)
(-0.0558905 0.497512 0.492281)
(0.0194475 0.642664 0.534484)
(0.0108805 0.880359 0.588456)
(0.0115547 0.675308 0.622516)
(0.000503609 0.851545 0.661724)
(0.0243692 0.642652 0.474609)
(-0.00272465 0.638254 0.495999)
(0.0375145 0.843199 0.613793)
(0.0298854 0.815728 0.550438)
(-0.00540482 0.643459 0.598431)
(0.0258409 0.671051 0.674117)
(-0.0627022 0.60863 0.558116)
(0.0113035 0.610186 0.536773)
(0.0246182 0.653832 0.598365)
(0.000274834 0.375719 0.484626)
(0.0351546 0.261364 0.569859)
(0.000154384 0.352713 0.268234)
(-0.0187727 0.101784 0.43721)
(-0.0376752 0.228917 0.384714)
(0.0526576 0.180914 0.529051)
(-0.00911797 0.296141 0.541003)
(-0.00833147 0.105226 0.680577)
(0.185347 0.171616 0.828187)
(-0.0135728 -0.222129 0.524879)
(-0.0257312 -0.197503 0.608199)
(0.0357818 -0.242961 0.636325)
(0.131178 0.0112017 0.776844)
(-0.0922309 0.0359834 0.631988)
(-0.169468 -0.108624 0.19159)
(0.0571057 0.0604281 0.296431)
(-0.0349741 0.0370793 -0.124899)
(0.0673775 -0.138424 -0.231847)
(0.129807 -0.267827 -0.0493963)
(0.0974631 -0.0841726 0.133874)
(-0.0712631 -0.238658 0.0870006)
(-0.04095 0.827393 -1.00058)
(-0.00934618 0.975339 -0.862474)
(-0.0530039 0.983534 -0.911681)
(-0.00546129 0.942905 -1.21757)
(-0.0175233 1.0022 -1.1174)
(-0.0699944 1.05659 -1.17557)
(-0.0175845 0.952502 -1.23543)
(0.0152751 0.191354 -0.430892)
(0.0616482 0.387255 -0.622133)
(0.063842 0.398008 -0.531088)
(-0.12852 0.0556798 0.0519636)
(-0.00447299 0.0505705 -0.146147)
(-0.122619 0.229367 -0.0867362)
(-0.0730263 0.208808 -0.153435)
(0.0421773 0.313473 -0.390161)
(1.64563e-05 0.201742 -0.171343)
(0.107143 0.0608992 0.317674)
(0.100746 -0.0690119 0.446173)
(-0.0282794 0.15707 0.31294)
(0.0251089 -0.104364 0.496285)
(0.0339011 0.0171614 0.271021)
(-0.0746268 -0.0734512 0.450235)
(0.019962 -0.057608 0.35974)
(0.00472787 0.0633066 0.902596)
(0.0104616 -0.0185943 0.852377)
(-0.0026239 0.0960274 0.868863)
(-0.00277424 0.0191899 0.915556)
(0.0231339 -0.0232031 0.887979)
(0.0132483 -0.0633173 0.882241)
(0.00849862 0.00265538 0.900742)
(0.0117094 -0.092171 0.759711)
(0.0208477 -0.138972 0.811031)
(0.00537332 -0.135459 0.861295)
(-0.00932919 -0.0199727 0.755725)
(0.0157163 -0.0999958 0.771479)
(-0.0152386 -0.00443146 0.795973)
(0.00661532 -0.0798167 0.796444)
(0.0681303 -0.283977 0.980733)
(-0.0708288 -0.215971 1.00816)
(-0.00661427 -0.0257096 0.790624)
(0.0203258 0.0222368 0.656416)
(0.0193355 0.0225215 0.693012)
(0.0235002 -0.0291457 0.762658)
(-0.0453187 0.0188888 0.759016)
(0.0746 2.3472 0.292227)
(0.0566206 2.18536 0.336197)
(0.00379804 2.0752 0.265013)
(0.0642885 2.44014 0.293469)
(0.0435087 2.18502 0.406363)
(-0.00652918 2.3902 0.243993)
(-0.0597535 2.3153 0.423839)
(0.0256908 2.36855 -0.0180201)
(0.065351 2.32168 -0.0472124)
(0.0065235 2.01001 0.0374715)
(0.0683005 2.18146 0.0155107)
(0.00469617 2.15439 0.0512647)
(0.0674877 2.28727 0.0764412)
(0.00565113 2.39535 0.0727229)
(0.0921734 2.34153 0.0710307)
(0.00253367 2.45786 0.115571)
(-0.0216528 2.18713 -0.029142)
(-0.0574061 2.1561 -0.005788)
(0.0434311 2.30689 -0.0300383)
(0.00769708 2.37172 0.0373912)
(0.0535932 2.42839 0.016559)
(0.0461617 2.19532 -0.0796305)
(0.119703 2.06192 -0.0529187)
(-0.0386165 2.14955 -0.0255764)
(0.00698899 2.1007 -0.0750899)
(0.0441554 2.12642 0.0334643)
(0.0284121 2.13444 0.0310359)
(0.00693547 2.14748 0.109833)
(-0.0242178 2.13416 0.0486713)
(-0.023457 2.16465 0.0779608)
(-0.0196398 2.1684 0.0111116)
(0.012485 2.18673 0.0399386)
(-0.0183903 2.20144 0.0569408)
(0.00874462 2.21743 0.0639873)
(-0.0320451 2.13743 0.0641621)
(-0.0400844 1.78658 0.000878982)
(0.00292876 2.18104 -0.00330465)
(0.0245489 2.1564 0.00849351)
(-0.0046881 2.21956 0.035247)
(0.00459704 2.28143 0.00217088)
(-0.0161708 2.23746 0.0430986)
(-0.182892 2.4014 -0.086462)
(-0.0301452 2.33023 0.0497655)
(0.0318337 1.53955 0.0211968)
(0.0230914 2.57473 0.0296498)
(-0.0339547 2.27879 -0.0727774)
(-0.16367 2.54531 -0.15516)
(-0.0274138 2.50755 -0.00433277)
(-0.00389749 2.4723 -0.0272457)
(-0.0782021 2.11887 -0.00818212)
(0.030257 2.43977 -0.0100414)
(0.0244359 2.4042 0.0131448)
(0.00125356 2.04199 -0.32154)
(0.133934 2.06934 -0.32409)
(-0.00814474 1.98473 -0.135035)
(-0.0789928 2.00332 -0.164286)
(0.00226943 2.05954 -0.165233)
(-0.144548 2.07754 0.00939956)
(-0.0312536 2.14804 0.0988738)
(-0.031388 2.47702 -0.0213256)
(-0.0260737 2.39189 0.0584368)
(0.0347862 2.40078 0.0307904)
(0.0218518 2.33812 0.0409075)
(0.0236964 2.37953 -0.030519)
(0.00970388 2.58073 -0.331132)
(0.00263998 2.34864 -0.041501)
(-0.0128348 2.29156 -0.146546)
(0.450925 2.19024 -0.0959008)
(-0.164819 1.85972 -0.661771)
(-0.0417236 1.43831 -1.22707)
(0.876496 2.46981 0.254439)
(0.103776 1.83193 -0.772822)
(0.0441459 1.33133 -1.4761)
(0.0365006 1.35763 -1.23088)
(0.102424 1.87632 -0.46295)
(0.0213631 1.78211 -0.872775)
(0.13081 1.81833 -0.568574)
(-0.409556 2.18393 -0.361636)
(-0.0121406 1.98585 -0.392191)
(0.0730231 0.969567 -1.43749)
(-0.021353 1.13164 -1.70102)
(-0.00761849 1.21878 -1.43038)
(-0.155978 1.62713 -0.978288)
(0.0956419 1.73737 -0.915475)
(0.0919957 1.73314 -1.02276)
(-0.0535333 1.37848 -1.05781)
(-0.00900453 0.182578 -2.31475)
(-0.214251 0.142518 -2.0652)
(-0.272225 -0.0449286 -1.9521)
(0.00461305 -0.0278186 -2.78935)
(0.012705 -0.00618167 -2.85169)
(-0.026071 -0.00663865 -2.93989)
(-0.0111363 -0.0670832 -2.92555)
(-0.0485581 -0.0555437 -3.05487)
(-0.0317785 0.0091555 -2.88188)
(-0.00610062 -0.027132 -2.89347)
(0.0906378 0.164305 -2.50596)
(0.262688 -0.182657 -2.86469)
(-0.00502957 0.451326 -2.41867)
(0.0661425 0.178726 -2.80665)
(0.0438032 0.0293054 -2.83832)
(0.0195423 0.0973165 -2.77838)
(-0.0564303 0.389862 -2.63147)
(0.019879 0.0193454 -2.73405)
(0.0170493 0.120912 -2.67362)
(0.0662106 0.165132 -2.39917)
(0.0757532 0.0213446 -1.84405)
(-0.0230551 0.161611 -2.56937)
(-0.0113249 -0.10847 -2.74626)
(-0.0319843 -0.0442414 -2.85797)
(-0.0370112 0.0136653 -2.27645)
(0.0135112 -0.0743954 -2.81121)
(-0.0160879 -0.0585005 -2.85909)
(-0.0930706 0.0382222 -2.81709)
(-0.0715371 0.034777 -2.81195)
(0.00851868 -0.0533219 -2.80567)
(-0.0115185 -0.0205476 -2.8287)
(0.0104406 0.041598 -2.58402)
(0.0735548 0.0720724 -2.75172)
(-0.0756065 -0.0489871 -1.80912)
(-0.0149881 -0.0223108 -2.74799)
(-0.0156215 -0.0150499 -2.83375)
(-0.0503359 -0.0895972 -2.73817)
(-0.010955 -0.0396281 -2.82145)
(0.0278124 0.00290733 -2.77069)
(-0.0171638 0.00222262 -2.85855)
(-0.00715736 0.0145283 -2.92209)
(-0.0150298 0.0227565 -2.78267)
(-0.0180016 -0.0146996 -2.79145)
(0.00354606 -0.0566622 -2.70195)
(0.00915916 -0.0325866 -2.65305)
(-0.0218897 -0.0228991 -2.68608)
(-0.0014125 -0.0634131 -2.64655)
(0.0188806 -0.0588501 -2.60527)
(0.00429246 -0.0128115 -2.83093)
(0.0329404 -0.0687997 -2.79022)
(0.000925217 0.164793 -2.74758)
(-0.0569501 0.058592 -2.76634)
(0.0142122 -0.0726275 -2.78605)
(-0.0299423 -0.109119 -2.77567)
(-0.0757174 -0.100205 -2.82885)
(-0.0406597 -0.00523096 -2.68435)
(-0.0126059 -0.0253849 -2.62094)
(-0.00626031 0.0379867 -2.49286)
(0.0313085 0.0187513 -2.75936)
(0.0437159 0.00597685 -2.67055)
(0.00871823 0.0264549 -2.6462)
(0.0113462 -0.00128244 -2.73376)
(-0.0533805 -0.0200397 -2.72999)
(-0.0728284 0.0992777 -2.47074)
(0.030483 -0.111231 -2.85266)
(0.0565045 -0.0263624 -2.90637)
(0.0326183 -0.0714094 -2.82242)
(0.0141448 0.0733672 -2.8119)
(0.00395202 -0.0349701 -2.80322)
(-0.0842113 0.0510964 -0.869563)
(-0.0684392 0.138679 -0.731791)
(0.0246143 0.204725 -0.664189)
(-0.0328699 0.117614 -0.963325)
(-0.0421775 0.252774 -0.926403)
(0.0347565 0.162084 -1.0627)
(0.0671566 0.337102 -0.96217)
(-0.0162784 0.486855 -0.523937)
(-0.0106681 0.414546 -0.601294)
(0.0115057 0.361056 -0.606471)
(0.0412546 0.513819 -0.489798)
(0.0514209 0.431536 -0.573918)
(0.0280325 0.38477 -0.655237)
(0.0169311 0.490639 -0.60139)
(0.033851 0.602251 -0.543362)
(-0.025219 0.474316 -0.48907)
(-0.0157221 0.399494 -0.647728)
(-0.0243095 0.263985 -0.499857)
(0.051087 0.465345 -0.574793)
(0.00105191 0.287169 -0.769314)
(-0.0380883 0.0061173 -0.629715)
(0.0442134 -0.0989 -0.294755)
(-0.0488813 -0.12408 -0.437639)
(0.0638816 -0.014945 -0.367892)
(-0.00207942 -0.263813 -0.39032)
(-0.00474386 -0.2036 -0.440661)
(-0.0133457 -0.214423 -0.296677)
(-0.0287968 -0.161487 -0.361823)
(-0.0184665 0.00680004 -0.326466)
(0.00629397 -0.123144 -0.212063)
(0.00793164 -0.245494 0.175971)
(-0.0399609 -0.268485 0.000865789)
(-0.0131889 -0.0239226 0.0440585)
(-0.00220612 -0.165581 -0.225144)
(0.076298 -0.169027 -0.0964436)
(0.0166964 -0.278631 -0.13638)
(0.0766139 -0.306602 -0.0932229)
(-0.0518569 -0.287056 -0.0448644)
(0.0182622 -0.305192 0.0620848)
(0.110648 -1.14477 0.695115)
(-0.112017 -1.26946 0.540894)
(-0.00478976 -0.925558 0.978294)
(0.0622846 -1.03503 0.758595)
(-0.179962 -1.2422 0.541357)
(0.0306481 -0.799027 1.05125)
(-0.0756556 -0.875871 1.00302)
(0.06546 2.90013 1.55726)
(-0.0499586 3.5627 2.06499)
(-0.119341 3.23203 2.00183)
(0.183048 2.39498 1.89847)
(0.0134346 2.84295 2.11404)
(-0.113516 2.38341 1.83772)
(0.0712012 1.567 1.48389)
(-0.0514346 0.914568 0.36315)
(0.213762 0.963938 0.460101)
(0.00336154 0.942731 0.549742)
(0.0486005 0.880583 0.560703)
(0.309961 1.13749 0.697197)
(0.0612653 0.731323 0.521515)
(0.0546638 0.791134 0.621403)
(0.0212249 0.659808 0.785934)
(-0.173044 0.762544 0.962221)
(0.0205456 1.58704 1.12316)
(0.302575 1.93786 1.59244)
(0.225095 2.16029 1.66201)
(0.00741346 1.07108 -0.0439963)
(-0.108625 2.23819 0.719473)
(-0.0138119 1.68981 0.398238)
(0.10427 0.641038 -0.442648)
(-0.006988 0.641001 -0.239406)
(-0.120006 1.13819 0.355848)
(0.0647643 1.13486 0.0293221)
(0.0515147 0.495076 -0.372075)
(-0.0265256 0.352726 -0.559609)
(0.0288953 0.526655 -0.296277)
(-0.0270254 0.384659 -0.537782)
(-0.0408623 0.231701 -0.524911)
(-0.0415788 0.351706 -0.348529)
(-0.0257385 0.414572 -0.393729)
(0.0852213 0.890728 -0.251848)
(0.0454071 0.87799 -0.255144)
(0.0123956 0.833816 -0.258621)
(0.080825 0.848268 -0.215298)
(0.0431178 0.800799 -0.222295)
(0.00288908 0.755862 -0.253263)
(-0.0174084 0.724047 -0.284954)
(-0.120946 0.561939 0.0133078)
(-0.124979 0.882934 0.0908325)
(-0.129488 0.807431 0.0367821)
(0.0170252 1.16236 0.0677494)
(-0.0761863 0.890803 -0.00673817)
(-0.0898275 1.07441 0.0911441)
(-0.0834473 0.895273 0.0151623)
(-0.0202663 0.865895 -0.149564)
(0.038919 0.682381 -0.207608)
(0.0735905 0.67091 -0.225505)
(-0.0123044 0.803271 -0.11028)
(-0.0451081 0.799164 -0.0451893)
(0.0344229 0.699226 -0.158481)
(0.0679249 0.599357 -0.181037)
(-0.0419914 0.553834 -0.117698)
(-0.0537008 0.555569 0.0162564)
(0.00857383 0.617755 -0.208393)
(-0.0715493 0.650272 0.0705454)
(-0.0672453 0.794688 -0.0687322)
(0.0249321 0.649277 -0.248851)
(0.038754 0.677484 -0.0906458)
(-0.0386958 0.544261 -0.184271)
(-0.00615515 0.692409 -0.10421)
(-0.0138939 0.464456 -0.0731552)
(0.0755077 0.510884 -0.157418)
(0.140468 0.557666 -0.283067)
(0.078103 0.641151 -0.244295)
(-0.0780361 0.324921 -0.0175932)
(-0.0895113 0.415256 0.107526)
(0.0272501 0.607225 -0.112565)
(-0.0360351 0.279992 0.00412995)
(0.0921417 0.303634 -0.11805)
(-0.0499807 0.339303 0.0362877)
(-7.59913e-05 0.46686 -0.101148)
(-0.00863398 0.428932 -0.0524173)
(0.098719 0.273533 -0.0771085)
(0.035002 0.368293 0.148222)
(0.0253186 0.399131 -0.032362)
(-0.0795405 1.21401 0.659063)
(0.0250505 1.84497 0.958884)
(0.0935919 1.29258 0.589308)
(0.0954203 2.12282 0.946251)
(0.0747882 2.4778 1.10989)
(0.242236 1.64605 0.64421)
(0.115498 1.55523 0.608075)
(0.0340971 3.89942 1.378)
(0.040744 4.12094 1.50852)
(0.0216844 3.57684 1.30404)
(-0.0309261 3.44408 1.34061)
(0.0230059 3.46479 1.4224)
(0.11673 3.82118 1.4466)
(9.18986e-05 3.76007 1.3592)
(0.0130873 4.38572 1.74721)
(-0.0782514 4.24277 1.6342)
(-0.0749004 4.1443 1.56487)
(-0.0594682 4.04294 1.79225)
(0.0142829 4.22404 1.92482)
(-0.0615788 4.11013 1.72093)
(-0.0662776 3.80334 1.54029)
(-0.0510318 3.46769 1.0011)
(-0.0731209 3.68228 1.29635)
(-0.107744 3.91878 1.23461)
(0.0481358 2.93105 1.53224)
(0.0232481 2.79729 1.18772)
(0.0387454 2.75992 1.68775)
(0.068396 2.40106 0.915487)
(0.116812 1.94885 0.876341)
(0.0527662 2.33152 1.31377)
(0.0769427 2.62899 1.24528)
(-0.016194 1.94128 0.373768)
(-0.0328546 2.14589 0.550141)
(-0.0625576 1.26982 0.224773)
(-0.0402278 1.96493 0.392815)
(0.0423751 0.64345 0.0512715)
(-0.0409172 1.02302 0.00665573)
(-0.0401504 0.523276 0.182575)
(-0.0765685 0.447258 0.165858)
(-0.0270732 0.719168 0.249556)
(0.0359825 -0.172277 0.224377)