/*--------------------------------*- C++ -*----------------------------------*\
| =========                 |                                                 |
| \\      /  F ield         | OpenFOAM: The Open Source CFD Toolbox           |
|  \\    /   O peration     | Version:  v2012                                 |
|   \\  /    A nd           | Website:  www.openfoam.com                      |
|    \\/     M anipulation  |                                                 |
\*---------------------------------------------------------------------------*/
FoamFile
{
    version     2.0;
    format      ascii;
    class       surfaceScalarField;
    location    "0.15";
    object      alphaPhi0.water;
}
// * * * * * * * * * * * * * * * * * * * * * * * * * * * * * * * * * * * * * //

dimensions      [0 3 -1 0 0 0 0];
oriented        oriented;


internalField   nonuniform List<scalar> 
13152
(
9.08255e-07
2.02089e-05
-1.48005e-06
-1.96372e-05
1.86239e-05
-1.71515e-05
-5.64112e-07
-3.48792e-06
4.23208e-05
-3.46701e-05
3.53748e-05
-2.18475e-06
2.11979e-05
-7.55052e-05
2.84989e-05
-2.44525e-05
6.03858e-05
-1.61377e-05
-2.95872e-05
-2.83861e-05
7.41109e-05
3.88737e-07
-1.68427e-05
3.16301e-07
-2.98937e-05
6.95225e-07
7.87098e-06
5.17007e-06
-2.98837e-05
7.84878e-06
3.38503e-07
-5.07009e-06
-1.54672e-05
-2.97937e-05
-8.63745e-06
-1.46819e-05
-5.13905e-06
2.84584e-05
-5.8369e-08
-8.65934e-06
8.02593e-08
-1.42054e-05
-5.34884e-07
5.64188e-06
-3.05502e-05
1.62489e-05
-2.94363e-05
2.99391e-05
2.93554e-05
-6.15793e-07
3.36744e-08
-1.51624e-05
-2.98884e-05
1.28378e-07
-7.49345e-05
3.23393e-07
1.60058e-05
3.02e-05
6.24973e-08
7.46642e-05
3.58474e-05
1.26806e-05
2.53474e-05
-7.38754e-05
3.0657e-07
-6.2802e-07
3.61688e-05
1.24231e-05
2.6687e-07
-1.8792e-05
7.35359e-05
7.77626e-05
2.90684e-05
-7.23938e-07
-2.93469e-05
1.0024e-06
-1.63534e-05
-2.68999e-05
7.23217e-05
2.01755e-07
-1.72791e-05
-8.07362e-06
7.9955e-06
2.79872e-07
5.2779e-06
-3.06306e-05
-4.95168e-06
-1.39527e-05
-2.90207e-05
-1.38041e-05
1.3132e-07
2.91011e-05
2.11769e-07
1.81401e-07
1.41014e-07
-5.58694e-08
-5.1698e-07
-3.32396e-08
3.40909e-08
1.02362e-07
-1.57193e-09
9.07463e-08
-1.36925e-07
1.3784e-08
1.56711e-07
-2.53713e-08
-2.1727e-07
1.37106e-09
2.74922e-08
-2.29982e-08
3.44555e-08
5.45641e-08
2.70054e-08
2.09873e-08
2.89738e-08
-1.9493e-42
6.86675e-42
-2.68812e-42
-3.99479e-42
3.14595e-41
-7.7069e-42
-3.33844e-41
-7.87028e-43
-1.9483e-42
4.94613e-42
2.40071e-42
-1.7496e-41
2.83562e-43
-2.55017e-43
-1.30369e-42
1.56655e-44
-1.82412e-42
-3.91001e-38
-7.55227e-38
-1.45371e-38
9.47607e-38
-4.99326e-39
-9.472e-38
3.02932e-39
-2.82761e-37
-5.69131e-39
5.18924e-37
3.86428e-37
-1.78642e-36
2.14751e-37
8.16814e-40
-1.55039e-37
2.70975e-37
2.17006e-40
5.99436e-34
5.86544e-34
6.02747e-34
-3.308e-33
1.60163e-35
6.8436e-34
1.12363e-36
1.54598e-34
6.64072e-36
-9.71953e-36
3.67326e-34
1.04943e-35
2.44091e-34
-7.61504e-36
-1.10086e-34
3.691e-34
3.89579e-36
-4.11412e-08
-2.97629e-08
-4.95802e-09
8.44544e-08
6.46933e-10
-1.70852e-08
-1.87514e-08
7.79931e-11
-2.16306e-08
3.96647e-08
-6.26667e-09
-4.921e-08
-5.32006e-08
9.15304e-08
-6.3894e-08
9.49987e-09
-9.03442e-08
1.28724e-08
-3.64997e-09
-5.62408e-09
8.31876e-09
-2.85661e-08
3.34738e-09
4.55396e-08
-6.61375e-10
-2.56336e-08
2.72688e-08
-2.08802e-10
-2.86144e-08
2.6515e-08
1.73285e-08
-1.36858e-08
4.68525e-08
-1.39408e-08
1.14626e-10
-1.57616e-09
-6.56663e-09
8.80084e-09
-1.73139e-09
-3.62825e-09
7.51277e-09
-7.05512e-10
-3.01105e-09
-2.1031e-09
1.11653e-09
1.13579e-10
2.95767e-09
-8.48684e-09
-7.24919e-10
-1.31006e-09
2.13547e-09
-4.81329e-08
-5.06523e-08
-1.14694e-08
1.12274e-07
2.00503e-08
-3.70181e-08
-1.95789e-08
9.69725e-11
6.31059e-10
-8.50412e-09
-2.52828e-08
-2.72632e-08
7.54736e-09
-2.45352e-08
2.9919e-07
-3.08915e-07
2.5869e-07
-4.3803e-08
9.4231e-08
-6.4356e-09
-4.39894e-08
1.76806e-07
1.43094e-10
-2.20703e-07
1.11343e-07
1.59705e-07
-2.12845e-08
2.70684e-07
-2.4925e-07
2.95793e-08
-5.72984e-08
-3.00361e-07
6.82439e-07
-1.10472e-07
-4.47835e-07
-3.59773e-07
7.18167e-07
9.11136e-08
1.2675e-07
-1.37918e-07
-4.34207e-07
1.11038e-07
-3.45896e-07
-1.3715e-06
1.93169e-06
-1.27915e-06
-2.69026e-08
-2.05246e-06
-6.51953e-49
6.87062e-11
6.18267e-12
-6.9962e-11
0
0
0
2.2139e-12
6.72896e-11
4.88579e-15
2.35621e-14
-2.77365e-14
1.47233e-15
3.46106e-15
-5.65773e-12
8.02924e-12
9.14936e-13
1.82012e-05
9.83034e-07
-1.7286e-05
-7.9976e-09
-2.07462e-05
-2.69556e-05
6.79449e-05
6.7654e-07
-2.06447e-05
-2.60318e-05
2.64681e-05
2.91909e-07
1.97909e-05
-6.65453e-05
-2.25225e-06
1.7534e-06
-3.87942e-09
-1.3459e-14
-3.7685e-52
6.86128e-15
1.8051e-14
-2.19046e-52
3.28169e-14
2.32596e-14
0
0
8.0345e-11
-3.88015e-11
1.15952e-10
-4.18058e-12
1.29842e-10
7.01203e-11
1.00026e-10
1.41908e-10
-1.98405e-21
5.09491e-20
1.57448e-20
-8.66579e-20
1.36921e-20
-1.56896e-20
-1.35221e-22
-9.83443e-21
7.04775e-20
-1.56798e-19
9.31765e-20
6.36094e-20
2.17527e-20
-2.80634e-19
2.36946e-20
-1.87629e-20
1.0355e-19
-4.01773e-18
-9.60852e-19
-6.88e-19
5.39399e-18
-1.81904e-19
1.45408e-18
-6.32758e-18
-1.18926e-18
-1.26457e-20
-1.13734e-17
7.09056e-18
5.01727e-18
1.36178e-18
-1.94451e-17
1.76351e-18
-1.68529e-18
7.8914e-18
-1.34483e-19
2.96864e-19
-7.91325e-19
3.93277e-19
5.76877e-19
-1.10669e-18
-8.67071e-20
-2.31369e-19
8.67437e-19
6.23562e-19
1.58912e-18
-3.72279e-18
4.07017e-19
-6.5113e-21
1.05713e-19
-3.87567e-21
6.76331e-19
7.61874e-18
1.87285e-18
-1.23075e-17
-6.01663e-19
-1.38928e-16
1.06956e-17
1.17021e-16
6.93932e-17
-2.73557e-16
5.01941e-18
-5.24961e-18
-1.38678e-17
-3.4567e-17
4.37822e-17
-4.95517e-16
2.71548e-16
2.47518e-16
-4.27191e-18
-8.07542e-16
-1.06655e-17
2.35923e-16
-2.21715e-17
1.46606e-17
4.97017e-18
-3.19443e-17
-2.15985e-18
-7.91775e-18
-3.4131e-18
2.02874e-17
-2.28414e-17
1.2711e-17
1.31477e-17
5.38981e-17
6.65817e-18
-2.23521e-19
1.74838e-18
-6.34588e-20
2.39292e-17
2.63711e-16
5.10852e-17
-3.32544e-16
-2.01954e-17
-1.36044e-15
-1.22716e-16
1.73322e-15
-2.16862e-15
9.44286e-16
1.89088e-16
-5.6622e-16
-2.95032e-17
-6.76525e-16
6.71208e-16
8.24136e-15
5.36503e-17
-1.07176e-14
2.9249e-15
6.31725e-15
-1.38345e-15
3.69084e-15
-1.97291e-15
5.95595e-14
1.6574e-14
-3.66161e-14
-3.13375e-14
-1.86183e-13
7.75061e-14
2.09632e-13
2.49012e-13
-1.26045e-13
3.04556e-14
-7.61574e-16
-6.05499e-14
9.17373e-15
1.17533e-13
-5.65959e-13
4.31728e-14
1.02739e-12
-1.41776e-13
-4.18398e-13
5.95464e-14
-1.8177e-13
1.63741e-13
-4.21917e-14
-4.58015e-15
-2.9295e-14
8.71254e-14
2.28594e-14
-3.68437e-15
-3.28549e-14
-5.30794e-15
3.64535e-14
1.02889e-15
4.65651e-15
-8.93938e-15
1.8609e-13
6.92878e-15
-6.41378e-15
1.73344e-13
-3.65404e-13
-9.61421e-14
2.1669e-12
-7.70111e-14
3.22819e-13
-3.24047e-14
-4.44955e-13
2.21533e-12
-3.5688e-12
-2.41289e-12
-1.46327e-13
5.91392e-12
-4.51116e-13
-1.52324e-12
1.00747e-12
-1.20967e-12
3.00342e-12
-2.0522e-11
8.16025e-12
2.70676e-12
1.75148e-13
6.13375e-11
-2.7066e-12
-1.13173e-10
1.49964e-13
4.97225e-11
-1.23204e-12
1.36056e-12
-1.16275e-11
-1.18475e-13
1.15972e-11
-3.7397e-11
1.40233e-11
5.87808e-10
3.32769e-10
1.20808e-09
-1.94064e-09
-7.20287e-11
1.58784e-10
4.11914e-10
2.11311e-10
-2.11108e-12
-2.14431e-10
1.9594e-10
1.33711e-10
-2.54174e-10
-5.06515e-11
2.72829e-10
5.82966e-10
5.92597e-10
4.4127e-14
-3.21975e-13
6.95929e-15
2.26322e-14
-1.28989e-12
5.48097e-14
6.64317e-13
-3.35358e-15
-4.56671e-12
5.83871e-15
8.28517e-16
-6.89922e-15
6.62943e-15
3.82115e-15
-2.5579e-14
4.97371e-14
-2.99715e-14
8.39997e-16
8.20765e-17
-3.42168e-15
4.4068e-16
-3.98448e-15
-3.81503e-15
-4.57161e-15
-3.54464e-18
2.98768e-15
-4.88015e-15
-6.57706e-15
-5.46644e-15
1.71756e-15
3.36499e-15
-9.50219e-15
-1.40794e-15
-2.11669e-15
-2.30497e-16
1.86829e-15
8.16608e-16
2.82846e-15
2.59678e-15
-6.9441e-15
2.31506e-15
-1.15821e-16
-3.79007e-15
-2.89985e-15
8.38415e-15
-1.15033e-14
1.17336e-14
-1.90822e-14
1.14539e-14
1.43266e-17
-9.80042e-17
6.00948e-17
-1.87879e-18
-2.32044e-16
3.46731e-17
1.40658e-16
4.01094e-16
-7.51496e-16
9.84226e-17
-1.81994e-16
8.27952e-17
-2.92566e-17
2.22716e-16
-1.6277e-17
2.11237e-16
-1.16818e-18
-5.84263e-18
-5.79375e-19
2.33992e-18
7.52677e-19
5.97705e-18
3.89709e-18
3.18241e-18
-1.6954e-20
-6.45114e-18
-3.02386e-18
9.13263e-18
-1.73374e-17
7.71896e-18
-3.10672e-18
-1.14556e-18
2.04389e-19
-2.80314e-18
-1.90954e-17
1.73667e-18
-2.74954e-18
2.97605e-18
-2.32302e-19
-1.55372e-20
1.74594e-20
7.84034e-20
3.09522e-19
1.74787e-19
1.69756e-19
-1.14777e-21
2.69004e-19
-7.83515e-19
-1.79649e-19
3.96012e-19
8.88853e-19
-1.78413e-18
6.97914e-19
1.05641e-29
8.56082e-31
-3.1072e-29
-8.68549e-31
-8.44751e-29
-3.15164e-29
1.07453e-28
-1.43971e-28
2.14514e-29
4.47614e-29
1.79034e-29
-1.23006e-28
2.38263e-29
-4.97309e-32
-1.78752e-28
1.54213e-28
-3.23676e-28
1.51384e-07
-6.42958e-07
5.16397e-08
4.40797e-07
-7.88633e-08
-4.38625e-08
2.74455e-07
-5.9258e-08
-6.5612e-07
9.39611e-08
4.05591e-08
-8.28133e-08
-3.99851e-08
9.09615e-08
1.92041e-07
1.09438e-07
-3.25751e-08
-6.4117e-07
1.91142e-07
9.68975e-08
-2.40159e-08
-5.01583e-07
-8.46738e-09
-5.5639e-08
2.35431e-09
6.18078e-08
-4.65421e-08
2.93877e-09
3.51913e-08
-8.68391e-08
-1.5199e-08
-2.25406e-09
6.48719e-08
-5.96164e-08
-1.6706e-08
1.6874e-08
1.20774e-07
-1.61752e-07
8.90717e-08
-8.72224e-08
-2.71991e-08
-6.09109e-08
1.86558e-07
7.15986e-09
-1.07875e-07
2.33591e-09
-3.48159e-08
7.64872e-09
2.67924e-08
5.97636e-09
-6.56569e-08
2.38968e-08
7.78319e-09
1.44683e-07
-5.54103e-08
-1.93154e-07
-7.12485e-08
1.59507e-07
1.295e-08
-6.09703e-08
-2.72568e-08
-5.05512e-08
7.79207e-08
-3.11972e-09
2.83379e-08
4.68465e-08
-4.24072e-08
3.70786e-08
-2.81735e-08
7.14036e-08
4.19836e-08
-4.33727e-08
-1.34718e-08
-6.57332e-08
1.45201e-07
1.68519e-08
6.4498e-10
-6.25416e-08
1.12237e-08
-8.44845e-09
-1.01514e-08
-4.42562e-08
-3.75811e-08
-1.70173e-16
-7.78254e-18
-6.60153e-18
1.43148e-16
1.54962e-17
-6.42936e-17
-2.34345e-16
1.11606e-18
-8.82294e-18
9.75178e-17
-2.65136e-18
-2.32423e-16
-4.52032e-18
6.06537e-17
-1.4933e-17
1.82046e-18
-4.13452e-17
1.92694e-06
4.47961e-08
-1.50892e-06
-4.27293e-07
-3.92971e-07
-2.87328e-07
2.62057e-06
-3.9385e-07
-2.07156e-09
2.43107e-07
-2.56483e-07
-1.50601e-06
-1.58885e-07
1.17159e-07
3.98682e-07
2.30797e-07
-1.06855e-06
3.58719e-07
-6.92976e-10
-5.70053e-08
2.48407e-07
-9.07186e-08
1.43507e-14
-6.69405e-13
5.19191e-13
8.43504e-15
-1.90738e-12
1.60126e-12
3.93982e-13
5.60265e-13
-3.37973e-12
-3.47444e-13
-1.08323e-12
1.98597e-12
-3.40322e-13
-1.37713e-14
-1.89639e-13
8.42643e-13
-2.86787e-14
-1.9821e-09
-5.629e-10
-9.66033e-10
3.79733e-09
2.14912e-09
-1.17948e-09
-5.95499e-10
-1.95242e-09
2.61127e-09
-2.49818e-09
3.44794e-09
-1.11056e-09
1.28983e-09
-3.70757e-09
2.32206e-09
-4.28157e-09
3.98884e-09
-9.08554e-11
-2.87388e-09
-6.40677e-10
3.23378e-09
-1.70883e-10
4.07716e-11
-7.02905e-11
6.4744e-11
-2.67684e-10
-3.52361e-11
1.77227e-10
-7.09122e-10
-1.01814e-10
-8.04284e-10
1.67198e-10
3.37392e-10
-1.07198e-10
-1.58169e-09
1.16496e-09
-1.37472e-09
4.28507e-10
3.49782e-08
1.98832e-08
4.57761e-09
-6.09558e-08
1.41808e-07
1.40836e-07
-2.67376e-07
3.42963e-08
7.19912e-08
7.80349e-09
-7.78727e-10
-2.65156e-09
2.23121e-08
1.24975e-07
1.99699e-08
-2.25396e-09
6.78885e-09
-3.61041e-09
8.08535e-08
-1.92631e-09
2.36743e-08
-4.97686e-09
3.33464e-08
7.65829e-09
-1.76259e-07
1.35565e-07
-3.73599e-07
2.36916e-07
1.71261e-07
-3.56759e-07
1.30613e-09
-2.41843e-07
3.18252e-07
1.61026e-07
-2.95955e-07
-1.20458e-07
1.66726e-06
-1.65591e-06
1.40073e-06
-4.51189e-08
-1.56406e-07
1.18989e-07
1.28594e-07
2.8925e-07
-4.5853e-07
4.13777e-07
-1.63942e-07
8.52603e-07
2.17667e-07
-6.14794e-07
4.20093e-07
1.08326e-07
1.67986e-07
-5.54882e-07
1.59388e-07
-2.19241e-07
-1.29546e-07
-5.96919e-08
5.41762e-08
1.40155e-07
2.85794e-08
-6.74024e-08
-8.31241e-08
-1.14609e-07
9.36836e-08
-2.97901e-08
2.39367e-08
-1.60092e-07
4.91481e-08
-1.10698e-07
1.99646e-07
-2.38483e-07
2.98227e-07
-2.18685e-08
-4.92078e-09
4.34289e-09
2.42765e-08
1.6799e-08
-2.03407e-08
-1.56188e-08
-9.01584e-09
5.07209e-08
3.45552e-08
1.06661e-08
-5.19066e-08
2.22776e-08
1.01415e-07
1.184e-08
-1.64005e-08
4.51597e-08
-5.2579e-12
-1.30496e-12
-3.24436e-12
6.22014e-12
1.48586e-12
-6.59766e-12
-6.97852e-12
-1.8852e-12
6.75058e-13
-1.15931e-11
2.67312e-11
-4.43696e-11
4.99711e-12
-3.48634e-11
-1.43308e-12
5.09195e-12
1.83702e-11
1.69294e-12
4.6652e-13
4.55165e-13
-1.16052e-12
-2.04511e-14
6.1844e-10
-6.79201e-11
-4.91299e-10
2.02141e-11
-7.78039e-10
-1.64416e-09
3.17511e-09
-1.14138e-10
-6.89934e-10
-1.9769e-09
1.84543e-09
-1.33359e-10
6.01699e-10
-3.09414e-09
-1.77829e-10
5.82393e-10
5.53222e-11
2.50207e-12
-1.68555e-09
2.01428e-09
-5.15029e-10
-7.58371e-10
1.52667e-09
4.30252e-09
-6.3054e-10
-1.07167e-09
1.21893e-08
-1.17361e-08
1.11638e-08
-5.86979e-09
2.69832e-08
6.2549e-11
-1.29375e-09
-9.74553e-09
-2.62924e-10
-5.10322e-09
7.89992e-10
-1.66764e-09
1.48353e-09
2.9206e-06
2.15522e-07
-2.96564e-06
-5.89774e-08
-5.15443e-06
-1.89905e-06
1.0068e-05
-7.20567e-06
2.41146e-06
2.1197e-06
8.32396e-06
-1.32174e-05
2.10939e-06
-5.26355e-09
2.39956e-07
-4.35057e-09
1.38277e-06
8.47437e-07
-3.81125e-05
-1.12435e-06
3.84165e-05
-3.92468e-05
3.75924e-05
2.51545e-06
3.62984e-05
-0.000113637
4.01554e-05
-3.72208e-05
-4.00743e-06
-3.74294e-05
0.000116022
-2.3574e-06
2.5646e-06
-3.26809e-06
7.85209e-26
1.05424e-24
-2.2477e-24
-6.42099e-26
1.98864e-23
-3.3116e-23
3.64188e-24
-5.70615e-24
2.40975e-23
3.15014e-24
1.37463e-24
-1.05794e-23
1.39892e-24
-5.2673e-27
4.14098e-23
-9.29668e-23
2.91793e-23
2.99542e-26
1.89729e-26
8.01837e-27
-6.09245e-26
-9.4456e-28
2.28737e-26
3.35514e-27
-5.60269e-28
1.20341e-26
-2.22686e-26
5.08065e-27
3.61206e-26
1.60338e-26
-3.60649e-26
1.05156e-26
-2.40954e-30
2.45021e-26
1.08404e-30
1.66404e-29
-1.30069e-30
-3.26893e-29
3.22188e-29
-4.44351e-29
4.84357e-30
-1.26712e-29
5.54253e-29
-4.71365e-29
3.12291e-29
-9.6155e-34
1.87848e-29
-1.17602e-28
5.64904e-29
-9.02905e-29
6.773e-29
1.16502e-36
-2.42366e-39
-1.16961e-36
8.3049e-38
-2.19598e-37
-1.87884e-37
1.51347e-36
2.88619e-39
-1.13303e-36
3.23174e-37
-3.08982e-37
-1.2624e-36
-1.33466e-37
2.38174e-37
-1.49634e-36
4.90374e-37
2.44857e-39
3.99102e-37
-6.38852e-36
-2.9664e-37
4.62536e-37
-5.44938e-37
3.04901e-39
4.52229e-41
-1.67545e-39
-8.57867e-39
-1.1537e-41
-2.24267e-40
1.77942e-39
3.36416e-43
-2.34398e-41
-3.58339e-41
1.5173e-41
6.68528e-43
1.11961e-41
-1.19197e-40
-2.28084e-39
1.42641e-39
-5.57786e-39
-1.93437e-44
-1.28267e-46
2.21373e-46
3.92793e-45
4.72152e-44
4.89706e-44
-1.728e-43
2.12437e-44
-8.62769e-46
3.85989e-45
-9.2341e-45
4.77412e-46
-2.70806e-45
6.51547e-45
6.73969e-45
1.95876e-44
1.77227e-44
8.46344e-46
2.55305e-44
-5.10936e-46
-9.64998e-44
7.32938e-43
-2.60076e-42
4.2096e-44
-3.78713e-44
3.30702e-43
-9.77029e-44
4.10942e-44
9.62214e-44
-4.7023e-43
7.90729e-44
-7.7811e-42
-3.62932e-46
4.78056e-46
-1.51496e-44
-1.03368e-45
3.00328e-44
-2.56101e-44
1.11955e-43
2.3776e-45
1.99188e-44
-3.68157e-44
1.12615e-44
-8.67366e-45
-4.15626e-48
-2.31239e-44
7.41801e-44
-6.4716e-45
1.28323e-43
1.35025e-44
4.36011e-46
1.0226e-45
3.36261e-46
-2.89081e-45
1.70042e-47
1.31501e-46
-6.80112e-48
1.96369e-46
7.99508e-48
9.08473e-47
6.34614e-46
-8.37543e-46
1.63231e-46
-1.16041e-46
-2.02756e-44
2.0083e-46
-1.33256e-44
-2.13838e-43
3.4565e-43
1.38317e-45
1.53321e-44
-1.05986e-48
-2.67402e-45
4.17695e-47
-8.98336e-46
-1.13577e-44
-1.77005e-38
-5.2061e-38
-1.41176e-37
1.80938e-37
-2.4056e-39
-2.53673e-38
7.81907e-40
-6.27725e-38
-5.32673e-38
3.65508e-38
-6.51419e-38
-9.34666e-40
-1.94552e-36
1.65811e-36
-9.30337e-38
-3.05113e-36
-2.26213e-37
9.49198e-42
2.81808e-40
-3.25772e-40
-3.93418e-41
1.58098e-40
-2.03295e-40
1.6204e-41
-8.20218e-40
1.08954e-39
4.7314e-40
5.03994e-40
-1.16963e-39
2.2026e-39
-1.47667e-39
-3.34689e-40
6.28561e-40
4.4957e-40
-7.88689e-40
1.95763e-41
3.92102e-41
-3.8967e-36
1.14568e-38
3.98929e-36
-5.15985e-36
5.73126e-36
3.26481e-36
-1.13932e-35
5.47525e-36
1.34958e-37
-1.6369e-34
-2.34183e-36
1.11729e-34
-3.95577e-35
-3.44382e-34
-1.51623e-35
-1.58213e-35
2.62616e-35
-7.49455e-35
1.60923e-35
7.13316e-35
-1.48213e-34
5.80199e-35
-6.11583e-35
-4.09424e-33
-1.52872e-32
7.99926e-36
-5.02519e-35
-5.1823e-33
-4.21482e-34
-1.44756e-32
-1.84987e-32
-2.85694e-32
-2.93367e-34
-7.03647e-34
1.60198e-35
4.22684e-34
-8.57432e-34
-6.0336e-32
-1.98627e-32
7.80922e-31
-1.02209e-30
-9.86139e-32
3.67614e-31
-2.11482e-31
-2.73819e-31
-4.63021e-29
-1.31281e-28
-1.31727e-31
-2.67436e-30
1.39658e-33
4.67287e-32
-5.51113e-31
3.04696e-29
-1.05705e-28
-2.13056e-28
-2.75247e-30
-1.27027e-27
-1.23461e-28
5.77697e-26
-1.62824e-27
1.03627e-27
-1.86902e-30
4.54139e-28
-4.44701e-27
5.49287e-25
-7.60552e-27
2.44413e-26
-1.20276e-27
1.20747e-24
2.06621e-27
-1.29538e-27
-8.20693e-27
-4.79051e-28
1.39053e-27
-1.20621e-27
1.61055e-27
-2.23101e-27
-2.46541e-23
9.55513e-25
2.31397e-23
-1.93303e-25
2.40671e-23
2.42958e-23
-6.35832e-23
1.37783e-24
2.40875e-23
2.92378e-23
-2.95399e-23
1.9896e-24
-1.93654e-23
7.02069e-23
1.62604e-24
-7.87603e-23
-6.14932e-26
1.00614e-20
3.27319e-22
-7.28826e-21
-7.4602e-22
-5.74344e-21
-3.71429e-21
1.96615e-20
-5.94336e-21
1.05008e-20
3.11086e-21
-1.98104e-20
1.81782e-20
-1.48687e-20
-8.23176e-21
2.26213e-20
-1.04924e-20
5.79941e-22
8.67928e-22
3.17368e-22
-2.09013e-21
-3.61761e-24
2.32336e-23
6.38841e-22
6.6783e-22
-1.1665e-24
8.4426e-21
-6.75451e-21
7.85463e-22
-1.42233e-21
1.15623e-20
-9.06554e-21
8.78747e-21
-1.474e-20
-1.69759e-17
4.25802e-18
8.27653e-18
-2.84706e-19
3.58853e-17
-5.99333e-17
1.7416e-17
-1.51254e-18
8.22955e-18
-8.62091e-21
-3.41113e-16
2.29338e-16
6.46525e-16
-5.52066e-16
1.07446e-15
1.80249e-15
-3.09547e-15
3.94666e-16
8.54519e-16
2.34069e-16
-1.02932e-15
1.14603e-15
-6.25608e-16
1.63378e-15
-3.52728e-16
1.16001e-15
-3.49753e-16
-7.57615e-15
3.0026e-15
1.09189e-14
-1.69847e-15
6.67709e-15
1.23591e-14
-2.4419e-14
8.9789e-15
6.11459e-15
-2.00644e-14
-2.29168e-14
5.57032e-14
-1.0727e-13
1.00756e-13
7.30482e-14
-1.57477e-13
6.59955e-14
-2.31464e-12
4.65442e-13
5.41147e-12
-2.9738e-12
1.8227e-12
6.74079e-12
-9.72828e-12
2.15502e-12
2.69883e-12
-2.36086e-13
-1.22715e-11
1.69552e-11
-4.79744e-11
5.87602e-11
3.73485e-11
-7.16812e-11
3.36573e-11
-8.49121e-12
-7.26973e-13
-9.19103e-12
2.09808e-11
1.3363e-11
-1.01236e-11
-1.84148e-12
-3.39309e-12
2.00994e-11
-1.35789e-13
2.61216e-11
-2.92058e-11
3.30726e-12
-3.32771e-12
2.6651e-12
-2.1876e-12
2.19469e-11
1.82601e-13
2.64606e-13
-4.11644e-13
-1.64347e-13
-4.82982e-14
-2.06865e-13
4.15872e-13
-4.54654e-13
6.71521e-13
1.97493e-13
5.2995e-13
-6.61582e-13
1.69808e-13
-4.07276e-14
9.88092e-14
3.30303e-13
1.5623e-13
1.08668e-13
1.79532e-13
-5.08114e-14
-4.30688e-14
-1.58829e-13
-1.96908e-12
-4.86069e-13
5.69312e-13
2.45881e-12
1.17842e-12
9.02331e-14
-2.79071e-12
-1.98638e-13
5.16113e-13
5.2323e-13
2.5031e-13
-5.6418e-13
5.50297e-15
1.20407e-12
2.07005e-14
-3.76751e-14
5.29198e-13
1.09634e-19
7.96397e-20
4.98967e-20
-5.62538e-19
-2.84887e-21
2.27901e-20
1.65084e-20
-1.96471e-20
1.40884e-20
1.27553e-19
-1.3184e-19
-2.48893e-19
-1.64993e-20
6.82489e-20
-6.56671e-20
1.49526e-20
-4.84693e-19
1.09181e-20
-7.46277e-21
-6.61693e-20
9.53756e-21
-2.56842e-20
-9.53786e-21
1.61756e-20
-2.16207e-19
-8.89087e-21
-1.79759e-21
-2.98993e-19
2.85126e-20
-3.65248e-20
-1.31229e-21
1.59569e-19
-1.79603e-18
-9.52995e-21
4.71095e-17
3.72264e-17
2.55505e-17
-2.5243e-16
-5.79117e-19
1.05126e-17
5.3208e-18
5.59794e-18
-2.139e-19
-2.23095e-18
-2.48109e-18
4.11988e-18
-6.37842e-18
-1.29733e-18
3.01053e-18
-5.03253e-18
1.67038e-18
2.62936e-15
-2.50741e-15
-2.2777e-14
4.12608e-15
-6.44543e-15
-6.48952e-15
5.68212e-15
-4.63578e-14
-4.33958e-15
-2.16415e-15
-9.29797e-14
9.12816e-15
-1.3689e-14
-6.60262e-15
2.59731e-14
-4.31866e-13
-3.22771e-14
-2.26169e-11
3.3294e-12
-3.01085e-11
-1.09445e-12
1.71617e-11
1.80092e-11
-1.52689e-10
1.2036e-12
3.28324e-12
1.18637e-11
-4.76836e-11
1.488e-13
-1.60296e-11
1.09203e-11
2.34268e-10
1.55281e-10
-8.46385e-10
2.9418e-11
8.73394e-11
1.49843e-11
-5.55546e-11
1.81218e-12
-2.04351e-11
-2.71043e-11
-3.29859e-12
2.45434e-11
-5.67402e-12
-7.44387e-11
-1.11671e-10
-1.92231e-12
2.72089e-11
1.52691e-12
-2.01811e-10
9.46828e-12
-2.78673e-12
2.69912e-11
1.72041e-11
-8.16625e-11
1.50601e-11
-6.44523e-12
8.30418e-11
-2.49377e-10
4.17576e-11
-2.01548e-08
-1.22176e-09
1.0099e-08
3.58537e-09
4.95207e-09
1.38346e-08
-5.48091e-08
3.83503e-11
1.13973e-09
3.98905e-10
-9.09087e-10
-7.81787e-10
-2.54077e-10
8.60956e-10
-4.03881e-10
2.82966e-09
1.47018e-09
3.06274e-09
2.3868e-09
-1.33446e-09
2.29189e-09
-5.75486e-10
-8.8033e-10
-3.86359e-10
9.82924e-10
-2.61827e-09
-1.0207e-10
9.42533e-10
6.79215e-10
-5.92039e-09
7.32988e-10
-5.86888e-10
4.12634e-10
-1.64291e-09
1.70255e-09
-2.00974e-09
1.9914e-09
-9.81661e-08
-6.844e-09
2.6357e-08
5.70164e-08
3.07996e-08
3.57737e-08
4.09779e-09
1.42585e-08
1.6836e-08
1.1049e-08
-1.01133e-08
2.26797e-08
7.81346e-09
3.01414e-08
3.08809e-08
7.89686e-09
-6.50609e-08
-9.31202e-09
2.9259e-08
9.62548e-09
-6.26498e-08
3.3649e-08
-1.19086e-07
-2.67131e-10
2.85126e-11
-7.61984e-10
1.02521e-09
1.84023e-12
-4.73774e-11
4.45188e-11
2.99776e-11
-1.45548e-11
2.11634e-09
3.3601e-11
-5.96373e-11
1.08196e-09
-3.85113e-09
6.54564e-10
1.0412e-07
3.13311e-08
1.0583e-07
1.61665e-08
-5.02578e-08
-3.84941e-08
-1.26828e-07
-3.89026e-08
-1.35897e-08
-1.21563e-08
-5.11013e-08
1.67183e-09
-1.8637e-08
1.21483e-08
-1.37035e-08
-7.7641e-10
7.63279e-09
-1.45638e-08
-3.22639e-08
1.18409e-08
1.15527e-08
-7.46859e-09
-5.022e-08
-2.91744e-08
-3.95988e-08
-5.13814e-08
-3.62649e-08
-1.32635e-08
7.40952e-08
1.92309e-08
6.66732e-08
3.14458e-10
3.5185e-09
7.24989e-10
6.56865e-08
-9.20173e-08
4.30989e-08
-2.55931e-08
5.2994e-08
5.23497e-08
-1.00557e-07
-2.52681e-08
-8.58801e-09
2.88714e-08
-1.26972e-07
2.6628e-08
2.46626e-07
-1.76141e-07
3.20585e-07
2.35249e-07
-2.20041e-07
-8.04028e-07
1.20038e-06
2.80739e-07
3.2546e-08
-3.03232e-07
-4.33636e-09
8.60685e-07
-1.4851e-07
-4.31305e-07
3.30001e-07
5.83919e-07
2.5206e-07
-1.98274e-07
2.80501e-07
-4.8534e-09
8.42845e-07
-5.67064e-08
-2.94822e-07
-3.64761e-07
2.4153e-08
-5.32391e-07
6.44105e-07
-1.29322e-07
-4.09812e-07
1.29298e-07
3.11131e-07
-2.3704e-07
-6.29968e-07
-1.04805e-07
2.83157e-07
4.67938e-07
3.33487e-07
-3.07288e-07
-5.94389e-08
-2.45997e-07
7.12921e-08
-7.74462e-07
5.52558e-08
-4.62094e-07
5.6452e-07
-9.65145e-07
1.74655e-07
1.10448e-06
1.83152e-07
1.76023e-06
-7.43073e-08
-9.32497e-08
8.02213e-08
8.73824e-08
4.9646e-08
1.35203e-07
-2.59087e-07
-3.80843e-07
3.39611e-07
1.28692e-10
1.73347e-07
-9.32749e-08
-1.01919e-08
1.45517e-07
2.43674e-07
6.84973e-08
-6.85633e-07
-1.04793e-08
5.9468e-07
7.29172e-08
8.95473e-08
1.31426e-07
4.248e-08
1.90101e-09
2.31478e-07
-2.74728e-07
-1.17313e-07
7.0432e-08
8.95722e-08
1.66588e-07
9.93269e-09
-1.13435e-07
1.74188e-07
-5.2291e-08
6.63045e-09
1.00622e-06
-4.69167e-07
-1.69817e-07
4.6704e-07
9.40024e-08
5.11871e-07
-9.95676e-08
1.25754e-07
-5.98464e-08
3.36626e-08
2.08707e-07
7.19135e-08
-3.80153e-07
2.33974e-07
1.00491e-07
1.20077e-07
-1.31459e-07
-4.84413e-08
3.9361e-07
-2.01555e-07
-1.49452e-06
2.12242e-06
-1.52457e-06
7.41084e-08
6.61671e-07
-1.21248e-06
1.70351e-07
1.73079e-07
-1.18949e-07
1.63318e-07
1.96147e-07
5.64301e-07
-4.75431e-08
3.34862e-07
1.8445e-07
-1.62051e-08
-8.87721e-07
9.81984e-08
6.68033e-08
-6.31091e-09
-1.65412e-07
3.98417e-08
4.1344e-10
3.98842e-08
4.20748e-08
5.10448e-08
-4.32692e-09
-2.33131e-09
7.58306e-09
2.95117e-08
-1.31698e-07
1.6569e-07
-1.57376e-07
5.02378e-08
6.53238e-08
-5.62605e-08
-6.84836e-08
4.85422e-08
-5.42938e-08
5.06605e-08
4.97842e-09
1.02083e-07
-6.9074e-08
3.21741e-08
3.83803e-08
9.67517e-09
1.6787e-08
2.27529e-07
-2.53861e-07
1.75098e-07
5.35187e-09
8.40628e-10
-5.06404e-10
-2.63958e-09
-6.00244e-10
-1.74629e-10
7.20522e-09
5.42894e-11
2.49813e-10
7.65094e-10
-6.49361e-11
-1.34377e-09
-5.04351e-10
9.18998e-10
5.8851e-10
-6.78762e-10
1.02355e-10
5.31687e-12
1.3491e-11
2.16484e-12
-3.44446e-11
2.78879e-12
-1.65707e-11
6.49436e-12
5.92825e-12
2.87134e-12
7.30572e-11
-4.37731e-11
-1.24128e-10
-4.47774e-12
6.091e-11
-7.16318e-11
4.92652e-11
-1.40465e-10
-1.82601e-11
-1.22004e-10
-8.41268e-11
1.18801e-10
-6.70003e-11
-1.35396e-10
1.02645e-10
-5.61689e-11
-3.39623e-10
1.65542e-11
-4.63224e-10
1.5686e-10
-1.03935e-10
-6.46801e-11
-1.93908e-10
-1.07995e-10
-1.48784e-09
-1.58955e-10
5.03726e-11
-1.62225e-10
1.14677e-10
2.81827e-10
-4.45575e-10
-3.82933e-10
-1.45318e-10
2.17503e-10
4.93255e-10
4.63903e-10
-1.93691e-09
6.62188e-10
-1.39407e-09
6.12004e-11
1.20415e-10
1.61789e-10
1.91489e-10
3.525e-10
-2.56295e-11
-3.10507e-11
-1.50129e-10
-8.47702e-11
-1.66724e-11
7.1266e-12
4.45991e-11
4.95933e-11
-4.97907e-11
-1.84126e-10
-3.04611e-11
1.30708e-11
5.02566e-11
-3.45497e-11
1.11616e-11
1.9639e-11
3.10499e-11
-6.77263e-13
-9.83947e-11
8.61571e-13
2.70042e-11
4.1507e-11
-1.3711e-10
2.94464e-11
1.7511e-08
4.66946e-10
-1.63556e-08
-2.10624e-09
-8.29181e-09
-5.38488e-09
3.39171e-08
-4.18654e-09
-2.2397e-10
-1.15723e-09
-1.73259e-08
4.5012e-10
-2.89415e-09
-1.26687e-11
2.78094e-09
-3.00275e-08
-1.6118e-10
-1.42212e-17
-8.86481e-17
4.63157e-17
5.40676e-17
-5.85358e-17
3.94006e-17
-4.07065e-18
3.18535e-17
-1.80377e-16
-1.75224e-17
-1.99542e-17
6.98096e-17
-2.28428e-17
-1.23262e-18
1.24356e-17
3.43931e-17
-1.04858e-15
2.99553e-16
1.21981e-15
-4.00591e-16
2.49913e-15
4.95219e-15
-7.82851e-15
6.8805e-16
2.32238e-15
6.01332e-16
9.52379e-16
-3.16086e-16
2.3459e-15
3.42474e-15
9.80594e-16
2.10608e-15
4.28011e-15
8.65509e-17
-3.51898e-18
1.13837e-16
-9.94245e-18
1.18085e-16
-1.89984e-17
-2.53198e-18
2.15843e-17
-8.98589e-19
2.13508e-28
1.29787e-27
-2.21019e-28
-5.1889e-27
1.34686e-27
-3.84449e-27
5.41122e-28
-8.57302e-28
2.01386e-27
-2.60294e-27
9.84207e-28
-4.75121e-29
2.71619e-27
-1.6711e-26
8.55074e-28
-5.70907e-27
-8.87652e-29
-1.03556e-31
-8.87919e-32
-6.6023e-32
1.47571e-31
7.24735e-33
-8.12461e-33
-5.3242e-31
-3.12428e-31
2.02116e-32
-7.55473e-31
2.56815e-31
-5.59793e-36
3.06825e-31
-2.55479e-30
3.8808e-31
-7.83108e-31
3.3958e-31
-3.35489e-34
1.7851e-36
4.15054e-35
-3.17377e-36
3.60606e-34
3.90595e-34
-4.96274e-33
2.29347e-35
1.2557e-36
-3.84896e-37
4.75979e-35
6.0169e-36
5.17399e-36
-3.17728e-37
-5.48774e-36
7.11889e-36
7.39842e-37
-2.03947e-40
-1.35405e-43
5.65296e-43
8.20081e-42
4.75828e-40
4.55205e-40
-5.30404e-39
4.90616e-41
2.47159e-42
3.2634e-42
-3.14478e-41
5.50994e-43
-2.73053e-42
3.1236e-42
2.47249e-41
6.17133e-41
1.89004e-41
1.78955e-39
3.40295e-38
-5.70349e-37
-2.5652e-39
7.16244e-39
-6.65423e-38
8.05763e-40
-6.7171e-39
9.43989e-39
5.47012e-37
5.94066e-37
-8.2691e-36
6.02909e-38
-3.26823e-40
6.36592e-39
-1.33677e-43
-3.72953e-46
-1.74814e-41
-5.82169e-42
4.06742e-42
3.51731e-47
2.82407e-47
-1.20455e-44
-3.15729e-40
7.47863e-43
-2.06286e-44
1.97189e-45
4.34749e-47
1.1061e-44
-2.07173e-43
2.30441e-40
-1.59947e-39
5.51919e-41
2.47374e-41
1.32332e-43
1.49854e-43
7.8566e-44
-1.81683e-42
7.02897e-44
-1.22794e-42
-1.27398e-40
3.95082e-41
-1.20747e-39
4.22117e-43
4.28494e-44
-2.46326e-45
1.15768e-45
-3.90339e-43
-1.05398e-43
-1.38164e-43
-1.00968e-44
-3.9517e-43
-9.18154e-43
1.38658e-42
-2.8855e-42
4.13023e-43
-5.50963e-42
-3.29996e-43
3.82539e-45
7.70167e-43
1.03864e-42
-3.99432e-46
7.08691e-45
5.55981e-45
1.47011e-39
-1.05426e-37
5.20072e-38
-3.81609e-42
-1.05721e-37
3.62109e-38
1.50673e-39
1.07776e-37
-4.42986e-37
-2.78104e-38
-2.50148e-38
5.92617e-38
-5.55538e-38
2.3337e-39
-4.0785e-40
1.93909e-39
-2.48195e-42
-5.78881e-36
-1.66975e-36
-1.95026e-36
-3.2742e-38
-2.77766e-36
9.33597e-38
-5.22113e-38
-1.05648e-36
-9.95372e-37
1.51967e-36
-1.20874e-39
1.10486e-36
-2.39045e-36
-5.97058e-38
1.5991e-37
-1.34908e-39
1.34997e-34
5.72235e-33
-3.06247e-34
-3.92357e-33
7.19047e-33
-7.30513e-33
3.54879e-34
-1.52347e-31
1.83709e-31
-3.96325e-33
1.3167e-32
-2.85511e-33
3.97547e-33
-9.58981e-33
-2.33009e-33
-4.37481e-37
-9.84595e-32
-4.42607e-34
-3.01223e-31
-6.08022e-31
-2.10857e-30
3.3715e-32
-1.79406e-30
2.4053e-30
-2.45366e-33
-1.79949e-30
2.41511e-30
3.93891e-32
1.90543e-30
-4.73311e-30
-5.86544e-28
-1.86659e-29
8.40573e-28
-1.06223e-28
-1.87874e-28
2.80777e-30
3.45573e-30
1.2379e-30
6.13683e-28
3.03343e-26
-3.084e-27
-3.34163e-26
3.96751e-27
-4.71726e-27
-3.33256e-24
-2.6805e-25
1.43117e-27
-1.02268e-26
-1.94503e-25
-3.51731e-24
-4.56988e-25
7.26356e-23
5.477e-23
-1.05321e-22
-2.65086e-23
-5.04927e-23
-7.24118e-22
-1.32415e-22
-8.34883e-24
2.71746e-23
-3.04523e-22
-6.87692e-22
-2.06179e-22
-6.6546e-22
-3.8819e-22
1.40052e-20
-1.27189e-20
-2.32619e-21
8.06074e-21
-3.49629e-21
-5.45809e-21
-1.80298e-19
-4.50294e-19
-2.08599e-21
-1.69589e-20
2.42775e-22
5.21929e-22
-6.48143e-21
1.12785e-19
-2.9118e-19
-4.66377e-19
-5.74673e-18
-1.0276e-17
-3.81703e-18
2.02473e-17
-1.50273e-18
-3.59033e-18
3.73775e-19
-6.93529e-18
-4.23222e-18
-5.82472e-18
-4.34045e-17
4.6924e-17
-7.91286e-18
-7.39146e-19
1.16855e-17
-2.41862e-17
-2.80951e-17
-1.86244e-20
-1.47327e-21
3.17635e-20
-1.73873e-23
8.92328e-21
1.41217e-20
-3.54797e-20
-4.40193e-20
1.42948e-19
8.76412e-18
-8.54863e-19
-1.56539e-17
-2.7785e-19
7.0778e-18
-3.60398e-21
4.96541e-20
2.61574e-21
4.14072e-20
-3.3618e-20
1.42443e-18
-2.18923e-18
1.3992e-18
8.28806e-21
-1.54046e-19
2.44722e-19
-3.02507e-19
-1.74826e-19
1.76095e-19
-1.07281e-21
1.85193e-19
-5.7224e-19
-9.93089e-20
-5.31426e-19
6.09989e-19
-1.71531e-19
-1.13951e-19
1.48324e-20
-1.11762e-18
3.46105e-15
5.1571e-15
3.19651e-15
-2.96509e-16
1.6935e-15
4.47195e-15
3.79746e-15
-5.73196e-17
2.75402e-15
-5.54471e-15
-2.22982e-15
1.19644e-14
6.28684e-15
-2.21783e-14
-2.30076e-14
3.69564e-14
4.4434e-14
-4.71221e-15
-4.6832e-14
-1.56011e-13
3.49057e-14
1.58917e-13
3.42684e-13
3.42643e-13
1.48977e-12
-1.10006e-13
3.53637e-13
1.52509e-12
-7.8076e-13
2.18036e-12
5.28403e-13
-3.09054e-12
-8.31953e-12
1.58445e-11
-1.69663e-12
2.27762e-13
1.85832e-12
-4.5649e-12
-6.23883e-12
1.08044e-11
2.1147e-12
-1.17658e-12
4.39035e-11
-2.71915e-11
4.36885e-12
6.14299e-11
-1.87037e-12
3.96322e-12
1.68329e-12
-1.04114e-12
-1.50171e-12
-1.55294e-12
4.27953e-13
5.55844e-12
5.63972e-14
-2.31256e-12
1.33691e-11
-3.38809e-11
2.38361e-11
-5.82016e-12
2.01047e-11
3.66543e-11
-7.7565e-11
5.01456e-11
1.21929e-11
-6.46907e-11
3.02544e-11
1.15024e-11
-1.8256e-12
1.19383e-11
2.06367e-11