/*--------------------------------*- C++ -*----------------------------------*\
| =========                 |                                                 |
| \\      /  F ield         | OpenFOAM: The Open Source CFD Toolbox           |
|  \\    /   O peration     | Version:  v2012                                 |
|   \\  /    A nd           | Website:  www.openfoam.com                      |
|    \\/     M anipulation  |                                                 |
\*---------------------------------------------------------------------------*/
FoamFile
{
    version     2.0;
    format      ascii;
    class       volScalarField;
    location    "0.15";
    object      p;
}
// * * * * * * * * * * * * * * * * * * * * * * * * * * * * * * * * * * * * * //

dimensions      [1 -1 -2 0 0 0 0];


internalField   nonuniform List<scalar> 
6576
(
-409.434
-430.183
-400.245
-406.106
-416.531
-395.515
-395.431
-384.786
-402.583
-399.926
-402.075
-391.925
-379.31
-393.92
-306.44
-322.208
-358.336
-353.025
-328.735
-323.154
-357.56
-389.829
-399.504
-468.353
-299.886
-261.51
-186.615
-439.963
-434.883
-434.628
-425.564
-417.249
-378.78
-283.03
-264.09
-280.714
-306.221
-306.131
-294.785
-300.025
-333.058
-381.479
-329.561
5.66394
4.29452
6.2635
4.12468
5.41179
6.78834
6.42031
3.95235
5.88739
-2.92379
-2.9243
-2.93623
-2.89524
-2.89718
-2.90973
-2.90736
-2.92524
-2.89742
-2.88819
-2.8729
-2.90085
-2.92439
-2.89608
-2.71927
-2.74931
-2.76552
-2.77862
-2.74944
-2.80948
-2.77944
-2.74471
-2.2513
-2.0684
-2.65314
-2.94962
-2.50551
-2.3196
-3.33706
-3.48463
-3.20267
-3.05949
-3.07661
-3.32493
-3.27161
-0.206756
-0.156894
-0.205666
-0.181883
-0.132592
-0.174214
-0.143433
-1.89409
-0.130857
-2.29849
-0.30153
-0.164281
-0.551494
-1.68751
87.1722
60.8353
52.8815
60.9288
87.2559
39.4454
66.6014
66.7444
52.5532
91.8803
38.5151
65.5119
68.6548
-2.90127
-2.90177
-2.9969
-3.04101
-3.21005
-3.05654
-3.05355
-15.3014
-51.4523
-145.751
-113.495
-112.313
-26.0976
19.0796
-3.04571
-3.11968
-2.95212
-3.46599
-3.05115
-3.69911
-3.05706
-1.8277
-1.8177
-1.83921
-1.814
-1.7927
-1.79368
-1.81425
-1.91773
-1.90341
-1.89799
-1.88442
-1.86703
-1.8716
-1.89059
-2.01237
-2.00166
-2.0399
-1.96924
-1.9952
-2.0185
-1.99155
-2.00092
-2.02067
-1.97951
-1.98703
-2.00743
-1.96008
-1.94243
-1.97719
-1.9581
-2.08586
-2.12634
-2.09761
-2.04765
-2.07924
-2.10541
-2.07544
-2.08512
-2.10751
-2.06309
-2.05922
-2.08209
-2.0229
-2.04817
-2.0512
-2.02717
-2.28895
-2.31002
-2.28052
-2.27799
-2.30161
-2.27912
-2.24473
-2.25713
-2.28599
-2.37228
-2.36183
-2.39093
-2.35475
-2.33163
-2.37736
-2.35416
-2.36956
-2.37419
-2.38467
-2.36861
-2.34916
-2.36192
-2.37972
-2.43005
-2.43702
-2.43692
-2.39724
-2.41683
-2.40635
-2.39776
-2.93881
-3.1943
-2.82794
-2.68374
-2.68524
-3.02418
-3.12253
-2.56364
-2.57169
-2.53161
-2.52802
-2.56206
-2.55447
-2.51874
-2.48946
-2.50773
-2.46808
-2.48292
-2.46346
-2.43237
-2.45287
-2.36708
-2.33165
-2.36033
-2.37718
-2.35195
-2.32903
-2.35567
-2.27363
-2.28355
-2.24532
-2.29487
-2.32281
-2.27225
-2.3008
-2.18977
-2.15198
-2.18032
-2.22631
-2.19807
-2.21476
-2.18661
-2.16341
-2.19216
-2.09739
-2.06092
-2.08823
-2.07868
-2.10687
-2.05637
-2.08433
-1.93053
-1.94282
-1.91759
-1.89319
-1.917
-1.91767
-1.89325
83.9401
55.3311
50.0225
69.9029
43.5534
13.766
35.8093
25.3799
50.1743
1.27222
0.177118
2.02581
-0.501878
-2.07988
1.39729
0.323875
0.0518701
0.20522
0.522299
0.643117
0.488338
0.348465
0.0769882
0.444371
0.178702
2.14318
0.670807
0.263893
0.857072
2.23575
0.563278
2.04374
1.66283
0.418045
0.571009
-1.1222
-1.11089
-1.06476
-1.08912
-1.10475
-1.05559
-1.04312
-1.19675
-0.76442
-0.489934
0.510434
-0.453656
-0.713812
-0.426248
-0.366648
0.550257
-1.49439
-1.51572
-1.45761
-1.48348
-1.44607
-1.48392
-1.44003
0.0895421
0.060311
0.173967
-0.0188089
0.049036
0.104321
0.0523365
0.1124
0.0960125
0.0942458
0.0878326
0.0433116
0.123283
0.0969224
0.0814569
0.146352
0.447059
0.762901
0.937967
0.231829
0.331291
0.247795
0.337524
0.0390435
0.136051
83.1034
84.5636
93.6914
56.533
56.6451
65.7329
67.7736
84.4973
84.9707
98.1534
70.1732
57.3005
15.1411
37.5104
52.552
64.615
1.07615
0.79524
1.85341
1.6768
0.610939
1.57434
1.57111
0.499677
0.301424
0.528586
0.560982
0.786753
0.489035
0.59902
-1.23283
-1.21011
-1.1191
-1.31262
-1.17794
-1.28794
-1.16721
-1.1378
-1.25279
-1.95876
-2.03525
-2.11907
-2.18321
-2.03517
-2.07096
-1.96504
-2.14436
-2.46138
-2.22976
-2.70266
-2.79629
-2.59734
-2.62083
-2.3379
-2.29013
11.932
-1.13103
6.58823
9.75363
0.400556
-2.31267
1.89554
-3.74641
0.169501
-8.10605
12.9637
-6.73777
11.5159
20.5465
-2.3225
-2.3312
-2.36066
-2.31024
-2.33928
-2.33434
-2.36324
-2.38887
-2.41281
-2.43033
-2.41569
-2.39117
-2.42032
-2.44485
-2.34063
-2.35075
-2.37942
-2.35584
-2.32822
-2.35297
-2.38101
-2.3574
-2.38403
-2.34559
-2.3444
-2.37115
-2.33396
-2.30635
-2.34628
-2.31927
-2.4708
-2.49804
-2.45837
-2.47219
-2.44496
-2.49844
-2.47136
-2.56151
-2.51752
-2.54734
-2.56196
-2.59105
-2.53544
-2.5632
-2.5624
-2.57459
-2.60226
-2.54866
-2.52153
-2.5477
-2.57448
-2.77729
-2.76361
-2.73429
-2.78162
-2.80784
-2.77958
-2.74801
-2.64381
-2.67036
-2.67453
-2.67159
-2.69829
-2.71189
-2.68598
-2.82329
-2.78114
-2.79504
-2.65617
-2.66912
-2.62298
-2.92289
-2.89609
-2.89153
-2.89595
-2.92271
-2.90435
-2.87782
-2.88752
-2.89216
-2.91911
-2.84581
-2.87326
-2.86499
-2.89149
-2.90713
-2.93387
-2.88052
-2.8869
-2.8456
-2.87294
-2.9214
-2.89365
-2.90736
-2.87971
-2.85908
-2.8867
-2.93607
-2.92208
-2.92167
-2.90827
-2.89436
-2.88683
-2.84598
-2.87342
-2.9015
-2.92459
-2.92515
-2.93641
-2.89678
-2.89685
-2.908
-2.90804
-2.65577
-2.64451
-2.61453
-2.66624
-2.6975
-2.65341
-2.68409
-2.65771
-2.62756
-2.52229
-2.49266
-2.53589
-2.54641
-2.57717
-2.51715
-2.54761
-2.52702
-2.57299
-2.54835
-2.51266
-2.53644
-2.57011
-2.54529
-2.4063
-2.41867
-2.43573
-2.42659
-2.45635
-2.4603
-2.43041
-2.1897
-2.14838
-2.17326
-2.22893
-2.207
-2.1645
-2.13548
-2.17629
-2.18851
-2.21562
-2.16237
-2.18989
-2.07977
-2.04804
-2.06209
-2.10307
-2.0743
-2.07393
-2.10364
-2.11019
-2.09717
-2.12732
-2.17446
-2.2018
-2.14495
-2.14297
-1.45079
-1.46555
-1.47672
-1.44829
-1.46972
-1.47303
-1.44038
-1.48407
-1.48982
-1.47414
-1.4745
-1.49268
-1.47953
-1.49298
-1.49091
-1.47801
-1.48862
-1.47468
-1.48389
-1.46327
-1.4737
-1.46809
-1.4747
-0.937308
-0.963301
-0.995846
-1.01678
-1.04195
-0.99791
-0.974239
-0.963822
-1.00298
-0.955942
-0.930891
-0.969627
-0.901077
-0.942685
-0.878177
-0.908326
-0.93447
-0.980266
-0.951763
-0.913326
-0.940897
-0.51979
-0.555969
-0.500346
-0.485766
-0.518631
-0.449507
-0.483397
-0.351322
-0.323071
-0.375441
-0.395314
-0.429697
-0.326552
-0.358642
-0.367071
-0.396635
-0.437757
-0.401846
-0.391341
-0.362588
-0.412445
-0.399337
-0.439526
-0.405748
-0.439448
-0.299743
-0.298324
-0.324681
-0.27651
-0.325601
-0.245991
-0.269767
-0.316622
-0.290504
-0.334721
-0.215168
-0.19582
-0.253624
-0.277023
-0.300659
-0.332763
-0.0672166
-0.089237
-0.254614
-0.0732008
-0.183652
-0.104598
0.700984
0.513945
0.469922
0.452361
0.658935
0.172967
0.1225
0.126202
0.176825
0.136084
0.198126
0.110228
0.87914
0.593422
0.273847
0.187638
0.604679
0.988127
1.23485
0.708201
0.130361
0.206625
0.303485
0.153381
0.269251
0.441516
0.37361
0.302253
-0.165185
0.290163
0.199023
0.18405
0.128716
0.961477
1.23435
0.37323
-0.195648
-0.546229
-1.38095
50.6208
38.7724
65.3211
11.9907
39.591
52.6015
86.0335
59.0154
59.7428
33.2674
58.0651
83.9149
51.9454
57.9594
84.3815
39.0568
12.9318
65.7641
38.0836
71.1572
96.1809
68.5389
84.6306
84.9813
95.3332
57.5998
58.1752
80.6439
80.3214
53.9935
54.1184
88.4993
89.1334
99.7087
63.0509
62.9091
72.5901
47.2071
66.2414
54.3362
41.9021
84.298
58.7909
50.3396
85.2766
58.183
36.3027
64.2072
36.2288
11.1353
48.7574
60.4413
34.6563
9.85843
35.3807
1.71598
2.64417
0.704166
-0.0520933
1.28783
2.04797
1.89276
1.0084
-0.27288
-0.298119
-0.313244
-2.36134
0.101573
-0.0180593
0.610602
0.443882
0.473938
0.539243
0.380696
0.471639
0.317285
0.0734385
0.0904631
-0.00912562
0.185112
0.120364
0.0607798
0.128189
0.0967478
0.00349634
0.119742
0.0157593
0.0845525
0.171763
0.139422
-0.410594
-0.264923
-0.22124
-0.274138
-0.122024
-0.310572
-0.143584
-0.203751
-0.383494
-0.852304
-0.820692
-0.649403
-0.50556
-0.533773
-0.569357
-0.598513
-0.725995
-0.767133
-2.46134
-2.61531
-2.29304
-2.33704
-2.45428
-2.07205
-2.18441
-1.8754
-1.88916
-1.85693
-1.92545
-1.90866
-1.8843
-1.90341
-1.86022
-1.83229
-1.8624
-1.8829
-1.85274
-1.86857
-1.89981
-1.98722
-2.01866
-1.98453
-1.94855
-1.97802
-2.12952
-2.13942
-2.16685
-2.11797
-2.09086
-2.11495
-2.14239
-2.17641
-2.13847
-2.15078
-2.15283
-2.12667
-2.15115
-2.17733
-2.12827
-2.10145
-2.14006
-2.12765
-2.1536
-2.1792
-2.15281
-2.2423
-2.19941
-2.22991
-2.24495
-2.27218
-2.22067
-2.2464
-2.24397
-2.25698
-2.28344
-2.20427
-2.23107
-2.23173
-2.25764
-2.39001
-2.34954
-2.3482
-2.34711
-2.31295
-2.31783
-2.34562
-2.36118
-2.30193
-2.34474
-2.35752
-2.33191
-2.30548
-2.45242
-2.49366
-2.45304
-2.44027
-2.41407
-2.46625
-2.41378
-2.44099
-2.57644
-2.56374
-2.60188
-2.54684
-2.55958
-2.51854
-2.6001
-2.57258
-2.54618
-2.57338
-2.81911
-2.79091
-2.77749
-2.764
-2.73622
-2.76381
-2.79154
-2.77636
-2.79033
-2.81806
-2.7624
-2.73438
-2.76255
-2.78993
-2.88963
-2.90374
-2.87587
-2.76023
-2.77397
-2.73139
-2.81582
-2.78708
-2.75964
-2.78817
-2.89117
-2.90509
-2.93363
-2.87718
-2.90516
-2.90505
-2.90431
-2.9334
-2.90475
-2.90307
-2.88952
-2.87533
-2.92323
-2.92354
-2.93599
-2.89367
-2.89373
-2.90517
-2.90536
-2.91804
-2.88639
-2.88288
-2.91896
-2.88904
-2.86785
-2.89669
-2.74558
-2.7145
-2.75836
-2.76826
-2.8022
-2.77503
-2.74366
-2.77159
-2.80386
-2.49504
-2.51062
-2.46976
-2.55494
-2.52888
-2.50046
-2.52535
-2.36369
-2.37464
-2.39299
-2.38363
-2.40626
-2.38478
-2.41116
-2.2811
-2.26574
-2.24187
-2.31287
-2.30014
-2.31011
-2.29543
-2.31081
-2.34614
-2.33978
-2.32424
-2.33471
-2.22493
-2.1934
-2.2455
-2.24681
-2.21845
-2.244
-2.20913
-2.19666
-2.24378
-1.66714
-1.65242
-1.72571
-1.71216
-1.68368
-1.80868
-1.77217
-1.74464
-1.77635
-1.59323
-1.60002
-1.57318
-1.55859
-1.58502
-1.58007
-1.55711
-1.52823
-1.54343
-1.52142
-1.51096
-1.49073
-1.50859
-1.52776
-1.43462
-1.41263
-1.4414
-1.43968
-1.41963
-1.46382
-1.44147
-1.43236
-1.45519
-1.30766
-1.32688
-1.28403
-1.35973
-1.34127
-1.31087
-1.33139
-0.741407
-0.769122
-0.776031
-0.802961
-0.770781
-0.819731
-0.787654
-0.642591
-0.623557
-0.593696
-0.6433
-0.672893
-0.680312
-0.646384
-0.655475
-0.624109
-0.689355
-0.64715
-0.607459
-0.643023
-0.642126
-0.674802
-0.694309
-0.548435
-0.510456
-0.511537
-0.511805
-0.469384
-0.493768
-0.458553
-0.567344
-0.506784
-0.530686
-0.415149
-0.352213
-0.389979
-0.274278
-0.222385
-0.261473
0.0451575
0.00360509
0.0762525
0.10535
0.172555
0.0881291
0.0392914
65.9919
52.2519
39.2626
55.4645
43.1992
29.4435
29.5117
2.69775
5.69083
27.7297
94.4398
69.0918
67.9369
85.4842
86.5607
97.2994
59.8754
59.3677
70.3165
68.7151
64.4653
53.0731
39.1083
86.0943
60.0768
51.937
65.8555
38.2003
60.0904
86.5977
66.7512
92.1362
53.684
66.6996
39.641
66.5189
0.800331
1.60689
2.92086
0.292648
0.914065
1.19908
0.578292
0.937629
0.851541
1.51949
0.401653
0.92309
0.886424
1.87006
0.881988
0.940243
1.16425
0.811947
0.736964
1.28345
1.35108
0.837539
0.70215
1.03826
1.19293
1.27372
0.911596
0.98335
-0.487829
-0.678323
-0.0105678
-5.75847
5.49741
-2.6817
-0.215666
21.1854
-23.8303
-14.3038
-4.77522
-16.3639
2.71242
-12.4039
-5.33665
-5.25914
-5.56948
-5.22728
-4.40443
-5.355
-5.62273
-2.21865
-2.80499
-2.7526
-3.05982
-2.76253
-3.20341
-4.01021
-2.68322
-3.18646
-2.4492
-2.24722
-2.01297
-2.28792
-2.61979
-1.8328
-1.82117
-1.84257
-1.86887
-1.84771
-1.84644
-1.86722
-1.93195
-1.94258
-1.96764
-1.92019
-1.89581
-1.91918
-1.94436
-1.95038
-1.97528
-1.9376
-1.952
-1.92579
-1.9759
-1.95093
-1.97757
-1.93944
-1.95302
-1.9532
-1.92656
-1.95275
-1.97793
-1.97888
-1.94111
-1.95389
-1.95342
-1.92763
-1.97892
-1.95393
-2.07588
-2.05073
-2.03867
-2.06314
-2.03809
-2.02548
-2
-2.01294
-2.03789
-1.93984
-1.89285
-1.92303
-1.94117
-1.96773
-1.91428
-1.93964
-1.93499
-1.94854
-1.97419
-1.92346
-1.89838
-1.92401
-1.94896
-2.0375
-2.00317
-2.03629
-2.03606
-2.06249
-2.07759
-2.05129
-2.17023
-2.14212
-2.14246
-2.0983
-2.12887
-2.1146
-2.14304
-2.03476
-1.99359
-2.02345
-2.17955
-2.14213
-2.15501
-2.284
-2.25988
-2.24945
-2.38772
-2.36006
-2.34818
-2.33383
-2.36094
-2.30802
-2.33539
-2.34586
-2.35956
-2.38445
-2.33064
-2.30581
-2.49164
-2.46456
-2.45156
-2.43931
-2.41078
-2.43859
-2.46585
-2.3367
-2.29813
-2.32521
-2.34929
-2.32208
-2.29709
-2.32425
-2.49283
-2.45221
-2.46738
-2.4639
-2.43833
-2.46616
-2.49213
-2.65621
-2.67226
-2.69945
-2.63784
-2.61266
-2.81643
-2.78722
-2.77408
-2.81742
-2.78818
-2.79041
-2.76102
-2.60189
-2.63108
-2.64287
-2.65544
-2.62377
-2.62898
-2.59994
-2.78525
-2.81344
-2.76788
-2.78454
-2.81258
-2.78046
-2.75378
-2.88658
-2.87198
-2.90058
-2.88493
-2.91491
-2.87856
-2.85311
-2.88416
-2.86251
-2.83174
-2.9016
-2.93254
-2.86959
-2.92021
-2.8838
-2.87499
-2.88505
-2.8515
-2.82319
-2.85908
-2.9232
-2.92382
-2.93748
-2.88961
-2.88648
-2.89834
-2.8672
-2.89551
-2.88055
-2.86515
-2.91962
-2.91943
-2.93526
-2.88093
-2.88188
-2.89318
-2.89701
-2.84951
-2.81338
-2.86575
-2.81256
-2.84783
-2.88086
-2.83753
-2.91515
-2.86368
-2.87039
-2.92324
-2.88293
-2.86918
-2.90315
-2.72177
-2.78738
-2.72422
-2.7395
-2.70298
-2.78032
-2.7374
-2.4059
-2.40558
-2.32505
-2.4172
-2.43123
-2.54613
-2.44009
-2.31479
-2.28927
-2.26725
-2.33169
-2.36331
-2.39133
-2.34295
-2.38263
-2.36299
-2.37016
-2.35008
-2.38675
-2.38024
-2.41674
-2.04
-2.08964
-2.0748
-2.11209
-2.14698
-2.07927
-2.11263
-2.07356
-2.03854
-1.93798
-1.8777
-1.92086
-2.00046
-1.94939
-1.90794
-1.95301
-1.90497
-1.95763
-1.92896
-1.95363
-1.97704
-1.91512
-1.93839
-1.76237
-1.73877
-1.78112
-1.80431
-1.8249
-1.79787
-1.8191
-1.76524
-1.7856
-1.79733
-1.84105
-1.80729
-1.76308
-1.79448
-1.77502
-1.80651
-1.82933
-1.79669
-1.65724
-1.70093
-1.67882
-1.69036
-1.71203
-1.66022
-1.682
-1.51027
-1.49603
-1.46537
-1.52009
-1.54789
-1.52037
-1.49231
-1.51849
-1.505
-1.54467
-1.46093
-1.48881
-1.51601
-1.48977
-1.27197
-1.25801
-1.22591
-1.28426
-1.31558
-1.28521
-1.25503
-1.31841
-1.28761
-1.26878
-1.28771
-1.31544
-1.25689
-1.28514
-1.16244
-1.19571
-1.15135
-1.13449
-1.10173
-1.13125
-1.16185
-0.865502
-0.893968
-0.89611
-0.864052
-0.893317
-0.910678
-0.882122
-0.985481
-1.0222
-1.02361
-1.07703
-1.04153
-1.02138
-1.05614
-0.849457
-0.895389
-0.89407
-0.946071
-0.850566
-0.910606
-0.71883
-0.754235
-0.768445
-0.756033
-0.722657
-0.774515
-0.788194
-0.821173
-0.754649
-0.786225
-0.588782
-0.620311
-0.636999
0.426414
0.434563
0.437835
0.40489
0.332019
0.399208
0.405164
57.1531
44.7207
30.5684
31.8232
2.39432
6.8693
29.8617
95.9996
69.5835
70.0799
86.5738
86.618
97.8648
62.6209
60.4438
72.2459
73.5809
66.5329
54.0472
39.1773
10.5015
9.63038
9.32516
9.68883
11.9403
10.2146
8.81379
7.5548
4.48847
5.30907
8.29594
7.67938
5.06216
5.61164
-5.12356
-6.41914
-5.64518
-4.58151
-5.15754
-5.55882
-5.02623
-0.817024
-1.88179
10.1259
35.5156
21.3219
-1.2311
-8.80358
12.6004
-2.3074
-4.75685
-7.56706
-4.96642
-6.14437
-6.00226
-31.002
-9.87898
-6.09818
-4.81803
-4.94109
-5.03804
-5.27063
-4.51326
-4.91672
-4.11694
-4.40887
-4.8028
-5.01676
-4.42759
-4.52519
-4.73894
-4.1711
-4.04393
-4.60863
-4.17226
-3.49346
-3.18034
-3.27608
-3.38437
-3.02162
-3.29559
-2.94592
-1.75704
-1.77969
-1.74216
-1.77973
-1.75624
-1.75253
-1.72971
-1.75217
-1.77693
-1.73853
-1.77696
-1.75233
-1.7512
-1.72633
-1.77224
-1.7323
-1.74586
-1.72887
-1.70315
-1.72997
-1.75863
-1.86086
-1.83495
-1.83266
-1.80398
-1.83262
-1.81854
-1.79253
-1.72568
-1.69237
-1.72782
-1.72425
-1.69757
-1.86674
-1.83646
-1.8347
-1.83793
-1.86595
-1.68563
-1.72808
-1.68798
-1.71559
-1.74033
-1.87334
-1.83399
-1.82335
-1.85121
-1.87647
-1.9433
-1.97576
-1.95156
-2.03781
-2.07592
-2.05025
-2.00026
-2.02608
-1.8932
-1.91818
-1.93144
-1.9441
-1.91719
-1.91815
-1.89277
-2.14627
-2.12034
-2.13401
-2.09594
-2.1217
-2.09501
-2.12098
-2.07479
-2.04878
-2.03697
-2.04969
-2.07604
-2.05167
-2.0251
-2.27634
-2.24942
-2.23699
-2.19864
-2.22558
-2.22431
-2.25138
-2.44271
-2.46844
-2.42586
-2.41527
-2.44052
-2.38602
-2.41118
-2.59129
-2.59745
-2.55626
-2.57027
-2.607
-2.58458
-2.55034
-2.88938
-2.87618
-2.85762
-2.86688
-2.92012
-2.86395
-2.82477
-2.86837
-2.84302
-2.80753
-2.88831
-2.93714
-2.84426
-2.96144
-2.97408
-2.99589
-2.97781
-2.93548
-3.01644
-3.04146
-2.90621
-2.93287
-2.86912
-3.14062
-2.98892
-3.017
-3.02756
-3.03687
-3.03361
-3.26536
-3.18616
-3.06089
-2.95372
-3.62899
-2.99472
-3.62583
-4.02119
-3.79383
-3.93113
-4.3956
-121.316
-49.2398
-57.6782
-34.0624
-30.1917
22.2144
-3.29252
-5.51777
-6.24629
-6.92412
-5.06535
-5.13106
0.692563
-2.49093
-3.71205
-3.78161
-5.02
-4.23831
-0.94331
-5.61779
-2.98722
-2.94268
-3.07283
-2.96595
-2.90152
-2.88514
-2.91701
-2.53774
-2.49719
-2.44408
-2.84669
-2.28262
-2.75394
-2.41882
-2.3201
-2.35376
-2.36997
-2.35395
-2.38688
-2.42252
-2.38623
-2.55949
-2.52405
-2.51031
-2.45907
-2.49144
-2.5594
-2.52637
-2.49067
-2.52216
-2.19302
-2.22813
-2.24294
-2.25644
-2.29054
-2.25902
-2.22639
-2.22464
-2.1947
-2.24419
-2.22703
-2.19785
-2.26091
-2.23162
-2.15464
-2.18304
-2.13602
-2.1516
-2.12414
-2.11817
-2.08883
-1.92385
-1.90282
-1.87982
-1.91041
-1.93681
-1.90635
-1.88177
-1.62762
-1.65593
-1.61501
-1.60016
-1.56934
-1.59914
-1.62732
-1.47106
-1.49562
-1.50116
-1.49789
-1.52816
-1.54133
-1.51231
-1.36808
-1.34001
-1.38333
-1.38347
-1.41032
-1.39571
-1.36694
-1.41575
-1.38459
-1.42435
-1.38449
-1.34596
-1.38303
-1.38141
-1.41324
-1.42905
-1.29755
-1.26634
-1.26367
-1.26578
-1.22994
-1.21874
-1.2486
-1.26651
-1.31539
-1.28414
-1.11151
-1.14533
-1.15018
-1.17642
-1.14484
-1.19748
-1.16559
-1.16226
-1.14981
-1.19451
-1.13504
-1.10329
-1.13437
-1.16436
-1.14184
-1.09851
-1.1274
-1.02189
-0.97479
-1.00542
-1.02679
-1.01043
-0.978703
-1.0433
-1.07396
-1.04166
-1.01245
0.310086
0.246723
0.169578
0.114285
0.175766
0.20706
0.274352
0.610599
0.625825
0.726896
0.773216
0.898097
0.842582
0.804631
2.57251
0.72576
1.29051
0.447577
0.406276
1.06673
1.16906
6.4262
5.17836
6.73702
7.7769
9.35116
7.63847
7.98849
110.341
107.699
122.791
87.6017
83.312
100.721
97.2259
76.1974
103.895
76.4247
82.9625
64.2652
51.8405
-1.56236
-1.58397
-1.54366
-1.55873
-1.58143
-1.53032
-1.55357
-1.55042
-1.57426
-1.53469
-1.54803
-1.57299
-1.52064
-1.54511
-1.56866
-1.52794
-1.54249
-1.53977
-1.51403
-1.54241
-1.56849
-1.52228
-1.53456
-1.56036
-1.51102
-1.48019
-1.50894
-1.53611
-1.65656
-1.62679
-1.62555
-1.58176
-1.61257
-1.60111
-1.62867
-1.63004
-1.66805
-1.64217
-1.63332
-1.67242
-1.6457
-1.64586
-1.62098
-1.67254
-1.64659
-1.63868
-1.67682
-1.65294
-1.6249
-1.64741
-1.67648
-1.65227
-1.68257
-1.66088
-1.64508
-1.63173
-1.65432
-1.65846
-1.68155
-1.65219
-1.64194
-1.6151
-1.68527
-1.6607
-1.66503
-1.63944
-1.90057
-1.8687
-1.88032
-1.83117
-1.81196
-1.8314
-1.85293
-1.9892
-2.02871
-2.04698
-1.98903
-2.025
-2.06622
-2.04461
-2.26699
-2.22343
-2.25965
-2.1687
-2.19468
-2.33916
-2.30771
-2.30991
-2.2959
-2.26937
-2.32193
-2.29299
55.1316
-30.6905
22.1449
4.47373
-1.06418
-8.75243
5.54877
-4.39634
-5.47723
-5.6077
-3.40502
-3.02464
-3.33911
-3.50753
-2.68073
-2.80462
-2.81285
-2.47391
-2.67854
-2.69658
-2.41356
-3.03285
-3.3082
-3.13886
-2.93367
-2.9853
-2.95039
-2.98369
-2.96732
-2.98603
-2.95193
-2.91786
-2.97859
-2.98267
-2.9464
-2.97839
-2.95926
-2.94291
-2.96952
-2.98752
-2.94113
-2.93741
-2.92926
-2.91368
-2.91017
-2.90613
-2.90701
-2.75062
-2.71679
-2.76557
-2.78066
-2.7491
-2.77915
-2.81166
-2.33839
-2.38537
-2.36883
-2.37146
-2.40103
-2.36954
-2.33993
-2.2701
-2.25309
-2.2249
-2.25802
-2.28582
-2.25505
-2.22675
-2.16385
-2.14615
-2.11785
-2.17903
-2.20721
-2.17531
-2.1477
-2.03877
-2.01279
-2.05622
-2.07188
-2.09977
-2.05714
-2.08438
-2.02759
-2.0536
-2.11123
-2.08321
-2.06918
-2.11186
-2.08305
-2.05511
-2.08343
-1.72545
-1.7103
-1.68063
-1.76874
-1.73804
-1.73849
-1.70987
-1.65364
-1.61358
-1.62707
-1.69096
-1.72531
-1.72714
-1.75386
-1.7224
-1.7721
-1.74035
-1.56873
-1.60591
-1.5972
-1.60936
-1.56535
-1.65867
-1.48236
-1.49673
-1.45008
-1.51133
-1.54103
-1.49996
-1.48437
-1.45463
-1.4831
-1.51114
-1.36375
-1.37942
-1.33428
-1.40267
-1.43149
-1.39143
-1.37564
-1.40267
-1.40331
-1.43182
-1.14878
-1.11982
-1.16614
-1.18403
-1.21133
-1.1544
-1.18124
-0.599672
-0.665388
-0.769931
-0.695053
-0.565035
-0.0557103
-0.124169
-0.151823
-0.197986
-0.313863
-0.19571
-0.129008
-0.923852
-0.637812
-0.686135
-0.45704
-0.821
-0.570996
-0.853269
-0.238145
-0.129512
-0.0818128
-0.390682
-0.472931
-0.211307
0.219333
0.146397
0.600274
0.246532
0.17529
-0.073428
1.59386
1.59842
1.07678
0.747652
0.938683
1.35095
1.26985
5.59163
6.27817
5.07237
5.67929
5.89282
4.27972
4.38494
77.2182
85.008
60.7401
135.126
106.833
100.782
87.1667
112.627
134.369
108.748
95.2707
103.042
135.743
80.1655
111.307
111.115
126.405
127.878
137.475
96.4276
99.9394
103.61
109.626
114.593
145.598
118.947
-1.29529
-1.26661
-1.29891
-1.3127
-1.34201
-1.32749
-1.29766
-1.29561
-1.28267
-1.24792
-1.3772
-1.40293
-1.42377
-1.40481
-1.37882
-1.4353
-1.4091
-1.33458
-1.33464
-1.29061
-1.34866
-1.29683
-1.27835
-1.32354
-1.41973
-1.43874
-1.43019
-1.37875
-1.39118
-1.40301
-1.39139
-1.435
-1.36383
-1.44605
-1.15398
-1.26875
-1.35982
-1.2892
-1.66896
-1.81679
-1.78078
-1.67282
-1.81799
-1.75888
-1.89704
-2.27979
-2.83365
-1.7362
-5.48427
-2.38287
-2.03143
-2.56193
-2.67635
-2.76626
-2.04344
-3.09973
-3.13656
-2.79936
-1.8108
-2.42329
-2.32219
-2.78712
-2.65032
-2.72684
-2.83039
-2.61176
-2.34434
-2.55934
-2.39033
-2.40843
-2.63346
-2.49893
-2.40446
-2.49395
-2.54369
-2.87599
-2.79245
-2.79482
-2.81426
-2.95521
-2.85695
-2.84752
-2.83074
-2.7727
-2.78991
-2.75527
-2.72326
-2.75438
-2.7881
-2.90243
-2.89727
-2.93747
-2.90059
-2.92652
-2.89026
-2.92514
-2.89807
-2.90194
-2.87441
-2.91253
-2.93716
-2.90973
-2.90324
-2.88831
-2.93325
-2.87397
-2.90245
-2.9022
-2.92387
-2.93621
-2.92347
-2.90709
-2.90558
-2.89454
-2.89359
-2.6879
-2.65706
-2.64365
-2.67285
-2.64223
-2.59795
-2.62681
-2.61275
-2.64209
-2.24563
-2.29071
-2.27544
-2.27445
-2.30446
-2.2755
-2.24588
-2.16101
-2.1323
-2.17691
-2.13375
-2.16139
-2.16138
-2.19029
-2.03244
-2.06569
-2.06991
-2.09554
-2.06537
-2.1162
-2.08478
-1.98415
-1.9552
-1.95173
-1.91871
-1.95221
-1.93534
-1.90574
-2.00126
-1.95499
-1.96959
-1.84086
-1.79481
-1.83953
-1.82829
-1.8548
-1.88304
-1.7074
-1.72337
-1.68107
-1.65925
-1.63074
-1.6158
-1.66068
-1.63217
-1.60358
-1.63241
-1.2963
-1.26153
-1.27309
-1.24098
-1.27579
-1.22655
-1.26604
-1.08669
-1.1315
-1.13349
-1.11672
-1.15508
-1.17363
-1.13726
-1.25677
-1.25022
-1.21004
-1.21789
-1.27853
-1.24694
-1.20197
-1.1126
-1.15661
-1.12928
-1.20568
-1.20084
-1.18152
-1.18287
-1.03288
-0.995977
-0.92368
-0.996689
-1.08909
-1.07449
-0.986714
-1.49745
-1.53782
-1.55591
-1.48115
-1.64154
-1.67542
-1.54506
-1.08338
-1.10727
-1.21424
-1.341
-1.31138
-2.11561
-1.91155
-1.73044
-2.07382
-2.31201
-2.01186
-1.80774
-1.2394
-0.947195
-1.00353
-0.77465
-0.976799
-0.865469
-1.05921
-1.95127
-1.44089
-1.5555
-2.54063
-2.09568
-1.76581
-1.97897
92.8149
80.0411
109.074
104.212
75.665
70.2791
87.0391
57.0025
106.118
77.4517
82.0606
98.4632
121.563
69.2031
93.7163
89.6318
94.2561
96.0565
105.359
66.3083
67.6414
75.4831
78.2053
83.5879
114.728
87.0898
-0.999575
-0.948652
-0.966874
-0.925607
-0.894016
-0.959241
-0.929118
-1.05384
-1.02725
-1.06039
-1.08816
-1.05714
-1.10577
-1.074
-1.18126
-1.1772
-1.2095
-1.13064
-1.16171
-1.14619
-1.179
-1.05331
-1.0397
-1.00517
-1.22626
-1.19674
-1.18211
-1.23528
-1.20461
-1.1887
-1.17419
-1.20107
-1.20431
-1.23295
-1.18356
-1.14955
-1.19586
-1.20526
-1.2405
-1.17293
-1.20684
-1.14414
-1.17801
-2.16287
-2.16965
-2.18933
-2.11448
-2.15453
-2.13953
-2.16028
-2.18591
-2.20008
-2.13251
-2.15701
-2.19509
-2.11392
-2.13869
-2.56077
-2.52864
-2.51444
-2.49825
-2.52673
-2.56
-2.52868
-2.88629
-2.87031
-2.9
-2.75577
-2.70932
-2.73891
-2.76946
-2.73825
-2.70963
-2.73933
-2.89321
-2.92262
-2.88459
-2.86807
-2.83677
-2.89191
-2.92275
-2.89805
-2.86746
-2.90777
-2.93666
-2.90549
-2.93606
-2.92318
-2.92303
-2.90565
-2.9055
-2.89272
-2.8937
-2.89983
-2.88597
-2.87034
-2.90478
-2.93315
-2.8889
-2.87394
-2.90315
-2.90319
-2.92627
-2.8979
-2.88949
-2.9262
-2.89619
-2.87367
-2.90233
-2.5498
-2.5779
-2.53609
-2.54769
-2.5205
-2.54848
-2.57721
-2.29892
-2.25245
-2.29744
-2.28274
-2.31207
-2.34438
-2.18069
-2.13915
-2.18359
-2.19725
-2.22697
-2.16768
-2.19851
-2.22865
-2.04901
-2.06213
-2.02073
-1.95406
-1.99422
-1.96631
-1.93794
-1.96474
-1.9933
-1.96592
-1.96681
-1.99693
-1.95659
-1.96921
-1.94164
-1.99735
-1.96846
-1.82838
-1.85535
-1.84335
-1.88455
-1.85582
-1.88429
-1.85621
-1.83748
-1.85496
-1.82533
-1.85048
-1.87962
-1.88139
-1.85184
-1.76736
-1.73807
-1.72754
-1.68228
-1.71149
-1.73784
-1.70953
-1.76181
-1.73654
-1.72174
-1.76187
-1.73559
-1.70898
-1.7352
-1.51441
-1.47356
-1.50336
-1.5512
-1.52481
-1.50027
-1.52746
-1.48066
-1.50413
-1.51722
-1.52725
-1.50297
-1.48205
-1.50525
-1.38748
-1.41651
-1.42607
-1.41219
-1.43895
-1.45859
-1.43331
-1.42114
-1.40518
-1.43691
-1.45038
-1.46469
-1.45384
-1.43359
-1.4433
-1.42879
-1.46011
-1.45167
-1.43475
-1.46951
-1.44715
-1.37667
-1.36952
-1.39881
-1.4236
-1.42471
-1.39261
-1.38555
-1.41124
-1.41637
-1.50361
-1.4688
-1.52232
-1.53403
-1.59458
-1.48629
-1.53431
-1.70969
-1.73953
-1.73714
-1.7856
-1.86675
-1.85169
-1.79496
-1.55085
-1.49546
-1.4561
-1.52544
-1.46598
-1.49099
-1.57183
-1.71349
-1.62456
-1.5711
-1.61628
-1.70281
-1.64893
-1.74323
-1.78184
-1.85327
-1.9686
-1.97792
-1.9798
-1.90159
-1.85535
-5.01958
-0.252378
1.96356
0.728848
4.76458
5.62089
0.308534
61.0021
47.7702
77.192
86.8749
61.1597
53.1961
38.7433
68.3996
88.6413
60.5163
55.8377
71.1985
95.9294
42.3131
68.626
68.9229
70.523
97.2613
70.6873
81.8142
57.743
49.1092
34.628
63.622
55.8148
84.2247
35.2427
15.6665
52.641
59.6477
93.1419
36.2221
63.0958
63.2189
3.1848
-0.314359
1.53111
-0.987509
0.00873139
-0.336501
0.399092
0.58223
-0.00803598
0.196006
0.475733
1.07428
0.881214
0.284975
0.194008
0.126799
0.239398
0.202112
0.139729
0.301607
0.274441
0.209719
0.236251
-0.127015
-0.120152
-0.0421686
-0.0942703
-0.0929271
0.0529111
0.0286223
-0.0197411
-0.0135801
-0.222881
-0.228902
-0.273308
-0.179156
-0.197202
-0.193436
-0.223269
-0.33005
-0.292923
-0.353703
-0.328803
-0.368697
-0.368401
-0.411614
-0.664468
-0.719042
-0.679567
-0.647422
-0.682247
-0.721052
-0.683535
-0.646946
-0.611411
-0.66734
-0.68111
-0.716831
-0.681367
-0.646409
-0.81566
-0.852713
-0.800074
-0.78269
-0.815814
-0.784442
-0.750479
-0.854166
-0.807794
-0.820909
-0.807095
-0.775063
-0.838587
-0.806522
-0.821743
-0.853762
-0.804725
-0.753897
-0.78902
-0.965399
-0.929865
-0.924679
-0.932247
-0.903199
-0.91146
-0.878591
-0.98282
-0.947613
-0.935081
-0.948833
-0.982383
-0.816281
-0.803165
-0.851902
-0.786099
-0.753646
-0.784962
-0.81688
-0.529507
-0.578325
-0.534621
-0.51246
-0.549851
-0.582137
-0.541915
-0.451421
-0.507058
-0.487772
-0.528407
-0.568046
-0.492052
-0.527371
0.217399
0.853762
0.644781
-0.153194
-0.0187093
0.714834
0.168307
5.9164
6.81985
8.53544
2.05195
2.74878
3.44456
2.56036
2.86035
3.715
2.90955
2.91272
1.02311
1.98211
2.59229
4.08834
4.83005
6.94233
6.35684
5.82922
5.34622
-0.263343
-0.21466
-0.209331
-0.229011
-0.264103
-0.226078
-0.19422
-0.218317
-0.204342
-0.266626
-0.183323
-0.197523
-0.185807
-0.2182
-0.355604
-0.370394
-0.325331
-0.298744
-0.32489
-0.329441
-0.298712
-1.85089
-2.1124
-2.07894
-2.07804
-2.26051
-2.26092
-2.05336
-2.89926
-2.77141
-2.80561
-2.80944
-2.61
-2.67282
-2.89174
-1.55282
-1.59407
-1.68232
-1.81436
-1.73689
-1.58057
-1.63711
-1.73212
-1.83673
-1.56913
-1.48437
-1.35489
-1.54186
-1.81379
-1.54181
-1.31128
10.0557
-5.36491
-16.886
-0.444446
-14.9917
4.16726
2.34017
-0.623163
-1.93821
3.44913
5.28635
-19.2902
14.8836
0.658761
7.75746
1.15052
-7.66658
5.1563
-10.6962
7.82889
-2.04138
1.20364
5.29956
0.524526
-0.834063
-0.738377
-1.46696
-1.70386
-2.04274
-2.27545
-3.52411
-1.54793
-1.63402
-1.66227
-1.76616
-1.71497
-1.59806
-1.62087
-1.70153
-1.65977
-1.72305
-1.72652
-1.79568
-1.72905
-1.67407
-2.10279
-2.12049
-2.07308
-2.14132
-2.17079
-2.13795
-2.10976
-2.27635
-2.26423
-2.24833
-2.28293
-2.3127
-2.31061
-2.28081
-2.40293
-2.43596
-2.39215
-2.40407
-2.43678
-2.40705
-2.37722
-2.56773
-2.53804
-2.52253
-2.50737
-2.53586
-2.56633
-2.53684
-2.64243
-2.59665
-2.62659
-2.65688
-2.68827
-2.75983
-2.71421
-2.74548
-2.77349
-2.74465
-2.71533
-2.745
-2.86285
-2.8933
-2.88034
-2.83416
-2.86592
-2.86457
-2.83387
-2.93722
-2.9086
-2.90702
-2.88322
-2.83865
-2.86977
-2.91974
-2.88994
-2.90508
-2.87588
-2.85389
-2.88377
-2.92121
-2.92037
-2.93561
-2.90453
-2.89064
-2.83962
-2.86815
-2.88479
-2.89916
-2.93674
-2.90764
-2.90843
-2.71746
-2.76415
-2.74757
-2.74623
-2.77654
-2.74704
-2.71718
-2.76626
-2.79699
-2.75906
-2.76642
-2.73266
-2.74771
-2.71797
-2.76998
-2.81866
-2.78555
-2.64921
-2.59936
-2.6452
-2.63168
-2.66104
-2.69477
-2.57617
-2.54651
-2.53273
-2.48863
-2.5167
-2.57653
-2.54776
-2.51898
-2.54663
-2.52464
-2.48989
-2.53635
-2.54695
-2.57695
-2.5192
-2.55058
-2.12661
-2.15442
-2.17094
-2.21386
-2.18566
-2.1557
-2.18308
-2.16636
-2.17994
-2.19679
-2.22225
-2.19204
-2.22407
-2.19333
-2.09677
-2.06929
-2.05424
-2.03833
-2.0649
-2.06791
-2.09451
-2.01344
-2.05558
-2.04343
-2.09814
-2.06634
-1.94857
-1.93279
-1.95933
-1.98958
-1.96284
-1.96171
-1.98897
-1.93961
-1.95838
-1.92726
-1.9504
-1.98041
-1.98286
-1.95194
-1.86844
-1.84129
-1.82691
-1.78443
-1.81253
-1.81456
-1.84067
-1.80396
-1.84563
-1.82171
-1.77991
-1.7615
-1.81732
-1.80773
-1.77802
-1.82895
-1.85903
-1.83397
-1.80483
-1.71764
-1.70316
-1.72706
-1.75582
-1.73312
-1.72994
-1.75416
-1.68268
-1.72423
-1.70764
-1.66781
-1.6859
-1.71855
-1.70135
-1.60419
-1.58968
-1.56562
-1.53589
-1.54989
-1.55717
-1.57063
-1.58341
-1.59558
-1.61519
-1.58712
-1.59678
-1.62544
-1.59859
-1.60603
-1.63174
-1.47607
-1.49605
-1.50237
-1.47153
-1.47191
-1.50333
-1.51233
-1.52459
-1.51494
-1.52534
-1.53113
-1.51183
-1.45569
-1.47903
-1.48782
-1.4743
-1.48403
-1.48137
-1.491
-1.71037
-1.77901
-1.72165
-1.66336
-1.63572
-1.71018
-1.66492
-2.25675
-2.28355
-2.27651
-2.45891
-2.22828
-2.27559
-2.15679