/*--------------------------------*- C++ -*----------------------------------*\
| =========                 |                                                 |
| \\      /  F ield         | OpenFOAM: The Open Source CFD Toolbox           |
|  \\    /   O peration     | Version:  v2012                                 |
|   \\  /    A nd           | Website:  www.openfoam.com                      |
|    \\/     M anipulation  |                                                 |
\*---------------------------------------------------------------------------*/
FoamFile
{
    version     2.0;
    format      ascii;
    class       surfaceScalarField;
    location    "0.15";
    object      phi;
}
// * * * * * * * * * * * * * * * * * * * * * * * * * * * * * * * * * * * * * //

dimensions      [0 3 -1 0 0 0 0];
oriented        oriented;


internalField   nonuniform List<scalar> 
13152
(
9.08252e-07
2.02089e-05
-1.48004e-06
-1.96371e-05
1.86239e-05
-1.71515e-05
-5.64115e-07
-3.48791e-06
4.23207e-05
-3.46701e-05
3.53747e-05
-2.18465e-06
2.11978e-05
-7.55051e-05
2.84988e-05
-2.44525e-05
6.03857e-05
-1.61377e-05
-2.95873e-05
-2.83861e-05
7.41111e-05
3.88738e-07
-1.68427e-05
3.16297e-07
-2.98937e-05
6.95184e-07
7.87099e-06
5.17006e-06
-2.98838e-05
7.84879e-06
3.38496e-07
-5.0701e-06
-1.54672e-05
-2.97938e-05
-8.63748e-06
-1.4682e-05
-5.1391e-06
2.84586e-05
-5.83871e-08
-8.65934e-06
8.02464e-08
-1.42054e-05
-5.34947e-07
5.64187e-06
-3.05502e-05
1.6249e-05
-2.94364e-05
2.99392e-05
2.93554e-05
-6.15919e-07
3.36558e-08
-1.51624e-05
-2.98884e-05
1.28312e-07
-7.49346e-05
3.23354e-07
1.60059e-05
3.02003e-05
6.2177e-08
7.46648e-05
3.58473e-05
1.26806e-05
2.53474e-05
-7.38754e-05
3.0657e-07
-6.28009e-07
3.61688e-05
1.24231e-05
2.66915e-07
-1.8792e-05
7.35357e-05
7.77625e-05
2.90681e-05
-7.23956e-07
-2.93468e-05
1.00263e-06
-1.63533e-05
-2.68996e-05
7.2321e-05
2.01765e-07
-1.7279e-05
-8.0736e-06
7.99547e-06
2.79893e-07
5.27794e-06
-3.06305e-05
-4.95162e-06
-1.39525e-05
-2.90205e-05
-1.3804e-05
1.31404e-07
2.91012e-05
2.12102e-07
1.04201e-05
5.91779e-06
-3.86961e-06
-1.24683e-05
-1.53549e-06
1.27422e-06
1.06814e-05
-3.04296e-07
4.6866e-06
-7.04972e-06
4.15946e-07
7.908e-06
-9.29404e-07
-9.98992e-06
2.39487e-07
6.67873e-07
-1.21165e-06
1.9535e-06
2.97259e-06
1.11188e-06
1.25757e-06
8.50349e-07
-6.50386e-07
6.89363e-06
-2.40095e-06
-3.84229e-06
1.04918e-05
-3.75228e-06
-7.3899e-06
-7.91042e-06
-1.16796e-05
2.40871e-06
1.16711e-06
-7.3281e-06
2.52614e-07
-2.44853e-07
-7.81656e-06
1.58757e-07
-1.8329e-05
-2.46267e-06
-4.47117e-06
-6.098e-07
7.54364e-06
-2.9525e-07
-2.35804e-06
1.9062e-07
-4.55057e-06
-2.15848e-07
8.34878e-06
6.22105e-06
-1.91204e-05
8.10889e-06
2.40355e-08
-3.85716e-06
1.13563e-05
5.85343e-09
6.24525e-06
6.1107e-06
6.27332e-06
-1.86293e-05
1.41094e-07
6.09323e-06
1.09218e-08
5.9968e-06
2.54994e-07
-2.44226e-07
6.16171e-06
1.7574e-07
6.12979e-06
-1.00697e-07
-6.17056e-06
1.83291e-05
2.14226e-07
-6.4676e-05
-4.87268e-05
-1.15908e-05
0.000124994
2.78584e-06
-3.1367e-05
-3.60948e-05
1.87014e-07
-4.6128e-05
7.45827e-05
-1.2238e-05
-9.37118e-05
-6.41899e-05
0.000127182
-6.91267e-05
5.12373e-06
-0.000127493
1.70214e-05
-9.93269e-06
-1.85044e-05
1.14157e-05
-2.29251e-05
3.34656e-06
3.66e-05
-1.52315e-06
-3.13347e-05
4.5348e-05
-1.73165e-06
-6.21207e-05
2.55157e-05
3.12479e-05
-3.53873e-05
6.42496e-05
-3.86422e-05
4.48e-07
-4.68937e-06
-3.23458e-06
7.47595e-06
-6.40837e-06
-1.17525e-05
1.86089e-05
-2.71164e-06
-8.3861e-06
-8.81157e-06
5.32252e-06
7.77423e-07
4.39868e-06
-2.15963e-05
-4.93731e-07
-5.93625e-06
6.70381e-07
-1.94329e-05
-9.59921e-06
-1.58458e-06
3.06167e-05
1.00562e-05
-8.91506e-06
-2.05741e-05
4.40283e-07
1.6758e-08
-7.02171e-06
2.14462e-05
-2.33395e-05
4.05125e-06
-3.1647e-05
2.4074e-05
-1.95825e-05
4.39356e-05
-4.3808e-08
9.45547e-08
-6.55934e-09
-4.41874e-08
1.77038e-07
4.73713e-11
-2.20893e-07
1.11613e-07
1.59979e-07
-2.14054e-08
2.71375e-07
-2.49923e-07
2.93273e-08
-5.72921e-08
-3.01613e-07
6.84601e-07
-1.12306e-07
-4.49997e-07
-3.61885e-07
7.24836e-07
8.70465e-08
1.26694e-07
-1.37503e-07
-4.39188e-07
1.11527e-07
-3.46719e-07
-1.43086e-06
2.01819e-06
-1.29039e-06
-2.89472e-08
-2.07629e-06
-4.14836e-05
4.20057e-05
3.72272e-06
-4.2448e-06
6.66196e-05
4.04929e-05
6.53249e-05
1.00721e-05
9.85532e-05
4.28183e-06
1.4426e-05
2.17851e-05
2.23e-05
4.73067e-05
-1.45174e-05
4.68896e-05
3.63134e-06
2.9735e-05
1.81264e-06
-2.69164e-05
-4.6313e-06
-2.53996e-05
-2.80638e-05
8.31984e-05
8.91258e-07
-2.44782e-05
-2.69383e-05
2.74718e-05
3.57702e-07
2.32553e-05
-7.46718e-05
-2.39219e-06
1.80022e-06
-6.05323e-06
-3.46541e-06
-2.87733e-05
1.18782e-05
2.03605e-05
-1.71561e-05
7.67104e-06
6.01968e-06
2.53466e-05
3.28568e-05
5.3661e-06
-3.49256e-06
5.7975e-06
-1.63161e-06
1.88759e-05
8.70541e-06
1.31486e-05
3.99306e-05
-1.1819e-06
4.61837e-06
1.42701e-06
-4.86348e-06
8.14632e-06
-6.46361e-06
-2.86461e-06
-1.37341e-06
1.41381e-05
-8.79629e-06
6.07301e-06
4.15029e-06
1.21851e-06
-1.48783e-05
9.76218e-06
-1.50073e-05
1.44618e-05
-4.26154e-06
-7.44816e-06
-1.14609e-06
1.28558e-05
-1.4054e-06
1.53451e-06
-4.39065e-06
-5.87074e-06
-2.98283e-06
-7.88271e-06
5.52974e-06
3.88748e-06
9.50504e-07
-1.32239e-05
8.69953e-06
-1.36198e-05
1.30832e-05
-1.0361e-06
2.56697e-06
-4.90624e-06
3.37537e-06
4.45653e-06
-4.38676e-06
-1.10586e-06
-6.1257e-06
1.31492e-05
2.48082e-06
6.29211e-06
-1.31597e-05
5.20056e-06
-3.82559e-06
2.78745e-06
-3.71259e-06
4.17333e-06
7.93097e-06
1.9347e-06
-5.67708e-06
-4.18858e-06
-4.3568e-06
1.0116e-06
1.12762e-05
2.14181e-06
-4.56392e-06
2.30711e-06
-1.09661e-06
-6.88758e-06
-9.96068e-07
4.31478e-06
-8.18605e-06
5.55602e-06
4.77183e-06
-8.56532e-07
-1.18934e-05
-2.19841e-06
6.75835e-06
-4.15158e-06
3.67433e-06
1.24584e-06
-3.6374e-06
-1.28277e-06
-2.13962e-06
-5.24838e-06
1.10623e-05
-4.31175e-06
3.41798e-06
1.50991e-06
6.12885e-06
3.9636e-06
-3.73646e-06
2.67675e-06
-3.96153e-06
4.49384e-06
7.3398e-06
1.36474e-06
-5.00391e-06
-3.70063e-06
-2.17914e-06
-7.9466e-07
1.03136e-05
-2.30509e-06
1.49068e-06
2.72837e-06
-3.44892e-06
-4.28337e-06
-1.99521e-06
3.92891e-06
8.6644e-06
8.51659e-08
-1.10547e-05
4.00885e-06
6.14622e-06
-8.91639e-06
1.093e-05
-1.22802e-05
5.68085e-06
2.38999e-06
-2.55024e-06
-5.5206e-06
-1.95942e-06
2.47448e-06
5.16579e-06
2.64401e-06
-2.21344e-06
1.70016e-06
-3.41678e-08
-4.21623e-06
1.78957e-07
3.99568e-06
-6.47277e-06
1.31446e-06
7.80231e-06
-2.67222e-06
-6.01399e-06
1.66453e-06
-4.37092e-06
3.15795e-06
-1.13198e-06
-3.3252e-07
-1.65672e-06
3.12122e-06
1.16806e-06
-9.90252e-07
-1.3098e-06
-2.0387e-06
2.87424e-06
2.72128e-07
1.84561e-06
-3.10799e-06
4.12812e-06
2.39259e-06
-2.58569e-06
4.86399e-06
-2.43831e-06
-5.52202e-07
3.14519e-06
-1.54678e-07
2.38729e-06
-3.1204e-07
-4.51356e-06
4.21882e-06
-2.38373e-06
-4.28439e-06
-7.07889e-07
8.13747e-06
-2.01887e-06
-2.4202e-06
4.2535e-06
-6.5844e-06
7.76442e-06
-1.76856e-06
1.87522e-06
9.83083e-07
-1.08975e-06
6.05402e-06
-3.24658e-07
-7.49792e-06
2.39713e-07
7.68953e-06
-1.7793e-06
3.78651e-07
-1.97117e-06
-8.97878e-07
4.46493e-06
-6.76076e-06
5.08329e-06
1.09429e-05
1.12597e-05
3.24545e-05
-5.46572e-05
-3.18033e-06
6.51358e-06
7.60969e-06
8.45484e-06
-3.75435e-07
-1.85781e-05
1.56699e-05
1.1363e-05
-1.38829e-05
-5.07065e-06
4.9851e-06
1.35865e-05
2.71686e-05
1.91522e-06
-1.43154e-06
-1.80938e-06
1.3257e-06
-5.05565e-06
9.26195e-07
6.04467e-06
-5.50959e-07
-5.93624e-06
3.78365e-06
3.68855e-07
-5.96188e-06
2.49155e-06
2.61779e-06
-4.53491e-06
7.95265e-06
-4.71701e-06
1.69306e-06
1.56743e-07
-2.92201e-06
1.07221e-06
-2.06172e-06
-2.2071e-06
-1.89139e-06
-1.3586e-08
1.89663e-06
-1.80772e-06
-2.296e-06
-2.49314e-06
1.46775e-06
1.18563e-06
-5.57015e-06
-6.35678e-07
-2.11569e-06
-3.86696e-07
1.75296e-06
7.49433e-07
2.75535e-06
2.26203e-06
-7.13307e-06
3.61368e-06
-1.24503e-06
-2.17384e-06
-1.72723e-06
5.65402e-06
-4.53239e-06
4.5469e-06
-6.81725e-06
6.43335e-06
8.15536e-07
-1.28055e-06
3.43498e-06
-2.96997e-06
-3.01954e-06
7.55517e-07
3.07955e-06
5.17983e-06
-9.47992e-06
2.2565e-06
-3.35804e-06
1.85705e-06
-3.61606e-06
8.95211e-06
-1.99878e-06
3.82056e-06
-2.17986e-06
-4.11587e-06
-1.12178e-06
3.97203e-06
1.26563e-06
4.21692e-06
2.72955e-06
6.19701e-06
-3.10188e-06
-3.21352e-06
-2.89722e-06
1.00828e-05
-5.72931e-06
3.78141e-06
-1.03054e-06
-2.07204e-06
2.05349e-07
-2.03844e-06
-4.72141e-06
1.26857e-06
-5.77467e-07
5.39355e-06
-4.26208e-06
-7.00472e-07
8.98156e-07
4.06439e-06
5.68298e-06
3.20417e-06
7.70375e-06
-2.72124e-06
4.53656e-06
-7.37485e-06
-3.28553e-06
1.18865e-05
8.37534e-06
-1.2546e-05
1.27936e-05
5.03501e-06
4.06638e-07
-5.14409e-06
-2.97552e-07
-6.69679e-06
-3.07539e-06
1.48072e-05
-7.9909e-06
1.70076e-06
7.40919e-06
2.96734e-06
-1.55206e-05
8.20671e-06
-1.09507e-06
-9.92177e-06
1.50531e-05
-1.49453e-05
1.51524e-07
-6.4583e-07
5.16046e-08
4.42702e-07
-7.90337e-08
-4.50402e-08
2.75598e-07
-6.49563e-08
-6.59907e-07
9.41164e-08
4.07749e-08
-8.32867e-08
-4.28651e-08
9.19412e-08
2.12398e-07
1.15442e-07
-3.92797e-07
-6.46158e-07
1.98649e-07
1.0227e-07
-2.96926e-08
-5.03114e-07
-2.66832e-06
-1.16421e-05
5.63624e-07
1.37468e-05
-8.38056e-06
3.97913e-07
5.31433e-06
-1.63937e-05
-3.62902e-06
-4.94258e-07
1.41281e-05
-1.32359e-05
-3.65713e-06
3.72649e-06
2.67552e-05
-2.90207e-05
1.9469e-05
-1.03701e-05
-4.26617e-06
-7.16684e-06
2.18031e-05
1.57484e-06
-1.25128e-05
5.67842e-07
-3.97079e-06
1.27947e-06
3.1067e-06
7.1804e-07
-7.79553e-06
2.93367e-06
1.4525e-06
1.67175e-05
-6.39371e-06
-2.28365e-05
-9.42738e-06
1.8978e-05
1.52186e-06
-7.19753e-06
-4.97185e-06
-1.1221e-05
1.65491e-05
-1.37901e-08
6.25234e-06
9.56549e-06
-6.20665e-06
5.82125e-06
-5.26606e-06
5.65146e-06
6.13956e-06
-9.48616e-06
-2.86005e-06
-1.42549e-05
2.62157e-05
3.63374e-06
1.25467e-07
-1.32454e-05
2.48347e-06
-1.70979e-06
-2.20468e-06
-9.56675e-06
-7.34528e-06
-1.40962e-05
-8.32323e-06
-2.72828e-06
2.51477e-05
1.25703e-06
-1.0996e-05
-4.35728e-06
1.171e-06
-8.23719e-06
1.66124e-05
-2.50744e-06
-2.5101e-05
-1.08165e-05
2.47006e-05
-1.39016e-05
4.25617e-06
-2.46463e-05
5.61696e-05
8.74345e-07
-5.48031e-05
-2.24085e-06
-4.11247e-05
-1.22549e-05
0.000109549
-4.00498e-05
-2.00554e-07
1.56968e-05
-1.42544e-05
-5.62455e-05
-1.43706e-05
1.78124e-05
4.90551e-05
1.26961e-05
-0.000101801
5.09694e-05
-2.11488e-06
-1.52561e-05
5.1855e-05
-1.68144e-05
3.60281e-07
-1.17682e-05
1.11937e-05
2.14227e-07
-1.312e-05
1.17402e-05
1.74013e-06
1.19065e-05
-3.67948e-05
-1.31521e-05
-1.09499e-05
3.52957e-05
-1.12941e-05
-1.64378e-06
-2.57524e-06
3.36552e-06
-1.96287e-06
-1.93116e-06
-4.40333e-06
-1.56103e-06
7.89552e-06
2.07827e-06
-2.69665e-06
-1.31278e-06
-3.83486e-06
1.5098e-06
-4.91833e-06
6.18891e-06
-3.96724e-06
2.55678e-06
-8.7879e-06
9.51867e-06
-1.07968e-05
1.41465e-05
-2.05902e-06
-6.99035e-06
-3.56547e-06
1.26148e-05
-5.97719e-07
8.33819e-07
-2.29512e-06
3.07463e-07
-5.84145e-06
-5.12622e-07
7.18789e-06
-4.51353e-06
-3.62303e-06
-6.72371e-06
1.01301e-06
5.19808e-06
-1.69357e-06
-9.54367e-06
4.20305e-06
-5.58916e-06
1.65059e-06
8.14003e-06
5.77427e-06
2.68358e-06
-1.65979e-05
7.99592e-06
1.14394e-05
-1.12953e-05
4.72206e-06
9.04814e-06
6.22227e-06
-2.14074e-06
-1.39796e-06
2.26453e-06
1.53971e-05
4.68336e-06
-3.44632e-06
3.48501e-06
-1.47671e-06
1.52082e-05
-2.8369e-06
3.62472e-06
-8.42396e-06
3.33308e-08
8.80114e-09
-1.76188e-07
1.34056e-07
-3.72241e-07
2.37331e-07
1.68241e-07
-3.67615e-07
4.17459e-09
-2.43114e-07
3.21398e-07
1.59046e-07
-2.95674e-07
-1.23628e-07
1.71036e-06
-1.75658e-06
1.41886e-06
-4.5826e-08
-1.57657e-07
1.20196e-07
1.30236e-07
2.91689e-07
-4.67751e-07
4.1528e-07
-1.66621e-07
8.57499e-07
2.17009e-07
-6.34259e-07
4.61402e-07
1.43164e-07
1.71696e-07
-5.88946e-07
1.65348e-07
-2.17569e-07
-9.07834e-06
-2.98205e-06
2.78049e-06
9.2799e-06
3.20115e-06
-4.12078e-06
-8.1587e-06
-3.92411e-06
4.1432e-06
-1.21324e-06
5.97554e-07
-3.30842e-06
3.09954e-06
-1.69583e-07
1.37209e-05
-1.72441e-05
1.96009e-05
-4.06796e-06
-5.95711e-07
4.23317e-07
4.24035e-06
3.80125e-06
-4.25368e-06
-3.61553e-06
-5.38304e-07
3.74385e-06
2.00811e-06
2.07009e-06
-4.6165e-06
2.27998e-06
3.47197e-06
4.89435e-06
-7.07793e-06
7.59765e-06
-1.42779e-05
-1.12843e-05
-1.13529e-05
3.6915e-05
5.87499e-06
-5.49053e-06
-1.46623e-05
-1.94195e-05
1.40102e-05
-1.25473e-05
2.32246e-05
-1.61678e-05
1.45967e-05
-4.18063e-05
-3.36038e-06
8.08977e-06
1.84952e-05
7.91399e-06
3.32229e-06
3.28938e-06
-1.47949e-05
2.62763e-08
1.59512e-05
-1.98928e-06
-1.53352e-05
1.37334e-06
-1.4716e-05
-1.58744e-05
4.65415e-05
-1.28227e-06
-1.5423e-05
-1.54222e-05
1.6179e-05
-2.0391e-06
1.88754e-05
-4.97207e-05
-2.26058e-06
2.56521e-06
1.27956e-06
5.60701e-06
-1.11969e-05
6.56812e-06
-9.78234e-07
-5.59975e-06
2.98507e-06
8.22168e-06
-6.49646e-06
-1.03002e-05
1.5005e-05
-1.89317e-05
6.91185e-06
-1.10296e-05
3.42562e-05
2.66332e-08
-4.5705e-06
-1.43879e-05
-8.0163e-07
-1.02013e-05
3.46037e-06
-1.07585e-05
5.45799e-06
3.35207e-05
1.38837e-06
-3.36362e-05
-1.27279e-06
-3.42234e-05
-3.65565e-05
0.000104301
-3.6758e-05
3.92298e-06
3.09651e-05
3.75518e-05
-0.000102153
3.54969e-05
-5.80458e-06
3.85776e-06
-4.91738e-06
4.65151e-06
8.8758e-07
-3.99554e-05
-1.23519e-06
4.0303e-05
-4.11958e-05
3.94411e-05
2.64234e-06
3.81045e-05
-0.000119256
4.24899e-05
-3.95548e-05
-4.17029e-06
-3.88696e-05
0.000121663
-2.51105e-06
3.08254e-06
-3.96136e-06
2.80422e-07
3.80014e-06
-3.80317e-06
-2.77401e-07
5.36968e-06
-6.06121e-06
9.71961e-07
-2.23672e-06
1.14066e-05
5.33627e-06
2.32214e-06
-1.14616e-05
6.10492e-06
-1.04603e-06
7.58655e-06
-1.13256e-05
1.14548e-05
6.43627e-06
4.08031e-06
1.7296e-06
-1.22462e-05
-3.17622e-07
5.90128e-06
8.52618e-07
-3.45508e-07
4.1082e-06
-8.25833e-06
1.74946e-06
1.24102e-05
5.94964e-06
-1.24784e-05
6.55244e-06
-9.48304e-07
1.24101e-05
2.78749e-07
4.32441e-06
-2.82876e-07
-4.32028e-06
6.21601e-06
-6.86361e-06
9.26334e-07
-2.45615e-06
1.29966e-05
-6.23345e-06
6.85641e-06
-9.05851e-07
2.48079e-06
-1.30346e-05
8.72929e-06
-1.31121e-05
1.31295e-05
6.73779e-06
-5.43998e-08
-7.15923e-06
4.7584e-07
-5.07713e-06
-1.75049e-06
1.35654e-05
6.68947e-08
-5.19841e-06
1.9782e-06
-2.0866e-06
-7.05082e-06
-1.9935e-06
2.22124e-06
-6.86336e-06
6.89921e-06
3.10469e-08
1.83306e-06
-1.38948e-05
-2.00287e-06
6.90859e-06
-2.2564e-06
6.62529e-06
9.88101e-08
-6.51745e-06
-2.06647e-07
-4.39379e-06
-2.1031e-06
1.31222e-05
1.27816e-07
-4.4228e-06
-6.76272e-06
6.5991e-06
2.91431e-07
2.11207e-06
-1.32976e-05
-8.8767e-06
1.33727e-05
-1.32821e-05
-2.05701e-06
-3.14334e-08
1.11167e-07
1.97728e-06
5.02153e-06
5.21057e-06
-1.22891e-05
5.08551e-06
-9.53976e-08
1.30357e-06
-1.35285e-06
1.60453e-07
-8.05179e-07
4.08605e-06
9.86958e-07
2.87076e-06
5.2673e-06
1.44664e-07
4.43825e-06
-5.35959e-08
-4.52931e-06
4.51314e-06
-4.62125e-06
2.52774e-07
-4.8416e-06
1.3793e-05
-4.58546e-06
4.43652e-06
4.51434e-06
-1.36291e-05
1.42595e-07
-2.49502e-07
-2.62477e-07
4.81241e-08
-2.9542e-06
-9.93301e-08
3.0054e-06
-4.99459e-06
4.93695e-06
1.05763e-07
3.88539e-06
-1.18342e-05
1.07749e-06
-1.17606e-06
-7.63908e-10
-8.87308e-07
4.9702e-06
-8.77836e-07
4.92747e-06
1.83149e-06
1.31744e-06
3.08974e-06
1.01574e-06
-5.42292e-06
1.61305e-07
1.24865e-06
-9.25097e-08
3.12357e-06
1.27477e-07
7.26776e-07
5.07969e-06
-4.79073e-06
3.55492e-06
-1.57949e-06
-5.15572e-06
5.14329e-08
-1.65798e-06
-4.75713e-06
1.13853e-05
1.72729e-07
3.43062e-07
-1.35922e-08
-5.01361e-06
2.3647e-07
-1.68561e-06
-1.21221e-05
-2.50616e-06
-3.25305e-06
-7.36408e-07
6.49562e-06
-1.49697e-07
-2.46816e-06
1.11699e-07
-1.86217e-07
-3.21652e-06
3.55683e-06
-3.93488e-06
-2.09012e-06
-5.81867e-06
8.6391e-06
-5.6197e-06
-3.85182e-07
-1.27711e-05
1.07192e-07
3.19332e-06
-3.21721e-06
-8.33039e-08
1.36601e-06
-1.39931e-06
1.4049e-07
-1.83392e-06
6.39324e-06
4.67405e-06
4.97728e-06
-1.28685e-05
4.67173e-06
-8.10062e-08
-7.47694e-07
4.32565e-06
4.18334e-06
-4.2269e-06
1.84044e-07
2.10443e-07
-3.95241e-06
1.10807e-08
3.99369e-06
-5.23592e-08
5.81232e-06
3.31208e-06
-1.30768e-05
5.68512e-06
1.38284e-07
-1.66509e-06
-1.97346e-07
5.85613e-06
-1.59219e-06
-1.25244e-07
-6.09981e-07
-1.79954e-06
2.21218e-06
-2.85007e-06
6.47901e-07
2.71166e-06
-2.24965e-06
6.59724e-06
-7.59856e-06
-7.35929e-06
-5.57051e-06
9.94202e-07
-6.38058e-06
-1.91721e-06
-4.44788e-06
-5.35463e-06
-3.41125e-07
-6.62392e-06
-4.45346e-06
-1.62924e-07
1.68503e-07
6.41732e-06
-1.31204e-05
-3.69526e-07
-3.93313e-07
4.82727e-06
-1.75876e-06
-2.6752e-06
7.28183e-06
-2.64446e-06
-5.03069e-06
-8.17913e-06
-5.60577e-06
-1.64686e-06
-1.15008e-07
3.11317e-09
5.8356e-07
-4.87488e-06
5.38166e-06
-1.29772e-05
-3.39121e-07
-1.4694e-08
-4.70537e-06
-4.69157e-09
4.72475e-06
-6.03421e-06
6.40761e-06
-3.88096e-07
1.67855e-06
-1.24181e-05
6.32475e-06
-6.59825e-06
2.68809e-07
-1.69481e-06
1.27443e-05
1.79453e-06
-1.88031e-06
-6.51246e-06
-1.86964e-06
1.96937e-06
-1.75305e-06
6.29102e-06
-1.95483e-06
-4.0017e-06
1.65276e-07
4.11086e-06
-2.74431e-07
3.90247e-06
3.93078e-06
-1.1835e-05
2.14835e-07
3.8529e-06
3.78419e-06
-3.80845e-06
2.39087e-07
-4.45107e-06
1.20882e-05
2.21964e-07
-9.96358e-08
-1.18255e-07
3.90703e-06
1.33182e-07
-3.79838e-06
-2.41836e-07
-5.51339e-06
-1.81628e-06
1.12367e-05
-5.14112e-06
5.47002e-06
1.62813e-06
-1.08965e-05
5.72115e-06
-4.92967e-07
-7.11524e-06
1.10201e-05
-1.06282e-05
3.6104e-06
5.40961e-06
1.96925e-06
-1.09893e-05
-2.67992e-08
1.23035e-07
3.51418e-06
5.5856e-06
-2.02777e-07
5.01208e-06
-5.33465e-06
4.45616e-07
-1.77263e-06
1.02989e-05
-7.17191e-06
1.09849e-05
-1.05373e-05
-3.48151e-06
1.61872e-06
3.18024e-06
-1.31745e-06
7.31181e-06
-1.13708e-05
4.20911e-06
-7.04053e-06
1.04261e-05
-2.96443e-06
-1.21237e-06
1.47428e-06
4.28992e-06
-4.55183e-06
3.72511e-06
5.49005e-06
-1.04275e-05
1.53734e-06
3.66205e-06
1.25042e-06
-4.2474e-06
4.53431e-06
-5.69864e-06
1.06111e-05
-2.86366e-06
4.10631e-06
-4.27237e-06
-3.56706e-06
1.3891e-06
6.60937e-06
-4.43141e-06
3.40505e-06
3.68204e-06
-1.06541e-05
3.16358e-06
1.63057e-06
-3.15635e-06
-3.50975e-06
9.82968e-06
-7.44129e-06
5.91551e-06
6.9907e-06
-1.07499e-05
1.00903e-05
-3.70232e-06
1.83502e-06
8.22069e-06
-6.35338e-06
3.35897e-06
5.85304e-06
-1.29143e-05
2.22423e-06
2.96975e-06
-1.2017e-07
-6.43579e-06
8.78019e-06
-1.45335e-05
1.73831e-05
9.6901e-06
-1.83706e-05
1.1475e-05
-3.48011e-06
-2.24714e-07
-5.26514e-06
8.96996e-06
5.50698e-06
-5.8897e-06
-3.09739e-06
-7.13525e-06
1.24175e-05
-9.31597e-08
9.7371e-06
-1.55336e-05
5.78974e-06
-8.98028e-06
5.44415e-06
-6.78966e-06
9.91611e-06
6.57636e-06
3.43137e-06
-7.06038e-06
-2.94736e-06
-4.34815e-06
-6.25978e-06
1.71843e-05
-1.13546e-05
1.04379e-05
4.39745e-06
7.63197e-06
-1.90898e-05
1.07447e-05
-9.29462e-06
1.27969e-06
4.29954e-06
2.05274e-06
3.84717e-06
8.17723e-06
-1.166e-06
-1.24661e-06
-8.22109e-06
-1.74517e-05
-5.53255e-06
7.7038e-06
1.52805e-05
8.02627e-06
7.58998e-07
-2.6237e-05
-4.08579e-06
6.5795e-06
1.58001e-05
9.14254e-06
-2.41837e-05
1.24793e-07
2.33791e-05
1.37033e-05
-8.64655e-06
2.04076e-05
9.38441e-06
6.8356e-06
4.30977e-06
-2.05298e-05
-1.36366e-06
6.26368e-06
4.48439e-06
-1.33609e-06
6.80803e-06
8.75509e-06
-5.841e-06
-4.25017e-06
-4.83608e-06
2.03992e-05
-2.85611e-06
4.28371e-06
-4.38734e-06
4.68367e-06
-1.71845e-06
-6.98284e-06
4.01762e-06
-5.97281e-06
-8.80199e-06
1.94585e-05
-6.03326e-06
-1.65801e-06
-1.63488e-06
-8.32118e-06
2.97322e-06
-6.87766e-06
-3.55922e-06
4.47352e-06
-1.8828e-05
-4.06215e-06
7.2852e-06
5.76412e-06
3.97003e-06
-1.70194e-05
-6.04151e-07
5.25026e-06
2.63909e-06
5.8676e-06
-7.07635e-07
-7.4374e-06
-4.5394e-06
1.78444e-05
-4.93669e-06
-3.20835e-06
2.29787e-06
-3.26454e-06
3.00873e-06
3.36994e-06
-1.16923e-06
-4.7367e-06
2.53599e-06
-4.20164e-06
-6.12554e-06
1.36971e-05
-3.95554e-06
-1.41533e-06
-1.24246e-06
-4.83981e-06
1.34557e-06
-4.42712e-06
-2.94088e-06
2.26912e-06
-1.10645e-05
-3.57334e-06
-3.97996e-06
1.31065e-06
5.52586e-06
-2.85656e-06
2.52364e-06
2.57036e-06
-9.07396e-06
1.01765e-06
2.81664e-06
6.174e-06
-5.21052e-06
5.41715e-08
-4.03909e-06
1.30297e-05
7.94704e-06
4.9383e-06
-1.0315e-05
3.51083e-06
9.96206e-06
1.51344e-06
-1.78568e-06
9.85182e-07
-8.24773e-06
-5.55067e-06
-9.28627e-07
1.4727e-05
-8.69162e-07
-7.32441e-06
-6.07473e-06
-3.45113e-07
1.57794e-06
-5.74708e-07
-7.07797e-06
1.63027e-06
-3.97443e-07
2.40002e-06
2.88038e-06
-5.85512e-06
4.90493e-06
-8.74643e-07
9.35862e-06
-1.38027e-05
1.33349e-05
-1.22239e-05
-1.52013e-06
9.20637e-06
4.53766e-06
2.26879e-06
8.40182e-06
-2.28945e-05
-1.24504e-06
1.9937e-06
3.94222e-06
-2.75815e-06
-2.42911e-06
-1.01056e-06
6.94647e-06
-1.49482e-07
7.03796e-06
2.31789e-06
4.45214e-06
3.80019e-06
-6.23671e-06
1.22641e-05
-4.54273e-06
-3.08665e-06
-4.53296e-06
1.45661e-05
-4.68757e-06
-8.28186e-07
1.7709e-06
6.44738e-07
-7.10321e-06
2.15251e-06
-1.20981e-06
1.63418e-06
-5.53217e-06
7.49634e-06
-3.70965e-06
1.52275e-05
-7.50172e-06
-1.06255e-06
4.76289e-06
3.80138e-06
5.17945e-06
6.29684e-06
8.66575e-07
3.25033e-06
5.57244e-06
1.59098e-06
-4.93189e-06
1.37547e-05
1.42198e-06
5.30517e-06
5.2505e-06
9.77038e-07
-1.15327e-05
-1.73114e-06
5.24953e-06
1.78679e-06
-5.60296e-06
3.65496e-06
-1.24215e-05
-4.96924e-06
5.25927e-07
-8.14119e-07
5.25743e-06
1.42883e-06
-1.2e-06
3.85279e-07
1.56948e-06
-3.48344e-07
3.01923e-06
1.54739e-06
-3.09574e-06
4.64257e-06
-1.23807e-06
7.75943e-06
1.03498e-05
4.33323e-06
9.99766e-06
2.1389e-06
-9.18391e-06
-8.28307e-06
-1.63713e-05
-8.68666e-06
-2.58988e-06
-2.46299e-06
-1.23981e-05
1.25654e-06
-4.46969e-06
4.86374e-06
-4.01233e-06
-5.83608e-07
5.85247e-06
-3.14448e-06
-5.33754e-06
6.74709e-06
2.14111e-06
-4.02446e-06
-1.04344e-05
-7.02243e-06
-6.55645e-06
-1.02189e-05
-6.06281e-06
-4.37699e-06
1.40645e-05
3.08902e-06
6.24528e-06
-3.52813e-06
2.24015e-06
9.26384e-07
5.01871e-06
-1.16886e-05
6.27713e-06
-3.13466e-06
4.61272e-06
3.54064e-06
-1.14019e-05
-3.42142e-06
-1.07891e-06
1.62036e-06
-1.19433e-05
1.74495e-06
1.7379e-05
-1.10214e-05
2.52765e-05
2.3332e-07
-2.22891e-07
-8.02848e-07
1.19521e-06
2.89945e-07
3.62675e-08
-3.01708e-07
-2.45048e-08
8.9071e-07
-1.53683e-07
-4.47082e-07
3.36412e-07
5.90566e-07
2.53069e-07
-1.99208e-07
2.82551e-07
-6.18546e-09
8.4982e-07
-5.61835e-08
-2.96707e-07
-3.64077e-07
2.45202e-08
-5.51072e-07
6.56672e-07
-1.3012e-07
-4.24933e-07
1.31343e-07
3.1811e-07
-2.56464e-07
-7.19541e-07
-1.06091e-07
2.88104e-07
4.74659e-07
3.34129e-07
-3.08878e-07
-6.31735e-08
-2.59997e-07
6.67072e-08
-8.72991e-07
9.02764e-08
-4.99297e-07
5.7343e-07
-1.08418e-06
1.75195e-07
1.11355e-06
1.84428e-07
1.77264e-06
-7.44233e-08
-9.38207e-08
8.0954e-08
8.72899e-08
4.98919e-08
1.35558e-07
-2.59873e-07
-3.84925e-07
3.40996e-07
-4.76564e-11
1.75089e-07
-9.40874e-08
-8.76481e-09
1.44275e-07
2.45713e-07
6.81114e-08
-6.98749e-07
-1.05556e-08
5.97264e-07
7.15892e-08
9.29442e-08
1.30936e-07
4.15478e-08
1.65462e-09
2.32131e-07
-2.75334e-07
-1.17878e-07
7.0759e-08
8.8667e-08
1.66328e-07
9.57438e-09
-1.13155e-07
1.7434e-07
-5.50014e-08
5.69069e-09
1.01046e-06
-4.71542e-07
-1.70828e-07
4.68924e-07
9.21788e-08
5.06101e-07
-9.99722e-08
1.26228e-07
-6.01848e-08
3.39287e-08
2.09552e-07
7.2395e-08
-3.81919e-07
2.34789e-07
1.00991e-07
1.20805e-07
-1.32818e-07
-4.81716e-08
3.94612e-07
-2.01412e-07
-1.5003e-06
2.1297e-06
-1.53213e-06
8.1411e-08
6.66945e-07
-1.2199e-06
1.98328e-07
1.84811e-07
-3.01728e-07
1.66523e-07
1.94399e-07
5.69389e-07
-5.35626e-08
3.40906e-07
2.00901e-07
-6.96521e-08
-8.88061e-07
7.58478e-06
6.87772e-06
-4.48878e-07
-1.40136e-05
3.70358e-06
3.66152e-08
3.84458e-06
2.9381e-06
7.64319e-06
-2.36793e-07
-2.83197e-08
5.1408e-07
3.09371e-06
-2.35396e-06
5.80614e-06
-2.83115e-06
5.094e-06
5.14091e-06
-4.45086e-06
-5.78405e-06
8.59601e-06
-1.90099e-05
1.55079e-05
5.848e-07
1.31521e-05
-9.98992e-06
5.15677e-06
5.41795e-06
2.78084e-06
3.81348e-07
1.63933e-05
-3.02464e-05
1.47233e-05
2.01842e-05
2.49799e-06
-2.13561e-05
-1.32608e-06
-1.11527e-05
-5.33551e-06
3.66724e-05
-1.31802e-05
4.52555e-06
3.06795e-05
-3.86567e-06
-4.81699e-05
-1.61549e-05
4.14988e-05
2.37753e-05
-4.08212e-05
1.2146e-05
9.71809e-06
1.99781e-05
1.1024e-06
-3.07986e-05
4.22655e-06
-3.28116e-06
8.77268e-06
1.06692e-05
1.35355e-05
1.72391e-05
-1.32247e-05
-7.29552e-06
-1.75621e-06
2.77679e-05
-2.15387e-05
3.04517e-05
-3.36611e-05
-2.5055e-06
-1.14807e-05
-1.83494e-05
3.23355e-05
-6.33891e-06
-1.44894e-05
1.83228e-05
-5.18899e-06
-1.26305e-05
-9.9762e-06
-2.18635e-05
1.73504e-05
-1.45502e-05
-1.37753e-05
-7.06837e-06
-1.26708e-05
-4.15624e-05
-1.12329e-05
5.93768e-06
-2.47807e-05
3.00759e-05
1.6053e-05
-1.77481e-05
-9.53777e-06
-1.68724e-05
3.88631e-05
9.46776e-06
2.23336e-05
-4.95495e-05
2.72801e-05
-2.73501e-05
2.63816e-06
1.10156e-05
8.67984e-06
1.01115e-05
1.98068e-05
-1.98269e-06
-4.77814e-06
-1.57478e-05
-3.48805e-05
-1.39401e-05
9.30503e-06
3.95156e-05
1.24634e-05
-1.74188e-05
-2.99252e-05
-1.24871e-05
1.10105e-05
3.23645e-05
-1.47758e-05
1.17913e-05
3.15836e-05
9.71844e-06
-4.44056e-08
-2.44498e-05
4.53985e-07
2.10558e-05
1.07183e-05
-2.81815e-05
2.04773e-05
1.78144e-05
2.8676e-07
-1.53547e-05
-2.74654e-06
-1.17936e-05
-6.79985e-06
3.64079e-05
-1.10172e-05
-4.89586e-07
-1.43688e-06
-1.43265e-05
4.08755e-07
-7.91621e-06
-3.2052e-07
8.0036e-06
-3.33473e-05
-4.02182e-07
-1.43696e-06
-6.20627e-06
3.56831e-06
4.07493e-06
-4.13992e-06
4.02855e-06
-1.3256e-06
2.26186e-06
-1.26081e-05
-5.71138e-06
-2.13619e-06
1.18761e-05
-4.00481e-06
-3.03218e-06
2.14452e-06
3.5766e-06
-1.71536e-06
1.09497e-06
4.67044e-06
-4.05005e-06
3.93308e-06
6.68906e-06
-1.23375e-05
1.01075e-06
4.0173e-06
3.20296e-06
5.8092e-06
-4.34171e-06
4.71519e-06
5.17684e-06
2.35817e-06
3.36777e-06
1.21847e-05
3.52951e-06
-1.2574e-06
4.48624e-06
-3.59871e-06
1.1443e-05
-3.60819e-06
-1.24793e-06
4.1163e-06
-4.01924e-06
5.26366e-07
3.21037e-06
-4.78296e-07
-3.25844e-06
4.73909e-06
-6.10899e-06
1.89626e-06
-5.31516e-06
1.32646e-05
-1.63866e-06
2.14016e-06
-9.79813e-07
1.70273e-06
-6.59983e-06
1.36137e-06
-5.76764e-06
-1.81363e-06
-4.78103e-06
-6.52461e-06
-2.79154e-06
1.40972e-05
3.33593e-07
-2.40301e-07
-4.87432e-06
-7.67084e-06
1.47983e-06
-6.91688e-06
7.61354e-06
-9.36953e-07
2.80859e-06
-1.45998e-05
9.53125e-06
-1.43935e-05
1.43533e-05
-4.19367e-06
1.97815e-07
4.61439e-06
-6.18535e-07
4.50799e-06
4.88643e-06
-1.35881e-05
4.46281e-06
2.42998e-07
-3.57807e-07
4.65095e-06
5.93292e-07
4.77334e-06
-5.16749e-07
-4.31349e-06
1.35496e-05
5.80478e-07
-2.2681e-06
-1.39166e-08
1.46161e-07
2.13586e-06
5.288e-06
5.06343e-06
-1.26195e-05
5.02407e-06
2.50032e-07
1.28228e-06
-1.35125e-06
2.15139e-07
-7.67666e-07
4.18582e-06
1.0611e-06
2.65109e-06
5.31753e-06
2.31352e-07
4.42859e-06
-4.47531e-06
-1.84636e-07
4.21301e-06
-4.4551e-06
4.73446e-07
-4.49447e-06
1.31361e-05
4.29554e-06
4.66173e-06
-1.34326e-05
4.36102e-06
-2.17801e-07
4.24445e-07
-3.51222e-07
-1.34582e-06
-5.75572e-06
-4.9844e-06
1.20859e-05
1.26796e-07
1.00933e-07
-1.57355e-06
-5.8749e-06
2.45984e-07
-2.6959e-06
2.73647e-06
6.03681e-08
1.44535e-06
-5.71479e-06
4.29096e-06
-8.72049e-06
4.85191e-06
2.17552e-06
1.13535e-07
4.13443e-06
2.1692e-06
-1.20184e-05
4.25802e-06
-6.32148e-08
-6.49885e-06
1.29324e-05
-6.58485e-06
2.27999e-08
5.06088e-06
-6.89137e-08
1.35252e-07
-5.12722e-06
-3.00821e-06
-4.22001e-06
-5.20405e-08
-3.02508e-06
-7.03063e-06
7.30009e-06
-3.21502e-07
3.16361e-06
-1.32193e-05
-4.20071e-06
1.15949e-07
1.01224e-05
1.32217e-05
-2.02846e-07
5.2077e-06
2.82838e-06
1.15924e-07
-4.21344e-06
4.18302e-06
-8.55035e-08
-4.22097e-06
4.1659e-06
1.70993e-07
4.30116e-06
-1.27356e-05
-4.06169e-06
-4.32836e-06
1.2556e-05
-4.22534e-06
3.34668e-07
-6.71984e-08
1.43026e-07
-2.12522e-07
-4.3532e-06
-4.32472e-06
-4.3989e-06
-8.52444e-08
-4.33969e-06
7.17409e-08
-1.50323e-07
-4.25963e-06
-4.01251e-06
4.35837e-06
-4.9619e-07
4.45436e-06
-1.27265e-05
-1.35532e-07
2.50205e-07
-1.76059e-07
9.7389e-08
4.14979e-06
-9.83477e-08
-4.14883e-06
4.17729e-06
-4.28499e-06
2.05085e-07
-4.46087e-06
1.27879e-05
-4.19227e-06
4.25008e-06
-1.56174e-07
4.20386e-06
-1.2545e-05
-6.6929e-08
-1.41987e-08
-2.77725e-07
-7.46595e-09
-2.66461e-06
-5.37926e-06
-1.29187e-05
6.081e-08
-4.23663e-06
4.31197e-06
-1.36151e-07
-4.24912e-06
4.24051e-06
6.94222e-08
4.49745e-06
-1.29832e-05
-4.38502e-06
-4.15099e-06
1.27765e-05
-4.24887e-06
-6.67184e-08
1.12828e-07
1.35748e-07
2.73812e-07
8.56272e-08
4.23929e-06
-4.26099e-06
-6.393e-08
6.2663e-06
-6.5198e-06
-6.4679e-06
-8.4084e-06
1.9771e-06
-1.27579e-05
-6.10097e-06
-4.30856e-07
-1.25323e-05
8.45864e-06
6.37662e-06
-2.17303e-06
-1.26622e-05
-6.21253e-06
-6.65331e-06
-4.23823e-06
-2.66791e-07
2.50485e-07
-6.28613e-06
-6.17672e-07
-4.25454e-06
-1.27137e-05
-3.49932e-07
4.8263e-06
-1.80063e-06
-2.67574e-06
7.25735e-06
-2.70528e-06
-4.90199e-06
-8.33669e-06
-5.86584e-06
-1.61377e-06
-2.22412e-07
3.55521e-08
4.03204e-07
-4.72226e-06
5.21348e-06
-1.3147e-05
-8.74784e-07
-2.61845e-06
-3.48672e-06
-7.45039e-07
6.85021e-06
-5.08197e-07
-2.27565e-06
1.65395e-07
-3.38917e-06
-6.05751e-07
-3.6948e-06
-6.21099e-06
9.16074e-06
-3.86874e-06
-2.10171e-06
5.70763e-06
-1.29655e-05
-1.10912e-06
-5.49322e-06
-2.67302e-08
5.66254e-06
-1.42592e-07
2.63388e-06
4.15032e-06
-1.22774e-05
-3.8263e-08
2.64541e-06
7.5111e-06
-6.21484e-06
-1.33452e-06
-2.65953e-06
1.2816e-05
-3.55199e-07
5.71459e-06
3.03158e-07
4.00306e-06
-2.0793e-07
1.03624e-05
-1.25741e-05
1.34174e-05
1.12008e-07
-2.69842e-06
3.15347e-06
-5.67055e-07
-3.06984e-06
3.21136e-06
-2.9513e-08
3.25993e-06
-9.02818e-06
-3.17695e-06
-3.58724e-06
9.97555e-06
-3.69943e-06
-7.80125e-07
3.40622e-07
-1.2139e-06
1.88267e-06
2.7806e-06
1.77009e-06
-2.75781e-07
5.89459e-07
1.56899e-06
3.0911e-06
-5.86285e-07
1.62674e-06
-3.62297e-06
-1.32211e-06
4.51785e-06
3.80115e-06
-1.75751e-06
-1.60848e-06
1.44099e-06
1.92501e-06
-3.20001e-07
-5.65374e-06
-6.29941e-06
1.06375e-06
4.37291e-06
6.14671e-06
7.31981e-07
2.16003e-06
3.25469e-06
1.01329e-06
3.19159e-06
-3.4729e-06
2.56359e-06
6.09727e-07
-2.95572e-06
-5.42653e-06
1.09458e-05
-2.61446e-06
2.6846e-07
1.77997e-06
-4.01491e-06
-3.2748e-06
5.19847e-06
2.24895e-06
-4.17263e-06
1.1124e-05
-5.61856e-06
2.29595e-06
1.40265e-05
-8.50649e-06
5.27227e-06
5.48317e-06
-3.15029e-06
-9.52882e-06
-2.83698e-06
6.10032e-07
7.49922e-06
7.79552e-08
-6.06522e-06
3.32228e-06
-8.86288e-06
6.22826e-06
-4.05176e-07
1.85049e-06
6.89805e-06
-8.34337e-06
3.59126e-06
2.89164e-06
-6.88807e-06