/*--------------------------------*- C++ -*----------------------------------*\
| =========                 |                                                 |
| \\      /  F ield         | OpenFOAM: The Open Source CFD Toolbox           |
|  \\    /   O peration     | Version:  v2012                                 |
|   \\  /    A nd           | Website:  www.openfoam.com                      |
|    \\/     M anipulation  |                                                 |
\*---------------------------------------------------------------------------*/
FoamFile
{
    version     2.0;
    format      ascii;
    class       surfaceScalarField;
    location    "0.5";
    object      alphaPhi0.water;
}
// * * * * * * * * * * * * * * * * * * * * * * * * * * * * * * * * * * * * * //

dimensions      [0 3 -1 0 0 0 0];
oriented        oriented;


internalField   nonuniform List<scalar> 
13152
(
9.88569e-07
2.02844e-05
-1.63201e-06
-1.96409e-05
1.87098e-05
-1.70995e-05
-6.21656e-07
-3.47078e-06
4.24649e-05
-3.46537e-05
3.54108e-05
-2.38912e-06
2.11991e-05
-7.54938e-05
2.85158e-05
-2.44162e-05
6.04558e-05
-1.61004e-05
-2.9569e-05
-2.8437e-05
7.41064e-05
3.83734e-07
-1.67845e-05
3.00316e-07
-2.99181e-05
7.32855e-07
7.84163e-06
5.15847e-06
-2.97846e-05
7.81384e-06
3.28102e-07
-5.08183e-06
-1.55413e-05
-2.98415e-05
-8.6524e-06
-1.46455e-05
-5.13343e-06
2.84313e-05
-6.89325e-08
-8.66754e-06
8.40701e-08
-1.41692e-05
-5.45245e-07
5.65834e-06
-3.05653e-05
1.62395e-05
-2.93451e-05
2.987e-05
2.93719e-05
-5.18375e-07
3.5464e-08
-1.52487e-05
-2.99159e-05
1.09915e-07
-7.49492e-05
3.20093e-07
1.60034e-05
3.02228e-05
-3.26923e-08
7.46575e-05
3.58044e-05
1.26723e-05
2.53809e-05
-7.38577e-05
3.64434e-07
-7.06639e-07
3.61466e-05
1.24151e-05
2.58099e-07
-1.8755e-05
7.3635e-05
7.78474e-05
2.91546e-05
-7.36613e-07
-2.9386e-05
9.67959e-07
-1.6407e-05
-2.68839e-05
7.24456e-05
1.73649e-07
-1.73173e-05
-8.07855e-06
8.01353e-06
2.38664e-07
5.3026e-06
-3.06984e-05
-4.96433e-06
-1.3906e-05
-2.90477e-05
-1.37912e-05
1.23803e-07
2.91454e-05
2.21497e-07
3.72551e-05
5.02492e-08
-9.23158e-06
-2.42938e-05
-2.00814e-05
3.76606e-06
5.37908e-05
-1.49034e-05
-4.72078e-06
-3.03438e-05
-1.55994e-05
4.97398e-05
-1.65345e-06
-3.79764e-05
4.14774e-06
-4.3754e-06
-1.46124e-05
2.07772e-06
-2.57926e-06
-8.13184e-06
-5.47643e-06
-1.41825e-05
-4.88812e-11
2.36651e-10
-8.10289e-11
-1.24245e-10
4.74602e-10
-1.35707e-10
-2.71803e-10
-4.28571e-10
-2.63153e-09
4.03414e-10
7.25514e-10
-8.43288e-10
5.71827e-10
-6.61447e-11
-7.20821e-09
9.39701e-09
-6.21741e-09
-2.22306e-11
-4.63121e-11
-2.70086e-12
7.22128e-11
2.07123e-12
-3.91601e-11
7.42288e-12
-4.83844e-11
2.07004e-12
1.17051e-10
6.64899e-11
-2.29122e-10
1.00334e-10
-4.92313e-13
-3.09779e-11
1.29121e-10
-4.49056e-14
-8.30345e-12
1.48737e-11
9.73531e-11
-5.68988e-11
2.24986e-12
3.372e-13
-1.39567e-13
2.92518e-11
6.92995e-12
2.63368e-13
2.36264e-13
-1.11278e-13
4.17539e-11
7.07512e-11
-3.75424e-11
1.02818e-10
2.20382e-10
-9.38016e-10
8.0899e-10
-8.86604e-09
8.9752e-09
-2.44066e-09
-1.53452e-08
1.68202e-08
1.09546e-09
-2.76407e-09
9.94552e-09
-8.77064e-09
-1.65367e-08
-1.49417e-09
2.55518e-09
-7.74302e-09
7.31451e-09
-1.92976e-08
-2.65378e-08
5.28764e-08
2.03381e-08
-3.1936e-08
2.62563e-08
-6.15331e-08
1.09072e-08
-3.21735e-09
5.49808e-08
-5.97817e-09
4.88866e-08
-1.45399e-08
6.79463e-08
-1.13362e-07
7.61061e-09
7.63934e-10
2.87528e-08
8.82918e-07
8.86887e-07
2.6777e-06
-7.94278e-06
2.95498e-07
-6.912e-07
-5.61362e-07
1.55598e-07
4.9878e-07
1.29942e-06
-1.77733e-06
3.38085e-07
-9.0212e-06
1.04102e-05
-7.28829e-06
3.46664e-06
-1.36495e-05
-3.38856e-06
-2.026e-05
-3.55286e-06
2.72866e-05
-5.37324e-06
3.4178e-06
-1.05307e-06
-1.51623e-05
-7.11651e-06
-2.26221e-06
-5.65528e-06
1.01634e-05
-3.43945e-06
3.61992e-07
1.72003e-05
-3.5155e-05
8.06151e-06
5.74161e-06
7.46451e-07
-6.38718e-06
-8.50942e-08
-1.24475e-05
-3.26091e-06
2.14687e-05
1.67971e-06
-1.33153e-05
-4.32254e-06
-1.85023e-05
1.95866e-05
-2.12169e-05
1.05282e-05
-1.68366e-05
5.15098e-06
-5.58045e-05
1.13072e-05
1.02838e-05
2.37754e-05
-4.48262e-05
-6.87695e-07
4.19358e-06
6.17145e-06
3.64792e-06
5.00253e-06
9.72735e-06
1.86517e-05
-4.00146e-06
1.63555e-05
6.35439e-06
1.38054e-51
-1.83196e-11
-8.85616e-11
1.61161e-10
-1.34287e-51
-9.36967e-52
-1.24355e-51
-9.13999e-11
6.4222e-10
-5.18237e-51
-3.42561e-50
-2.02406e-50
-6.70612e-49
-9.52751e-49
-2.31249e-11
9.65809e-11
-6.58028e-11
1.78823e-05
9.56779e-07
-1.62739e-05
-2.77849e-08
-2.18101e-05
-2.58315e-05
6.59121e-05
1.24631e-07
-2.13388e-05
-2.45135e-05
2.58931e-05
-1.43978e-06
1.68315e-05
-6.21163e-05
-3.2424e-06
3.30287e-06
-4.93339e-09
3.24961e-99
5.78744e-104
-5.74233e-99
-1.10475e-98
3.70966e-104
-1.33668e-98
-1.96581e-98
-4.28499e-104
-6.37804e-104
-7.05519e-73
-7.07427e-74
4.47547e-73
5.1286e-39
-7.83448e-39
-6.17737e-38
-5.22009e-39
-9.60769e-38
1.88022e-08
4.24368e-08
-5.46044e-08
-3.69385e-08
1.63846e-07
-5.00211e-07
5.57641e-07
-5.93608e-08
2.73853e-07
-4.54433e-08
2.25239e-08
-9.87631e-08
5.02501e-08
-1.48617e-07
1.6215e-07
-7.42846e-07
8.81584e-08
-6.90408e-11
8.74784e-12
-2.88113e-11
5.97355e-11
-2.53352e-12
1.65658e-10
-6.73042e-10
-2.2071e-09
2.14258e-09
-1.10007e-09
2.52753e-10
1.36525e-11
1.59855e-09
-6.72983e-09
3.31124e-10
-2.66555e-09
3.2133e-10
6.31163e-14
1.76018e-13
-1.01979e-13
-1.23001e-13
2.19581e-14
-2.51998e-15
1.62911e-14
6.28112e-15
1.13737e-13
5.51469e-14
7.13456e-14
-1.8915e-13
2.48864e-16
3.46924e-14
-7.92011e-14
4.96905e-14
1.72137e-14
6.24898e-15
1.6157e-15
-2.74596e-14
-3.6903e-14
-5.28673e-16
2.61301e-16
5.81942e-15
7.60444e-16
-4.62782e-16
2.29096e-15
1.0806e-14
-9.76538e-14
6.7606e-16
4.72965e-16
-1.28097e-15
-1.0623e-15
3.30755e-15
-2.21302e-14
7.54129e-15
-1.41882e-15
7.34331e-16
-1.37902e-14
-1.17679e-16
-2.26649e-13
-3.64802e-15
6.07434e-14
-3.82112e-13
1.38371e-13
-5.40109e-14
1.8701e-13
-1.21045e-12
4.25724e-14
-7.03538e-14
4.50371e-15
3.98984e-14
-3.27429e-13
2.96603e-13
-4.46083e-13
-7.39357e-14
-1.42565e-15
-2.20919e-16
7.70924e-14
-6.44736e-16
-2.9506e-14
-2.23057e-14
-1.89154e-16
-4.74157e-16
-2.35712e-14
3.43042e-17
2.38126e-14
-4.53578e-15
-4.6439e-14
-6.16288e-17
3.43537e-16
-3.92469e-16
-9.65639e-17
-2.98651e-16
-1.4551e-15
2.99535e-15
1.45032e-17
-4.44175e-21
-1.01136e-18
-3.45653e-20
1.04552e-18
2.53392e-21
7.7094e-21
-1.95363e-20
-3.91561e-16
2.21114e-16
-4.89028e-21
-4.24203e-19
2.00498e-20
1.85522e-20
-1.62198e-20
4.25635e-15
-5.34967e-21
-6.04127e-15
2.52754e-16
1.07817e-15
-5.72755e-21
7.60936e-17
5.38754e-21
-6.39137e-21
-2.16641e-21
1.10404e-21
1.69033e-21
-1.19424e-21
-8.01915e-20
1.03005e-20
3.00026e-22
-1.23105e-20
5.87548e-20
-8.06431e-20
-8.87855e-18
-4.2428e-21
1.38061e-22
-8.63827e-20
1.57802e-20
-6.4325e-21
-2.46416e-20
3.73978e-22
4.53481e-20
-2.49907e-20
1.16502e-18
-1.15673e-20
5.70902e-20
-9.42841e-20
5.44604e-16
-4.21524e-20
8.13489e-17
-1.15663e-18
8.7103e-16
5.15335e-20
-5.93441e-20
4.73467e-20
-2.64285e-22
-1.10659e-21
6.61158e-20
-1.00475e-25
2.04229e-21
2.70474e-23
-2.67576e-21
7.45847e-21
-7.11515e-21
-1.4858e-22
-1.61338e-21
-1.34875e-24
-1.49537e-22
3.64073e-23
-8.90515e-24
5.88013e-21
-2.31561e-38
-2.15625e-38
-2.18976e-38
-4.00658e-36
-2.37588e-27
3.97529e-28
1.97835e-27
8.83695e-26
-2.18723e-37
-7.916e-35
4.09898e-27
1.1246e-25
-1.29471e-36
-7.85539e-35
6.17785e-36
-7.49445e-36
4.4965e-27
-8.11288e-22
8.19932e-22
3.9548e-19
-3.95492e-19
1.1934e-21
8.48772e-21
-1.04943e-20
1.23256e-21
7.7165e-22
-2.13974e-18
-3.80029e-19
3.4619e-18
-2.25792e-18
2.47305e-19
1.61169e-18
-3.51652e-18
1.24977e-18
-2.05183e-18
-1.24923e-18
1.88612e-18
2.29093e-18
1.5345e-18
6.94079e-19
2.41614e-18
-7.69358e-19
-6.52508e-19
7.21642e-19
1.38725e-18
-1.14541e-18
2.15562e-18
2.59914e-18
-3.08158e-19
1.10389e-18
1.52154e-17
7.15459e-17
-7.97715e-20
-1.55138e-17
1.8287e-16
6.16194e-17
-7.36915e-17
-1.62203e-18
1.89669e-16
-6.06858e-18
1.14526e-19
-1.81047e-19
-2.65212e-17
4.8625e-17
-5.46528e-17
2.33641e-18
-5.69627e-14
-8.21289e-14
-7.27713e-14
2.29341e-13
5.74325e-14
-2.42266e-14
-5.52863e-14
-5.75741e-14
5.73141e-14
8.40307e-15
7.03881e-14
-8.14335e-14
1.64422e-13
-1.82742e-13
1.90133e-13
-3.13933e-13
3.01494e-13
4.17926e-13
2.10988e-12
-7.2857e-13
-2.65047e-13
6.47809e-12
-3.28078e-12
-8.57734e-12
2.71123e-11
-4.67741e-13
7.01763e-12
-3.10387e-12
5.12186e-13
-2.28767e-13
-1.47812e-13
1.84268e-12
8.80435e-12
6.14235e-13
2.30803e-13
3.9824e-13
-2.61055e-12
2.44476e-13
-2.31721e-14
2.43829e-15
-8.59406e-15
6.48689e-15
3.96476e-14
-9.9068e-15
-1.94583e-15
2.69013e-14
3.12529e-14
-4.7663e-14
1.09173e-15
2.536e-14
6.50468e-14
-6.88726e-14
5.47889e-14
4.96594e-06
8.37402e-06
-6.55651e-06
-1.3176e-05
2.83639e-06
-1.54922e-05
1.46989e-05
-2.17322e-05
2.82079e-05
-1.35047e-06
1.62911e-05
-2.26877e-05
2.35837e-05
-3.90384e-05
-1.25709e-05
2.04612e-05
-1.79602e-05
-9.90284e-06
3.97379e-06
8.25679e-06
-2.30359e-06
1.54846e-05
1.5664e-06
-2.69355e-05
6.18394e-06
1.3186e-05
-6.00117e-06
1.23096e-05
2.03782e-06
1.53673e-05
-1.97102e-05
1.31395e-05
-3.80951e-05
3.1493e-05
-2.20786e-05
4.80167e-05
8.98937e-06
-3.15633e-05
-1.07017e-06
-3.75519e-06
9.17773e-08
5.7902e-06
-7.91254e-07
8.0645e-06
4.64782e-07
-1.13379e-05
-3.7942e-07
1.2551e-05
4.9149e-06
1.60233e-05
-1.96102e-05
1.42353e-05
-7.08361e-06
2.30084e-05
-7.00569e-06
5.36254e-05
-4.45827e-05
-1.40894e-05
-2.26243e-05
8.12793e-05
3.19024e-06
-4.05892e-05
-2.1128e-06
-1.303e-05
4.16601e-06
1.35647e-05
5.26458e-06
-3.17729e-05
1.28173e-05
4.78655e-06
6.71694e-05
-2.5921e-05
-8.18557e-05
-3.77501e-05
8.22969e-05
5.50564e-06
-2.61078e-05
-1.94822e-05
1.36968e-05
7.21052e-06
-4.03563e-05
-5.32873e-06
-1.63268e-05
-1.75067e-07
2.79911e-05
-2.70613e-05
-2.78049e-07
1.39312e-05
-1.10224e-05
4.44781e-07
-2.55766e-05
6.06038e-05
5.02815e-06
6.44208e-06
-2.18281e-05
6.51188e-06
-1.13964e-07
-3.19468e-06
-1.4516e-05
-2.76513e-05
7.21772e-08
2.10173e-08
4.63247e-08
-1.5242e-07
9.74887e-08
2.16857e-07
-1.64383e-07
4.09634e-10
9.10778e-08
-5.62904e-08
1.35721e-07
1.31382e-07
1.74766e-07
-1.97071e-07
4.89496e-07
-9.26581e-07
6.9087e-07
5.48024e-06
2.22229e-07
-7.8795e-06
-2.93114e-07
-2.36231e-07
-5.93892e-07
5.2039e-06
-4.92954e-09
-8.1512e-10
6.32816e-07
-1.0137e-07
-8.30134e-06
-9.90684e-09
4.96679e-08
4.01123e-09
6.35664e-09
-9.91257e-09
1.01823e-08
-1.69146e-09
-3.44766e-09
3.91099e-09
-9.80717e-08
-3.01046e-07
8.81037e-09
9.3197e-08
1.62527e-07
4.9378e-07
6.64706e-07
-1.07478e-06
4.48239e-07
1.38439e-08
4.40735e-07
-1.46992e-06
8.75293e-07
-3.25415e-07
1.546e-06
1.41574e-06
-1.91169e-06
1.54516e-06
-7.5111e-08
-4.6792e-07
5.04708e-08
5.0184e-07
-8.26865e-08
9.59228e-09
-2.61398e-09
-1.06758e-07
-2.60711e-07
-2.88507e-08
1.44073e-08
2.18223e-08
5.60582e-09
-3.71617e-08
3.29386e-08
-1.34267e-07
9.79939e-08
1.31524e-06
-1.82117e-08
3.49923e-06
-4.43314e-06
-1.27803e-08
-7.25355e-10
9.30474e-07
4.87493e-07
3.10482e-07
-5.34038e-06
3.51181e-06
-2.59054e-06
4.36686e-06
-1.70895e-06
-5.34999e-06
2.3828e-06
-2.27111e-06
-2.07068e-06
-3.92364e-06
2.45511e-06
-5.40729e-06
-2.0006e-06
-1.7288e-07
2.19529e-06
-3.2082e-08
3.64728e-06
5.21328e-07
-5.38282e-06
9.76455e-06
-1.03703e-06
-7.1006e-07
6.39382e-07
2.20092e-06
1.46442e-06
-1.80303e-06
-2.17195e-05
-2.48465e-06
4.45816e-05
-1.30746e-05
3.98921e-07
2.11529e-06
-1.34033e-05
7.5519e-07
9.76798e-06
-2.34334e-07
-1.06026e-05
1.31844e-06
-1.28915e-05
-5.68722e-06
2.85848e-05
6.37779e-07
-1.31963e-05
-6.60761e-06
-3.28755e-05
3.40341e-05
-3.29832e-05
1.8659e-05
-3.17287e-05
2.05293e-07
-7.57529e-05
-7.33127e-06
-5.17031e-06
1.43691e-05
-1.26266e-06
-1.07136e-05
4.79884e-06
-8.3968e-06
2.42317e-05
-5.91695e-05
-6.02904e-06
-4.418e-05
-1.21094e-05
2.5099e-05
1.92666e-05
-6.9125e-05
1.05543e-05
2.30876e-05
-2.02646e-06
-1.23484e-06
-5.39079e-07
2.87588e-06
9.85674e-07
-6.6595e-08
-2.25159e-06
-2.67564e-07
1.91483e-07
6.19324e-07
4.949e-08
-9.37216e-07
2.3896e-06
-1.38695e-06
7.35348e-07
-7.53291e-07
3.37001e-06
-1.61239e-07
-5.2471e-07
-2.56673e-07
1.04513e-06
-1.64832e-07
-5.88094e-08
8.55219e-09
-2.28756e-07
-7.71729e-08
3.89856e-07
1.04884e-07
-8.90544e-07
9.36583e-07
-3.34799e-07
4.80428e-08
-3.62974e-08
7.35386e-07
-2.43201e-09
1.77123e-09
8.2058e-11
3.06052e-09
7.00879e-10
3.21837e-10
-3.51949e-09
-2.53148e-08
3.58963e-08
-8.30761e-09
2.48586e-09
6.10108e-09
-1.49942e-09
-1.03702e-08
-2.99238e-09
1.87524e-09
3.59081e-09
1.16213e-08
-1.47263e-08
1.05017e-09
-1.01614e-08
4.21697e-09
-1.9423e-07
-2.39125e-07
1.68098e-09
4.06374e-07
3.03152e-08
-1.91741e-07
-3.73853e-08
-1.87116e-07
3.17871e-09
1.29175e-07
2.14019e-09
-3.29386e-07
1.6636e-07
-1.54427e-08
3.95122e-08
-2.90628e-07
2.91194e-07
3.88288e-08
1.44019e-07
-9.0317e-08
-3.94964e-07
1.02061e-07
-4.38393e-08
-1.02312e-07
-6.66118e-09
1.36363e-07
-4.22709e-07
3.1852e-07
-2.3411e-06
9.45323e-07
-3.01649e-06
1.80137e-07
3.15772e-08
-3.59962e-08
1.03846e-07
5.88877e-07
-6.96713e-08
1.29422e-07
-2.7487e-07
4.65875e-07
9.4883e-08
-3.96727e-07
-2.45061e-08
-1.71602e-06
-5.74742e-07
3.51989e-06
-9.98652e-07
1.08762e-06
1.16187e-07
1.12482e-06
-1.53576e-06
1.63897e-07
-2.55214e-09
1.11877e-07
-4.4842e-07
3.14854e-07
1.26557e-06
-3.93952e-05
-1.64567e-06
3.98084e-05
-4.07442e-05
3.84959e-05
3.53058e-06
3.72865e-05
-0.000117401
4.30521e-05
-3.91029e-05
-5.39784e-06
-3.81899e-05
0.000121095
-3.06819e-06
3.44185e-06
-4.86721e-06
-6.41665e-11
-9.36909e-12
-2.41197e-14
3.46735e-11
1.58235e-11
3.87732e-11
-1.16259e-10
1.4634e-11
-3.55485e-11
1.84185e-11
-2.73388e-11
-5.44225e-12
-1.47507e-11
5.57864e-11
5.14122e-12
-2.23216e-11
-2.70661e-12
1.31661e-11
2.70022e-11
1.22556e-10
-1.51835e-10
4.64149e-12
4.10949e-11
-1.51273e-11
1.57361e-11
6.97492e-12
-1.7776e-10
3.68015e-11
1.14767e-10
2.41753e-10
-2.04146e-10
-8.42834e-13
1.84129e-10
1.1079e-11
-2.96884e-10
2.19685e-10
3.1543e-10
-6.72152e-11
4.66976e-10
-4.36772e-11
-5.62214e-10
9.89233e-11
6.78554e-10
-2.17399e-10
4.51775e-11
4.71674e-10
-1.92785e-11
-2.74484e-10
1.7842e-10
-2.3123e-10
3.13121e-10
1.55658e-08
4.66021e-09
-8.47868e-09
-1.15724e-08
-4.00718e-09
5.34485e-10
1.43457e-08
8.32627e-10
-2.122e-10
3.61113e-09
-1.90484e-10
-1.01213e-08
-1.2711e-10
3.39581e-09
-7.95157e-10
6.27727e-10
9.65116e-10
-1.05787e-10
-1.00252e-09
-3.5787e-10
8.48393e-10
-6.65056e-10
6.74424e-10
1.32743e-10
-1.32715e-10
-7.17335e-10
-4.86845e-09
3.55505e-10
6.6413e-09
7.85646e-10
4.4741e-10
-6.91062e-10
-1.72295e-11
1.72971e-09
-1.04384e-10
-1.51387e-10
-4.45e-10
1.59225e-09
-7.08885e-10
-4.67326e-07
7.77329e-07
-8.80871e-07
5.71654e-07
2.03806e-06
-5.66041e-07
-1.90454e-06
1.79187e-06
1.02422e-06
-2.83416e-07
4.08867e-08
-6.69769e-07
4.6721e-07
-1.95179e-07
-9.38474e-08
-4.73229e-07
2.16536e-06
-2.68435e-08
2.33627e-06
4.0269e-10
-2.64992e-06
1.29393e-06
-1.51325e-06
-5.47354e-09
-1.72785e-06
4.71577e-06
-5.48791e-07
1.57366e-06
1.33491e-06
-4.53274e-06
-8.76399e-07
-6.05179e-09
-1.03035e-06
-3.64879e-07
-1.24213e-06
1.04351e-06
1.04583e-06
-5.56559e-07
3.72199e-07
3.35577e-08
8.4033e-07
-1.86468e-06
1.48528e-07
9.19236e-08
9.05733e-07
-9.21382e-08
1.42733e-06
-5.86516e-07
6.85364e-07
3.64391e-07
-1.27518e-07
-1.15582e-06
5.33943e-08
1.69857e-06
-6.59001e-08
1.3649e-08
-8.62071e-08
-2.4368e-07
-6.44021e-07
4.55074e-08
7.26909e-08
-1.58854e-07
2.06663e-07
-1.16464e-07
-1.77326e-06
-2.08952e-06
-2.61629e-07
6.18545e-08
9.41977e-07
1.06446e-06
4.14741e-07
-6.42978e-08
-5.43521e-07
2.72043e-08
-8.29703e-07
3.25942e-07
-8.0199e-09
-1.80209e-09
-5.99813e-09
1.57291e-08
-6.6867e-10
-2.89204e-08
1.2826e-08
-2.83565e-10
-2.59453e-09
1.88049e-08
-2.7664e-08
-2.10915e-08
-5.28764e-09
1.61432e-08
-5.13221e-09
-8.02353e-10
-3.56849e-08
2.89722e-08
1.37005e-07
-6.60794e-08
-8.55248e-09
2.71677e-08
-3.4891e-08
3.84685e-08
-6.56737e-08
2.65369e-07
5.38409e-08
3.68327e-08
-4.54665e-08
1.16737e-07
-2.44583e-08
-3.71611e-08
5.81611e-08
2.44452e-09
-5.49378e-08
1.08606e-07
3.04111e-08
-1.23891e-09
1.47383e-10
8.7282e-10
-3.2191e-10
2.76475e-09
1.09129e-09
-5.51108e-09
8.64225e-10
1.65311e-09
-8.81487e-10
4.18073e-11
1.56667e-09
-1.22339e-09
-1.86207e-10
-6.14863e-10
-5.57496e-10
1.16939e-09
-1.93532e-09
1.00741e-10
1.6888e-09
-2.68354e-09
1.82781e-09
-2.94277e-09
-5.80758e-09
-2.68164e-09
1.91553e-10
-1.42807e-09
-1.92567e-09
-3.68471e-09
-3.64222e-09
-1.43343e-09
-5.46027e-09
-3.77514e-09
-7.09677e-10
8.19443e-10
4.51868e-09
-1.09628e-08
-1.63675e-09
-1.80129e-11
7.07164e-10
-1.72029e-10
-5.77664e-10
9.20636e-10
-7.625e-10
-2.20736e-10
-1.36284e-09
-4.88951e-10
-1.96647e-10
-6.68082e-11
2.87588e-11
9.67668e-11
-1.27136e-09
3.31259e-10
-1.94632e-09
-3.67514e-10
1.05625e-11
-5.62277e-12
-1.18483e-11
1.86187e-12
-1.02015e-11
-1.0839e-12
4.33832e-11
-4.37865e-12
-6.89161e-13
-7.26153e-12
7.41735e-13
-1.71526e-12
2.80972e-11
-3.91658e-11
-3.15479e-12
1.01323e-12
2.86361e-12
5.01241e-12
1.51788e-11
2.44168e-13
-2.63284e-12
-8.38436e-12
3.05219e-12
-1.04678e-12
-2.53919e-12
8.37595e-15
-5.71324e-12
-7.14932e-12
1.93203e-11
-4.53993e-13
-2.45157e-12
2.17376e-14
1.47551e-12
-6.27322e-13
5.50671e-12
-9.57104e-12
2.38326e-12
-6.4672e-12
4.87044e-12
-2.39079e-13
2.20119e-13
3.65379e-13
-3.63476e-13
6.14149e-13
-1.5421e-14
-8.46335e-13
1.93581e-13
-2.13454e-12
5.09081e-13
2.65725e-12
-2.07972e-13
-9.57651e-13
1.60717e-13
-2.37668e-13
1.10153e-12
-3.43374e-12
-1.74466e-12
-3.52004e-12
1.00891e-11
2.61783e-12
-1.63455e-12
-1.66924e-12
-1.18047e-11
2.42099e-11
-9.04097e-13
9.77248e-12
-6.25387e-12
5.06021e-12
-6.19536e-12
4.29633e-12
-9.62787e-12
1.19403e-11
2.29675e-14
-5.24541e-14
-2.56652e-12
9.71484e-12
-5.47863e-13
1.20029e-12
-3.40316e-13
3.42771e-11
-1.12499e-11
6.78353e-11
-1.51837e-13
-3.97416e-14
-2.57342e-14
2.31002e-13
-2.27929e-14
-2.09514e-15
-1.61115e-14
-4.35399e-14
-4.41633e-14
4.33549e-14
7.58837e-15
-8.30022e-16
1.03596e-13
-2.18204e-14
7.16699e-15
-1.53947e-15
1.53552e-13
-3.72604e-16
-1.53052e-16
7.27146e-17
3.84556e-16
-9.26963e-18
-6.50804e-17
-3.43711e-16
-7.79732e-17
-9.31667e-17
-1.6997e-16
-3.15012e-17
2.82751e-16
9.61801e-17
-2.63742e-16
4.64198e-16
-5.05311e-16
9.23669e-16
3.26708e-14
-1.52672e-14
-1.83157e-14
1.01324e-16
-1.03927e-13
-7.92722e-14
2.08351e-13
-1.53765e-13
-2.65796e-14
8.76153e-13
5.70434e-14
-1.09286e-12
5.68889e-12
-4.88354e-12
-2.45241e-13
5.84892e-12
-2.08046e-13
-2.6337e-11
-9.31256e-11
2.98025e-13
4.95254e-11
-2.72164e-11
1.44246e-12
-1.05869e-11
-2.15814e-11
-4.38897e-10
-1.52401e-11
5.72355e-12
3.73996e-12
4.76562e-12
-6.03494e-11
1.21242e-11
-5.90417e-11
1.37383e-11
-1.19576e-11
-1.18531e-11
-1.58095e-11
3.26297e-11
-4.11138e-12
4.25937e-11
-8.0032e-11
-6.78118e-13
-1.9423e-11
8.02791e-11
-2.21322e-10
1.19685e-10
1.64134e-13
1.07883e-10
2.721e-11
-3.04297e-11
-2.2528e-10
-1.66293e-11
4.13033e-11
3.93774e-12
1.79638e-12
-2.84883e-11
-1.07709e-07
1.6169e-08
1.36416e-08
-5.46345e-07
1.5353e-07
4.04428e-07
-2.29289e-06
4.42642e-08
1.66921e-08
1.12753e-07
1.78651e-07
-4.18617e-07
9.37566e-09
2.83747e-08
-1.78024e-09
7.32073e-08
4.52509e-09
-1.27015e-05
-9.20413e-06
-8.82984e-06
3.0256e-05
2.02351e-06
-9.49418e-06
-5.2123e-06
1.89572e-06
-1.02973e-05
-1.39801e-05
7.91602e-06
7.78274e-06
5.11222e-06
-2.93644e-05
3.15247e-06
-7.51569e-06
2.3357e-06
-1.9767e-06
4.73065e-06
5.22225e-06
-6.70034e-06
8.05489e-06
1.53994e-05
-2.42225e-05
7.59729e-06
4.4881e-06
1.89928e-06
5.17812e-06
-1.57951e-06
1.04795e-05
7.87844e-06
-6.10845e-06
2.04439e-05
8.35674e-06
-3.46849e-07
-7.28816e-07
-6.49823e-08
1.60706e-06
4.32495e-08
-2.14529e-07
-1.40901e-07
-1.47793e-07
3.27374e-07
2.79299e-07
5.77608e-08
-5.17637e-07
3.80924e-07
8.74488e-07
-2.51258e-07
6.38432e-07
-3.06016e-07
3.84992e-07
5.22082e-08
-2.25892e-06
-3.70667e-07
-5.79983e-07
-3.76402e-07
1.26743e-06
-2.32645e-06
2.59861e-08
3.87393e-09
-2.42898e-06
8.78745e-08
-4.11338e-07
2.57701e-08
3.01917e-07
-3.01555e-06
4.68942e-08
-3.98015e-06
6.19658e-07
-1.62981e-07
-1.66266e-08
6.52486e-06
1.02257e-05
-2.5547e-05
4.62993e-08
5.80523e-06
3.28443e-05
-3.03757e-05
-2.20089e-06
-5.63673e-06
4.94971e-05
1.99375e-05
2.97561e-05
-4.60915e-05
7.16964e-06
5.20247e-06
3.24848e-07
-1.66849e-06
-5.22185e-07
-3.67622e-05
-2.13457e-05
-6.68947e-06
6.66291e-05
-1.03105e-07
-3.8602e-05
-2.17145e-05
5.34085e-07
7.31179e-06
-4.38849e-06
-2.46575e-05
7.7263e-06
1.54963e-07
8.2091e-06
1.7234e-05
-2.75509e-05
2.51215e-05
-9.12419e-06
3.92573e-05
-6.04336e-05
6.02059e-05
-2.63938e-05
-5.65245e-07
2.8545e-05
-2.14132e-06
1.03305e-05
2.39987e-05
-6.14256e-05
-6.77869e-07
1.06765e-05
1.51375e-05
-1.55693e-05
1.09107e-07
-5.3452e-06
3.12372e-05
5.42155e-07
2.78018e-05
-3.73325e-07
2.28625e-05
1.10362e-06
-2.84073e-05
5.06145e-05
-2.12652e-05
-1.01688e-05
-1.87969e-05
5.99607e-05
-1.01397e-05
5.57512e-07
7.19017e-06
5.05646e-06
-3.46268e-05
9.72263e-06
9.693e-07
9.3832e-06
-2.58437e-05
3.06349e-05
-1.16924e-05
6.19317e-05
-2.6962e-05
4.12846e-07
2.91693e-05
-2.61635e-06
2.49392e-05
3.04013e-05
-7.42729e-07
2.61022e-05
3.20675e-05
-2.40143e-06
-2.957e-05
8.77454e-05
-8.99257e-06
1.21775e-05
1.43421e-05
2.91501e-06
-2.97308e-05
-2.9841e-06
1.66815e-05
2.55012e-06
-2.14918e-05
1.21181e-05
-5.0331e-05
4.19132e-06
2.20657e-06
6.0998e-06
-9.71854e-06
3.39297e-07
1.03589e-05
1.67764e-06
3.52265e-06
2.29913e-05
2.41698e-05
4.90736e-06
2.78833e-05
7.61553e-06
1.22966e-05
1.42056e-05
2.19328e-05
8.46657e-06
2.36054e-05
3.52932e-07
-4.36993e-05
-2.98431e-05
-7.08342e-05
-9.41535e-06
-4.97328e-07
2.76592e-05
-7.70181e-08
-1.00852e-06
-1.32658e-06
-1.95387e-06
3.48256e-07
-1.25024e-06
-8.50252e-08
-1.36352e-06
3.82376e-07
1.0078e-06
-1.7427e-06
-9.58496e-07
-4.54047e-07
1.39513e-06
-3.25075e-06
2.38878e-07
-1.94614e-05
7.35353e-08
-7.55658e-10
6.48493e-06
-3.69311e-05
2.20442e-07
6.31061e-06
2.43081e-06
-1.43558e-05
1.2367e-05
3.38465e-05
1.55e-05
1.41317e-05
-4.36883e-05
1.22503e-05
1.61301e-05
4.93471e-06
-2.00959e-05
2.80357e-05
-1.3425e-05
7.84139e-06
-6.59562e-06
2.20203e-05
3.37284e-06
1.52555e-05
2.13085e-05
8.2335e-06
1.89402e-05
3.19307e-07
-4.7031e-05
-3.35322e-07
-2.74817e-05
-1.71331e-05
3.61919e-05
1.17648e-06
-2.82394e-05
-2.67251e-05
2.65081e-05
1.43938e-06
4.31407e-06
-5.92588e-05
-4.18992e-05
2.57726e-05
-8.45805e-05
-1.23177e-05
-2.21813e-05
5.53672e-06
2.6894e-05
3.24978e-06
-1.43908e-05
-1.15239e-06
-2.25027e-05
1.07345e-06
-1.6041e-05
-1.93764e-05
3.61461e-05
-5.26712e-05
2.27635e-05
4.12703e-05
1.51713e-05
-7.64295e-05
4.48151e-05
-3.10641e-08
7.58507e-05
-0.000109687
0.000100018
-2.16113e-05
-3.03394e-05
8.46229e-08
3.46686e-08
1.01767e-05
9.54153e-06
-1.45022e-05
-5.17924e-06
-2.31393e-05
-1.50586e-06
3.44917e-05
7.12953e-06
-2.23927e-05
3.937e-06
-3.9849e-05
2.07934e-05
-2.50886e-05
2.8809e-05
-1.75441e-05
1.66448e-05
7.21014e-06
-1.42112e-06
-3.88406e-05
2.87412e-05
-7.05802e-05
1.82378e-05
-1.55638e-05
-1.55881e-05
-5.27306e-06
3.52017e-05
1.30912e-06
-1.50692e-05
-1.10604e-06
-1.27723e-05
5.25839e-06
-5.21054e-05
1.64264e-05
2.46328e-05
3.28313e-05
-0.000104768
-0.000103441
-2.37494e-05
-3.17361e-05
-7.87423e-07
-6.75123e-06
7.09679e-06
8.51812e-07
-4.76568e-06
-3.36404e-06
-1.90576e-05
-5.72824e-06
3.16425e-05
-3.21872e-06
-1.58276e-05
2.24707e-06
-1.52649e-05
8.01199e-06
-3.28589e-05
2.9431e-05
-2.04209e-05
-1.58362e-05
-5.11125e-05
-2.94462e-05
-2.88351e-05
-2.60763e-05
-2.10797e-06
-2.51439e-05
-1.69733e-05
-2.35512e-05
1.3994e-05
-7.64111e-05
1.47588e-05
-7.33526e-05
2.95139e-05
-4.18773e-05
2.25083e-05
2.16485e-06
1.73318e-09
9.28615e-06
-1.37875e-05
-1.71507e-06
4.85389e-07
8.82128e-07
2.75767e-06
-7.93236e-06
2.27094e-06
-3.49438e-05
-3.17111e-06
2.19959e-06
-2.7173e-05
1.38491e-05
-5.45928e-05
-3.46831e-05
-1.22585e-05
1.45992e-05
3.21986e-05
1.88113e-05
1.00677e-05
-6.33422e-05
-1.22431e-05
1.56316e-05
3.67953e-05
-1.25789e-05
-3.64498e-05
7.53043e-06
4.23957e-05
2.76643e-05
-3.04816e-05
5.04305e-05
7.85687e-07
-5.09696e-07
-8.05545e-08
-6.82303e-07
-1.80176e-07
3.03857e-09
9.67149e-07
-1.32593e-07
4.57018e-08
2.2082e-07
1.32187e-07
-5.8396e-07
-7.40515e-08
1.33148e-07
2.93903e-07
-7.93305e-07
9.85147e-09
9.90265e-09
6.13795e-09
2.02062e-09
-2.47565e-08
-1.78989e-08
6.75308e-08
2.29781e-08
-7.15854e-09
-1.4146e-08
6.93812e-09
-6.24822e-08
1.54742e-07
-8.72373e-09
6.09906e-08
-6.27744e-08
4.5763e-08
-1.20693e-07
-8.29815e-10
-4.8096e-08
6.38124e-09
2.58451e-08
3.22805e-10
9.27504e-11
-2.1152e-09
1.34848e-08
-4.97925e-08
6.63685e-09
1.66312e-08
-1.24636e-08
-1.67636e-09
1.75239e-08
-7.56642e-09
2.31815e-08
-3.06434e-08
-3.42145e-10
-1.2103e-09
1.20869e-08
6.22693e-09
-8.23195e-10
1.03994e-08
3.26805e-09
3.21866e-10
-2.57682e-09
-1.27377e-08
4.11442e-09
2.773e-08
-1.18538e-08
-1.63909e-08
-3.71995e-09
-2.37534e-10
1.09447e-08
-3.26889e-09
-1.2788e-08
-1.26606e-09
-1.93851e-09
1.70425e-08
-4.96141e-10
-1.16667e-08
-2.9849e-09
1.4758e-08
-5.27295e-09
-1.28795e-08
1.72594e-08
-1.68777e-09
-5.65683e-10
-1.37351e-09
1.99333e-10
1.0305e-09
-3.07453e-09
5.9977e-11
-3.91871e-10
3.49248e-10
5.80244e-10
4.84983e-10
1.78548e-10
-1.27348e-08
-2.48387e-09
-6.91823e-06
-1.80941e-06
3.22084e-06
5.87665e-06
4.71329e-06
6.81475e-07
-1.14222e-05
3.79124e-06
-1.45752e-07
-2.48261e-06
3.35601e-08
5.72608e-06
2.64671e-07
-2.21065e-06
-5.47902e-07
4.38498e-06
-4.6651e-07
-1.44478e-13
-2.79974e-12
3.6374e-14
1.57247e-12
-9.55249e-13
6.79575e-13
-2.86523e-12
-3.85724e-13
-9.90636e-11
-6.79269e-12
8.80361e-13
9.44656e-13
-3.23715e-12
-2.80852e-11
2.82452e-13
6.67929e-13
1.37587e-12
1.17244e-13
-1.67113e-13
-1.35005e-12
-6.07673e-14
6.00522e-15
1.39486e-12
5.89993e-14
-2.36862e-14
2.72256e-13
6.44493e-14
-4.42168e-13
-2.96569e-14
2.09399e-13
-6.73383e-14
9.69662e-14
-3.8653e-15
-8.6875e-16
-3.23249e-14
1.16677e-14
-2.3328e-14
1.68116e-14
-4.33657e-14
-8.05132e-14
-8.45351e-14
-1.07266e-12
-1.6927e-09
3.8514e-09
2.20938e-09
-5.56254e-09
8.90424e-09
-8.95741e-09
-2.88804e-09
2.34642e-09
9.3504e-09
-3.78666e-09
1.84144e-09
3.76113e-09
-4.46812e-09
-5.30762e-09
1.71231e-08
-3.86174e-08
2.05212e-08
-2.44847e-09
-1.30201e-08
-5.2947e-10
1.46842e-08
-2.17058e-09
-1.06613e-10
-3.51411e-10
-5.4948e-09
-1.24539e-08
-2.80784e-10
7.63175e-10
-7.34809e-10
7.61248e-10
-1.48351e-09
6.60983e-09
-1.21013e-08
6.33165e-09
8.31829e-08
3.14323e-08
6.22295e-08
-2.02809e-07
5.46093e-08
4.01743e-08
-1.21364e-06
1.73296e-08
2.52941e-08
-1.03162e-08
9.55033e-09
1.46581e-08
2.91039e-08
-4.5516e-08
1.49123e-08
8.95694e-09
2.86179e-08
2.5378e-07
-1.50685e-08
1.84022e-06
9.5245e-08
-2.53614e-08
-2.88135e-06
2.34312e-06
5.93834e-09
-4.62407e-08
-1.46529e-07
6.12893e-07
1.31683e-06
-2.41295e-08
9.27416e-08
-1.25846e-07
-2.56947e-06
-1.43751e-07
-1.41658e-09
-1.36734e-08
5.06089e-09
1.29609e-09
-4.54999e-09
1.62401e-09
-8.36617e-11
4.99062e-08
-1.53029e-07
-3.37748e-09
-1.80094e-09
8.53273e-09
-4.94775e-08
2.8821e-09
-4.44179e-09
-2.83739e-08
7.5762e-07
-2.99676e-08
-8.60265e-07
1.78368e-08
-3.59574e-07
8.61597e-07
8.85522e-07
5.55496e-08
-6.85156e-07
6.66596e-07
3.92928e-08
4.87653e-07
-1.20873e-07
2.37322e-06
-1.26535e-07
1.1605e-08
1.19442e-07
-2.31817e-07
-7.39209e-07
-1.19756e-06
5.78708e-08
4.94946e-06
-1.65864e-07
2.87342e-07
-2.63614e-07
-2.43767e-09
2.48798e-08
-6.46885e-10
3.16375e-07
5.41471e-08
-1.09046e-07
-2.8228e-07
-2.62604e-07
2.37721e-07
2.31226e-07
-2.53433e-07
-1.01722e-07
3.17252e-07
4.32392e-08
2.65639e-07
-1.93694e-07
-1.93241e-07
5.85766e-07
-9.14343e-09
-1.21957e-08
8.97361e-07
2.38034e-07
-3.69266e-07
-2.93912e-10
-8.435e-10
3.49066e-10
1.33931e-09
-3.61768e-10
1.06068e-09
-1.15662e-10
5.76624e-11
-1.22782e-09
-6.34033e-10
3.43985e-11
1.85494e-09
-3.36928e-10
-4.23803e-10
4.12084e-10
-6.81e-10
7.88963e-10
-3.18753e-09
-1.9181e-09
-2.54335e-10
7.63377e-10
-2.24627e-09
-1.57989e-09
4.1843e-10
-1.69516e-09
-2.93098e-09
1.24945e-09
2.0987e-09
1.43968e-09
-5.97717e-09
1.27595e-09
-1.9048e-09
1.41514e-09
4.11341e-10
2.55821e-09
-8.53518e-11
-3.33781e-10
1.13194e-09
-4.59515e-10
1.4044e-09
-1.09878e-09
5.11188e-09
-2.48143e-10
5.16345e-10
-3.60203e-10
4.06127e-10
-1.00476e-09
-2.36058e-10
1.75532e-10
-4.11945e-10
1.93246e-10
-9.46907e-10
-1.90739e-09
-3.98352e-09
-1.17217e-11
-9.052e-11
7.25248e-11
3.24899e-11
-1.052e-10
1.30729e-10
-1.76822e-11
7.99742e-11
-2.73319e-10
-1.27349e-10
-6.1708e-11
3.08385e-10
-1.23646e-10
-1.21148e-11
-1.62434e-12
-5.02162e-12
1.82675e-12
8.3162e-11
5.65064e-11
-1.27385e-10
-6.64038e-12
1.57987e-11
-2.60713e-10
-8.45538e-12
-1.97051e-11
9.46662e-12
-3.34119e-10
-1.4324e-11
-5.39366e-13
-2.93559e-11
0
-1.90438e-13
1.91142e-15
1.88527e-13
0
0
0
-4.99167e-13
5.29526e-19
1.30628e-15
-1.28447e-15
5.49946e-13
1.07133e-12
-2.59657e-41
1.61166e-86
-1.00539e-40
-1.51149e-40
2.58278e-86
2.27953e-25
4.20593e-25
-2.83727e-86
-1.91843e-86
4.03123e-17
1.81835e-17
-3.8003e-17
-4.05365e-22
4.03127e-17
-2.61355e-19
2.6095e-19
1.79222e-17
7.20991e-18
1.96577e-17
-2.41059e-18
-3.34352e-17
-2.84979e-17
3.57188e-16
-2.21006e-17
2.68222e-16
-1.653e-17
-7.07323e-17
8.11219e-17
-6.35901e-17
1.59676e-15
-1.38046e-15
3.79731e-16
6.20444e-16
4.56379e-17
8.96872e-14
7.11253e-14
9.7355e-15
2.70779e-15
2.61921e-14
1.50683e-14
1.68134e-13
1.38758e-13
3.75634e-14
-4.45825e-14
-3.12691e-14
2.86765e-13
-7.13392e-15
-2.53596e-16
5.25122e-14
1.10253e-14
-5.70412e-15
3.58522e-14
5.71175e-14
-2.73131e-14
2.70711e-14
-1.19726e-14
3.97783e-15
2.15342e-14
-9.41833e-15
-1.23284e-14
9.93389e-13
-1.11856e-14
5.04558e-13
-1.56367e-14
1.33315e-12
4.78734e-14
6.61142e-15
-5.9559e-14
9.72601e-14
-2.36816e-14
1.15528e-12
-2.27004e-14
-4.95253e-20
1.23525e-18
-1.04834e-19
-2.62826e-19
3.74669e-19
-3.63743e-19
4.22096e-20
7.80472e-19
-1.02189e-18
9.73992e-19
-1.75949e-18
-6.75243e-19
1.39352e-18
-8.28495e-20
-3.31319e-18
6.0866e-19
1.26025e-18
-1.11478e-17
8.77647e-18
-1.72512e-17
4.06711e-19
-9.35245e-20
1.66504e-18
2.19056e-15
-2.06864e-15
-4.39898e-17
-1.23284e-14
-5.20329e-16
1.77398e-14
-8.91966e-16
-7.67963e-18
-1.15674e-17
8.04576e-15
-2.33595e-15
1.9851e-18
-3.45354e-17
-8.57513e-16
8.45201e-15
3.89332e-13
-3.80554e-13
-2.44658e-14
3.82262e-15
-1.34629e-12
-1.0871e-13
-1.15193e-12
-2.44592e-12
5.30488e-14
4.23042e-15
-7.23623e-14
3.99805e-14
9.27789e-15
1.08393e-14
2.94548e-14
-3.63948e-14
2.70962e-14
2.35338e-14
-2.0202e-13
8.62076e-14
-1.32427e-12
-1.36367e-10
-7.03559e-14
-1.92214e-11
1.12409e-09
-7.94152e-15
-5.67312e-11