/*--------------------------------*- C++ -*----------------------------------*\
| =========                 |                                                 |
| \\      /  F ield         | OpenFOAM: The Open Source CFD Toolbox           |
|  \\    /   O peration     | Version:  v2012                                 |
|   \\  /    A nd           | Website:  www.openfoam.com                      |
|    \\/     M anipulation  |                                                 |
\*---------------------------------------------------------------------------*/
FoamFile
{
    version     2.0;
    format      ascii;
    class       volScalarField;
    location    "0.5";
    object      alpha.water;
}
// * * * * * * * * * * * * * * * * * * * * * * * * * * * * * * * * * * * * * //

dimensions      [0 0 0 0 0 0 0];


internalField   nonuniform List<scalar> 
6576
(
1
1
1
1
1
1
1
1
1
1
1
1
1
1
1
1
1
1
1
1
1
1
1
1
1
1
1
1
1
1
1
1
1
1
1
1
1
1
1
1
1
1
1
0.678731
0.697864
0.697864
0.524757
0.524364
0.696524
0.695849
0.525459
0.524364
2.37996e-06
4.80067e-06
1.20526e-05
2.02545e-05
1.06376e-05
1.41581e-05
0.000105286
1.60087e-06
1.62161e-06
1.59113e-06
1.58177e-06
5.60689e-06
1.59217e-06
1.55242e-06
2.64784e-06
2.25774e-08
4.2875e-07
1.95189e-09
2.17148e-06
2.26766e-06
6.71748e-06
0.000604454
0.000604443
0.000604429
0.000604617
0.000604429
0.000604454
0.000604454
0.00449511
0.0111931
0.00968737
0.00432909
0.00864619
0.0111967
0.0087534
0.198657
0.127191
0.0994778
0.177791
0.536036
0.287932
0.809412
0.898404
0.830825
0.709933
0.891146
0.932514
0.879723
0.925154
0.614247
0.614184
0.614184
0.614012
0.614247
0.447859
0.600366
0.716076
0.689471
0.614478
0.715767
0.616644
0.613912
9.52736e-07
-4.23629e-47
8.16451e-06
-2.69826e-45
-5.19056e-44
7.81966e-06
4.11641e-06
0.293981
0.855587
0.946674
0.948456
0.874614
0.999923
0.973567
-7.46225e-95
-2.65966e-94
-2.71993e-100
-1.43933e-68
-5.38664e-35
-4.12382e-34
-2.63357e-34
0.000587057
0.00201358
0.000426143
0.00168611
0.000589681
0.00584007
0.00168944
1.92332e-07
2.50777e-06
4.82784e-07
8.33286e-06
5.80879e-05
1.02495e-05
2.90098e-06
1.49453e-08
1.15674e-09
5.10844e-09
1.13264e-09
1.13264e-09
1.12328e-09
6.59122e-09
1.85779e-09
1.20103e-10
1.16434e-10
5.44403e-09
2.13068e-10
1.03123e-10
2.18723e-10
1.59607e-10
2.01183e-10
7.30824e-09
9.14034e-08
1.05831e-07
4.15287e-09
4.25455e-09
1.142e-08
3.29129e-08
1.62965e-10
6.24663e-09
1.62325e-10
1.08277e-09
3.94437e-09
1.00466e-10
6.89477e-11
8.1035e-10
1.51752e-10
1.8666e-15
1.8666e-15
2.00636e-12
1.26171e-14
3.46216e-15
2.07752e-10
4.43196e-11
6.49754e-12
3.30625e-15
2.11378e-16
1.36447e-15
2.11378e-16
1.19396e-13
2.19541e-15
2.20886e-16
3.57183e-15
1.35279e-15
4.32636e-14
1.34942e-15
2.67262e-11
1.33587e-11
1.82109e-15
1.83769e-15
2.21865e-15
5.56459e-18
5.01337e-18
1.20965e-15
1.22278e-19
9.10598e-20
1.21177e-19
-1.82216e-34
4.19358e-37
7.5534e-22
3.15179e-22
6.92405e-33
0
5.41516e-33
1.43021e-16
1.43021e-16
1.42606e-16
3.17855e-13
4.32173e-13
3.52788e-13
1.63856e-13
5.69485e-13
3.17218e-13
9.36468e-13
6.67376e-13
6.66771e-13
1.28723e-12
6.25495e-13
6.45311e-11
4.00552e-11
1.49327e-12
2.5777e-13
1.50095e-11
8.31978e-12
1.50082e-12
7.27038e-09
7.25445e-09
7.29125e-09
7.18745e-09
7.21117e-09
1.55237e-08
7.26557e-09
5.05831e-08
2.05373e-07
8.4709e-07
2.39337e-07
5.04952e-08
3.37931e-07
7.82032e-08
2.50719e-07
1.26244e-06
5.96929e-10
2.05379e-09
5.96929e-10
2.06405e-09
5.96689e-10
1.06081e-08
1.66921e-09
0.570752
0.784047
0.705241
0.755832
0.893362
0.95682
0.962959
0.497606
0.497606
0.497606
0.508123
0.559578
0.561002
0.496816
0.561091
0.494829
0.405722
0.35402
0.358177
0.350017
0.489365
0.595571
0.368356
0.605926
0.531998
0.548777
0.602632
0.561807
0.605865
0.606375
0.604027
0.605865
0.54049
0.532131
0.332425
0.60337
0.426027
0.471534
0.428873
0.424994
0.425007
0.503719
0.00230291
0.0123264
0.00228598
0.00236183
0.00229498
0.197903
0.0255135
0.349409
0.0516508
0.000159482
0.156216
0.00874727
0.000158474
0.000160041
8.97171e-05
0.000115158
0.00642486
0.0166764
0.00620659
0.0287344
0.0121642
0.0391533
0.0156157
0.00636191
0.00077154
0.0516679
0.000919807
0.000768995
0.000768736
0.000814615
0.193147
0.0588873
0.00664858
0.0972302
0.077656
0.142004
0.0355022
0.124425
0.193227
0.0784684
0.0710558
0.309837
0.0740588
0.0751072
0.506624
0.500878
0.126142
0.186126
0.620092
0.622242
0.622616
0.622242
0.539169
0.622242
0.610978
0.556886
0.559576
0.497773
0.499123
0.560015
0.561091
0.560452
0.498323
0.493289
0.0963106
0.0872501
0.216252
0.0133863
0.228084
0.0133863
0.0490697
0.0202111
0.0013244
0.0324601
0.0123142
0.0324422
0.00140019
0.0155222
0.000293982
0.000168152
0.00110606
0.000168152
0.000168152
0.000168187
0.000742881
0.00308446
0.00114635
0.00628168
0.000582462
0.0122843
0.0110241
0.0122827
0.00804401
0.00476345
0.00427146
0.00163574
0.00124595
0.0229781
0.0664996
0.00526843
0.0243609
0.00156861
0.00493774
0.00508523
0.0637042
0.297451
0.0435842
0.00475093
0.00535995
0.00563115
0.980035
0.980013
0.980035
0.932723
0.979755
0.960137
0.979985
1.0593e-06
4.17261e-06
1.89374e-06
4.68313e-07
3.34378e-07
2.28673e-06
3.07862e-07
3.25844e-06
1.04338e-06
9.0029e-07
3.18574e-06
6.67463e-06
3.00621e-06
7.61636e-07
6.81271e-06
6.73534e-06
6.78316e-06
1.04448e-06
9.23055e-07
9.86231e-07
1.14693e-06
0.000104364
9.25633e-05
1.59159e-05
8.31285e-05
8.46532e-05
1.15765e-05
1.25245e-05
1.15861e-05
1.15985e-05
6.88793e-06
8.43722e-05
0.000173792
8.68895e-06
6.85682e-06
1.98791e-05
6.87041e-06
0.255161
0.254773
0.255224
0.203287
0.237851
0.203303
0.255207
0.0878605
0.0335462
0.143926
0.255229
0.255224
0.244815
0.255229
0.264897
0.0230751
0.036575
0.264057
0.264748
0.0854586
0.278855
0.191057
0.125288
0.192756
0.0437076
0.102235
0.0443092
0.0293579
0.124188
0.278855
0.0485186
0.0934195
0.0952401
0.255228
2.03963e-05
0.000296473
1.74392e-05
0.00143848
0.000491511
1.47108e-05
1.74392e-05
0.00282988
0.00216939
0.00282988
0.00150613
0.00087864
0.00130907
0.00237589
0.000527807
0.0007541
0.000462584
1.33091e-05
1.33091e-05
1.33091e-05
1.33091e-05
3.28978e-05
3.72905e-05
5.37287e-05
5.04125e-05
1.34205e-05
2.4629e-05
1.66783e-05
5.38017e-05
4.33685e-05
5.37372e-05
5.38017e-05
5.38017e-05
5.38017e-05
1.41904e-05
1.76094e-05
1.32484e-05
1.19605e-05
1.21523e-05
3.90914e-05
2.33589e-05
1.19145e-05
4.20324e-06
1.81595e-06
9.35538e-07
2.59136e-07
4.4761e-06
9.79364e-07
5.31333e-06
2.51997e-06
1.1207e-06
2.91536e-07
7.61584e-07
8.37377e-07
1.28996e-07
5.41509e-07
2.23018e-07
3.61358e-07
4.07712e-08
4.07712e-08
4.07859e-08
9.98919e-08
9.14206e-08
6.39231e-08
1.14915e-07
3.73434e-07
3.72139e-07
1.40588e-06
3.99344e-07
3.76103e-07
3.71779e-07
3.74729e-07
1.49194e-07
2.02557e-07
1.07994e-08
2.69948e-06
1.05642e-06
1.90899e-08
6.12643e-09
1.99068e-08
3.21595e-09
2.04915e-08
6.99573e-11
9.34221e-09
3.2522e-11
3.25098e-11
5.01827e-11
6.60779e-11
3.48002e-11
3.27635e-11
5.64181e-11
1.71616e-11
1.7575e-10
4.11868e-10
2.40979e-10
8.36537e-10
2.43764e-10
4.83554e-11
3.55153e-06
8.35704e-07
1.97966e-05
8.22662e-07
2.59226e-06
1.76176e-06
8.08578e-07
1.36263e-06
5.59263e-06
1.353e-06
1.51179e-06
1.37033e-06
1.59944e-06
1.43667e-06
4.17665e-06
1.36286e-06
0.00724013
0.0246974
0.000912442
0.0150223
0.00164856
0.00229821
0.000262194
0.94298
0.975402
0.880894
0.958173
0.974969
0.975421
0.950204
0.69159
0.8603
0.940736
0.14998
0.821976
0.673529
0.947447
0.0360039
0.0102209
0.0531854
0.0105694
0.0299585
0.0402955
0.0182245
0.052591
0.022594
0.0472564
0.0396779
0.00655006
0.0326486
0.0256787
0.070986
0.211164
0.395639
0.558619
0.411337
0.548727
0.175244
0.558556
0.151132
0.448081
0.558614
0.387471
0.387271
0.387183
0.500247
0.387183
0.558502
0.401037
0.417305
0.389356
0.41703
0.415754
0.416603
0.388151
0.388575
0.388152
0.388152
0.388164
0.389623
0.502033
0.399497
0.388599
0.38794
0.388152
0.606444
0.606444
0.606443
0.606444
0.606444
0.507608
0.452211
0.529973
0.559928
0.602632
0.60197
0.108182
0.109937
0.120271
0.572123
0.358878
0.597895
0.18337
0.450978
0.450978
0.593601
0.597942
0.598661
0.420882
0.419917
0.60326
0.109824
0.0735012
0.0734844
0.193156
0.14081
0.074514
0.138058
0.28148
0.407204
0.140475
0.0738656
0.0959375
0.560726
0.558267
0.560034
0.477488
0.472975
0.0710558
0.284583
0.522137
0.532211
0.586453
0.148955
0.373866
0.863443
0.863424
0.863443
0.781542
0.862846
0.316189
0.815407
0.202095
0.754917
0.812976
0.807033
0.0651757
0.80897
0.608073
0.335672
0.815407
0.373002
0.837557
0.733322
0.733216
0.903609
0.778345
0.733919
0.73339
0.906335
0.760237
0.818982
0.683921
0.863443
0.514723
0.472504
0.863137
0.860662
0.743525
0.759032
0.466657
0.651642
0.651091
0.651091
0.651117
0.925084
0.939052
0.7844
0.641427
0.344735
0.838806
0.839526
0.909697
0.911486
0.896685
0.063519
0.0387859
0.10436
0.340276
0.0630163
0.366631
0.920328
0.960694
0.972503
0.873728
0.973096
0.876489
0.969846
0.953824
0.238567
0.0648871
0.0232455
0.210522
0.0398479
0.0341567
0.00849994
0.000374619
0.00202836
0.00038058
0.00252996
0.00216708
0.00194124
0.00670504
0.00242436
7.26704e-05
0.00499474
0.000260329
0.000646301
0.00443352
0.00498071
0.000617649
0.000565718
4.20626e-05
0.000567734
0.00122414
0.000580959
0.00297266
4.27736e-05
0.00056739
0.000332398
0.000331015
0.000914047
0.000290545
4.43674e-05
4.35677e-05
4.2118e-05
0.000450555
5.3946e-05
0.176983
0.171146
0.177061
0.106805
0.017368
0.100371
0.00494821
5.1732e-08
5.90448e-08
3.83607e-07
9.1633e-08
4.06353e-07
1.75332e-07
3.70216e-08
3.8225e-09
3.81854e-09
3.40696e-09
1.89615e-08
8.04749e-09
3.81222e-09
3.13693e-09
6.01725e-10
3.20915e-10
1.68899e-09
2.32847e-08
2.30866e-08
6.23894e-05
5.87458e-05
6.20445e-05
6.70025e-05
0.000113188
0.00052489
6.2994e-05
0.000161314
1.35767e-05
0.000248432
1.36838e-05
1.35767e-05
0.000462328
0.000243942
0.00106867
0.0404218
0.000845256
0.000862416
0.00112855
0.000807269
0.000815416
0.135408
0.0577784
0.000573079
0.292789
0.223698
0.339219
0.000577015
0.000105121
2.18757e-05
0.00847317
2.84042e-05
0.000538532
2.46919e-05
0.00302674
0.024505
0.364689
0.0242765
0.365358
0.207521
0.024174
0.194358
0.126312
0.350797
0.366472
0.0613811
0.00238841
0.0228345
0.0406737
0.0992124
0.0596814
0.0709944
0.152611
0.140878
0.0405888
0.0593837
0.255229
0.20336
0.255228
8.82521e-06
1.57512e-05
5.11168e-06
7.38046e-06
4.97958e-06
4.93688e-06
4.98205e-06
3.77481e-05
5.27908e-05
2.47687e-05
2.47687e-05
2.45521e-05
2.5802e-05
3.98836e-05
3.98511e-05
3.93569e-05
2.06638e-05
1.3318e-05
4.95569e-06
4.93858e-06
7.33858e-06
1.30447e-05
2.11999e-05
5.06539e-05
4.43492e-06
8.57348e-06
4.4474e-06
4.16821e-06
8.78494e-06
5.7924e-06
4.17246e-06
4.65059e-06
6.6275e-06
2.9118e-06
1.21772e-05
3.45641e-08
4.99541e-06
0
0
3.43954e-08
3.37705e-13
1.61769e-07
6.51517e-08
-2.90031e-35
3.97622e-20
-1.6835e-81
1.41982e-11
1.98873e-20
-2.303e-32
-5.89568e-30
1.16938e-11
1.29977e-10
1.69093e-10
8.348e-11
5.41899e-10
2.54935e-10
6.83461e-11
1.29021e-08
2.71837e-08
2.84515e-08
1.9036e-08
1.64584e-10
1.39475e-09
1.53394e-08
1.05656e-08
4.07351e-09
1.12556e-09
1.13635e-07
6.49079e-09
1.13843e-09
3.19673e-08
2.54721e-08
1.11219e-09
2.01358e-13
1.74162e-13
1.74214e-13
8.56691e-14
5.80524e-13
5.14432e-13
9.45308e-13
1.91188e-13
2.12023e-14
8.4173e-13
3.32828e-14
3.30579e-15
8.75133e-13
9.82519e-11
2.10043e-10
6.65208e-11
1.39145e-13
9.85413e-12
9.60603e-12
7.554e-10
7.45793e-09
4.66848e-08
8.47912e-10
7.55729e-10
5.72458e-10
5.52217e-10
3.33402e-09
6.45682e-10
6.53476e-06
1.94629e-05
1.59086e-09
7.61845e-07
1.41632e-09
2.23773e-09
1.59527e-09
1.40901e-09
1.41633e-09
1.23876e-05
7.22393e-06
1.38243e-06
6.79807e-06
5.12375e-06
1.5181e-06
1.38696e-06
8.75088e-06
1.8951e-05
6.04146e-05
2.64527e-05
6.77676e-05
4.6444e-06
4.2713e-06
0.000466414
0.000136461
9.42394e-05
0.000466071
6.08915e-05
4.02632e-05
3.35311e-05
3.35301e-05
0.000311816
0.145943
0.00304071
0.0106577
0.018473
0.00175289
0.0241724
0.234881
0.62842
0.628439
0.62842
0.628041
0.623234
0.616453
0.611288
0.633458
0.632963
0.632964
0.633193
0.6336
0.4013
0.632971
0.157549
0.632581
0.510719
0.633236
0.606849
0.632521
0.63258
0.630629
0.444703
0.54119
0.542145
0.541189
0.41855
0.447309
0.415136
0.410589
0.426033
0.542145
0.419548
0.387057
0.386914
0.541251
0.470794
0.603568
0.412872
0.000767214
0.000766354
0.000872695
0.00142096
0.00877718
0.000767927
0.000767214
0.833262
0.838049
0.895181
0.94936
0.883017
0.882195
0.958716
0.973131
0.87731
0.950769
0.651117
0.700499
0.948323
0.604329
0.604436
0.604329
0.838578
0.604329
0.886173
0.620954
0.717642
0.604329
0.971174
0.667362
0.667236
0.667052
0.516644
0.297805
0.523899
0.667362
0.667698
0.600613
0.599921
0.60006
0.570527
0.618945
0.957589
0.956364
0.951554
0.951485
0.946218
0.947058
0.957693
0.641644
0.79074
0.718805
0.267131
0.267131
0.603648
0.270907
0.972354
0.972341
0.972354
0.972341
0.93489
0.972353
0.968557
0.0545958
0.330716
0.776478
0.867524
0.863848
0.358564
0.342936
0.299358
0.0312799
0.86167
0.671881
0.871751
0.166723
0.215874
0.138098
0.705677
0.948349
0.948304
0.948349
0.948304
0.948337
0.0127056
0.0218143
0.00842446
0.0741247
0.00845908
0.0150756
0.176347
0.000605005
0.000604619
0.00063968
0.000606408
0.000605005
0.00085367
0.00442464
0.00202358
0.00234713
0.00202358
0.00214039
0.00202586
0.00202358
0.00250162
0.000156584
0.000181438
0.000135424
0.000189223
0.00973161
0.000240776
0.000248988
0.0332761
0.0292102
0.0267176
0.288979
0.294373
0.062915
0.146229
0.0555977
0.047418
0.108526
0.749556
0.870552
0.333808
0.827717
0.668539
0.473605
0.759185
0.798322
0.92432
0.924373
0.921853
0.772381
0.609529
0.788954
0.791271
0.933601
0.885355
0.935634
0.152056
0.300012
0.155184
0.126491
0.283791
0.397871
0.805028
0.809577
0.426955
0.769793
0.928881
0.932253
0.769793
0.769793
0.907836
0.929065
0.851201
0.932383
0.932658
0.932597
0.687299
0.934329
0.932704
0.306082
0.856282
0.34749
0.291669
0.265816
0.261118
0.258939
0.269746
0.403942
0.404702
0.404702
0.323618
0.243998
0.299055
0.265881
0.859663
0.535382
0.054304
0.054304
0.176767
0.343182
0.0560585
0.342381
1.9985e-05
1.1631e-05
3.19205e-05
1.15861e-05
1.15765e-05
2.05727e-05
2.23374e-05
1.15957e-05
1.15957e-05
3.63093e-05
4.34139e-05
1.20882e-05
8.62274e-06
6.33462e-06
1.69012e-05
6.95903e-06
1.90181e-05
7.16344e-06
6.88673e-06
8.44462e-05
6.04428e-05
8.49083e-05
6.50947e-05
1.06929e-05
0.00012095
0.000103619
2.68011e-06
2.56513e-06
3.14639e-06
2.54388e-06
2.56513e-06
1.14663e-05
4.03064e-06
1.21346e-06
4.77077e-06
6.25904e-06
1.3894e-06
1.86321e-06
1.44211e-07
7.31071e-08
1.65006e-06
1.77306e-06
1.89819e-07
5.37942e-06
1.02098e-05
1.80907e-07
5.21333e-07
1.65401e-07
1.66175e-07
1.90988e-07
1.9005e-07
3.62047e-07
1.39759e-09
2.75323e-11
1.62078e-08
4.11724e-12
3.28974e-12
7.04567e-10
5.66954e-09
1.1962e-10
1.30049e-10
8.01617e-10
3.83467e-09
1.21745e-09
4.03897e-09
1.37296e-10
7.78999e-10
1.08321e-09
2.27476e-09
1.16676e-10
1.43335e-11
3.28974e-12
-4.22245e-55
6.82616e-18
6.87312e-18
3.54097e-37
2.28222e-20
6.70685e-20
2.37756e-21
-4.25799e-56
-7.50808e-58
-2.82625e-57
0
0
9.28824e-19
8.38904e-19
3.37495e-12
-2.06412e-23
1.11818e-15
-4.85057e-82
-1.54902e-82
-8.16237e-86
7.62174e-26
-3.3513e-43
2.18599e-25
1.30247e-25
4.10353e-20
3.46799e-24
2.20287e-21
9.45604e-25
1.31158e-25
1.30281e-25
4.69614e-23
-1.63796e-101
9.54504e-27
9.41102e-27
-1.17839e-101
1.44952e-27
1.98738e-27
-2.67744e-97
2.13018e-24
6.72626e-27
6.68114e-27
6.6529e-27
5.12772e-26
6.63833e-27
9.49569e-25
1.69112e-07
3.58449e-08
7.08107e-09
1.69183e-07
1.10545e-07
3.56111e-08
4.30702e-08
1.6313e-09
1.63117e-09
1.63117e-09
5.04469e-09
1.6313e-09
5.12143e-08
1.11169e-07
2.79671e-09
5.06525e-08
8.30483e-09
1.55336e-08
2.01212e-07
2.45098e-09
1.08891e-08
6.86636e-10
2.34454e-09
1.4126e-09
1.70002e-09
2.97322e-09
6.65327e-10
9.417e-10
1.05701e-09
7.95922e-10
2.90536e-09
2.86494e-09
6.97656e-10
6.77268e-10
1.42491e-09
1.52619e-09
6.69203e-10
1.18441e-10
8.72875e-10
4.98143e-10
1.14437e-10
3.79777e-10
1.15934e-10
1.24501e-10
5.50536e-05
8.42411e-06
0.000181415
6.04422e-05
0.00011576
6.17913e-05
0.000235434
8.61119e-06
7.16251e-05
0.000170169
0.000212546
5.99222e-05
6.235e-06
3.15675e-05
6.235e-06
6.235e-06
0.000172686
1.63397e-05
3.68522e-05
2.41855e-05
3.68609e-05
1.26824e-05
1.89787e-05
2.82159e-05
2.14792e-05
0.154029
0.645994
0.976199
0.975007
0.143731
0.632139
0.97626
0.753244
0.753244
0.834583
0.956902
0.956482
0.938386
0.952746
0.636533
0.636183
0.636533
0.462843
0.576475
0.57371
0.456205
0.533015
0.467064
0.614724
0.459507
0.466116
0.614724
0.614369
0.574611
0.572365
0.571247
0.262544
0.199898
0.575337
0.574611
0.622122
0.561036
0.461316
0.623058
0.623765
0.462187
0.457483
0.623747
0.575829
0.575207
0.623307
0.624033
0.624058
0.569831
0.624088
0.624091
0.624091
0.624091
0.623972
0.624084
0.565319
0.627602
0.628439
0.624664
0.571395
0.598335
0.481227
0.578856
0.527782
0.61666
0.433969
0.619433
0.629913
0.931217
0.949783
0.960849
0.897292
0.177394
0.901629
0.972617
0.556243
0.267436
0.28332
0.267436
0.267144
0.267123
0.267144
0.667546
0.57849
0.667698
0.523565
0.524541
0.523451
0.515546
0.240003
0.227074
0.226942
0.318446
0.524541
0.240878
0.920778
0.638593
0.295619
0.920778
0.920778
0.533212
0.30029
0.409155
0.606306
0.715155
0.295696
0.483681
0.290356
0.442875
0.00305697
0.00284482
0.00287081
0.0090163
0.0190858
0.00901155
0.00691433
0.000818412
0.000818412
0.000802313
0.000822539
0.00154652
0.0012258
0.000789198
0.00095352
0.000791447
0.0125816
0.00786854
0.0172783
0.0165696
0.0169608
0.0165767
0.0172372
0.00380638
0.00371403
0.00575642
0.00519352
0.00874537
0.00336027
0.00335869
0.00837475
0.00417521
0.00963407
0.00956342
0.00808521
0.0065968
0.00187979
9.31283e-05
0.000868535
0.000692501
0.000808059
0.00115546
0.000135007
1.99815e-05
0.000192217
4.64149e-05
1.99815e-05
4.672e-05
0.746402
0.769217
0.769009
0.507133
0.529425
0.507143
0.507032
0.507002
0.508196
0.643487
0.510388
0.528741
0.58508
0.670547
0.459314
0.585882
0.45442
0.583888
0.455199
0.45436
0.614356
0.726645
0.72734
0.726645
0.72734
0.553584
0.461702
0.669143
0.58894
0.649296
0.616733
0.454335
0.453876
0.554817
0.730588
0.728214
0.454975
0.534636
0.832993
0.6484
0.47272
0.460828
0.577584
0.64537
0.768181
0.454259
0.599
0.516594
0.770316
0.863019
0.932358
0.0995343
0.0451873
0.0916134
0.810867
0.494264
0.859258
0.92696
0.752963
0.812816
0.913972
0.927058
0.924497
2.69867e-05
2.86716e-05
5.31433e-05
5.58419e-05
0.000963702
3.72685e-05
0.000110998
6.27935e-05
9.20272e-05
0.000108187
5.81402e-05
2.94844e-05
0.000102766
0.000101094
5.18165e-05
0.000127953
4.01954e-05
0.000171529
2.52988e-05
0.00012764
6.09619e-05
2.15694e-07
2.15577e-07
2.15577e-07
2.15626e-07
1.15317e-06
2.16908e-07
6.1032e-07
4.368e-11
1.51909e-12
1.52527e-12
2.26154e-13
2.26154e-13
2.37654e-11
2.01729e-11
1.4508e-20
0
2.49459e-21
1.55952e-26
2.26771e-48
2.1885e-26
7.20287e-28
6.59367e-28
6.69711e-28
9.2987e-27
1.35071e-26
-5.23235e-102
1.43638e-27
-2.00022e-238
-6.05567e-238
7.98838e-311
1.49383e-42
1.28041e-42
3.90188e-42
1.51643e-41
-1.08296e-100
-2.13901e-61
2.01775e-43
-6.07291e-90
0
-3.51412e-57
5.08369e-42
0
-3.10371e-90
-1.218e-67
-2.25508e-72
-3.63249e-35
1.41638e-09
2.64165e-09
2.05515e-11
3.86008e-09
3.88691e-09
2.05515e-11
2.37808e-11
0.11291
0.692182
0.999918
0.999918
0.999923
0.986146
0.960219
0.000215297
0.00103421
0.00247525
0.000165972
0.000175173
0.000181896
0.000170585
0.000425399
0.0183739
5.66215e-05
0.000420013
0.000981169
0.14539
0.000438214
0.00769789
0.015497
0.0151982
8.37982e-06
0.00429714
0.00347609
9.00192e-06
0.0048572
0.0106347
0.000370778
0.015497
0.000797071
0.00807605
6.13158e-05
1.37326e-08
2.10594e-07
2.19448e-08
3.62324e-07
3.29577e-07
5.45796e-07
4.30687e-07
2.05034e-07
4.1438e-08
1.16149e-09
3.63822e-09
1.15288e-09
3.99239e-10
4.34519e-10
5.10289e-10
7.5412e-10
7.39293e-09
5.98164e-09
5.61013e-09
4.09858e-09
3.54567e-09
1.11505e-08
1.03683e-08
3.00775e-09
1.64146e-09
2.17484e-12
1.00492e-08
3.60655e-09
2.17484e-12
8.59133e-13
3.03756e-12
1.40196e-12
2.73404e-11
3.54471e-12
1.34672e-11
2.46466e-11
3.29829e-11
0.000198136
0.00031614
0.000296336
0.000245966
0.000219801
0.000302259
0.000140581
0.158577
0.0311574
0.125071
0.758742
0.958023
0.458694
0.269423
0.897068
0.58014
0.58014
0.938872
0.745016
0.745041
0.689164
0.864758
0.601639
0.863028
0.818093
0.839546
0.865659
0.715373
0.684918
0.684904
0.931101
0.933042
0.742699
0.921151
0.684918
0.78918
0.752921
0.734158
0.735483
0.733975
0.523151
0.667103
0.482821
0.481291
0.735483
0.731068
0.485949
0.503167
0.613301
0.60241
0.530243
0.498152
0.485042
0.488454
0.567476
0.0913099
0.450916
0.0387519
0.0454936
0.563156
0.539673
0.618076
0.512668
0.623614
0.56956
0.624067
0.624091
0.0225273
0.0225273
0.0225273
0.0225273
0.024081
0.104164
0.0555467
0.00107804
0.00113847
0.00396861
0.000981452
0.000986848
0.00197115
0.00100035
0.0595462
0.415986
0.20108
0.163894
0.163104
0.972343
0.505166
0.790909
0.694209
0.844699
0.798665
0.946223
0.943877
0.851276
0.238367
0.2902
0.297402
0.477952
0.468695
0.485927
0.379383
0.709712
0.708131
0.70557
0.551492
0.275328
0.272456
0.271282
0.196417
0.607079
0.563549
0.607079
0.607079
0.607027
0.328759
0.51001
0.551078
0.036337
0.0369419
0.0181605
0.096876
0.0817367
0.14726
0.233559
0.0272882
0.0853334
0.0273022
0.207319
0.116544
0.431784
0.164839
0.513893
0.0512505
0.0501341
0.093027
0.668263
0.6649
0.803762
0.815701
0.724586
0.836174
0.835987
0.808749
0.837538
0.794055
0.831616
0.836918
0.837558
0.836825
0.837558
0.837203
0.685274
0.598328
0.671786
0.666688
0.298444
0.104437
0.572065
0.356374
0.62804
0.640788
0.624345
0.0894301
0.446432
0.604559
0.0902614
0.52016
0.520445
0.671098
0.671098
0.671098
0.652581
0.543528
0.719082
0.870009
0.805972
0.816577
0.83869
0.873711
0.873515
6.23584e-11
8.63611e-09
8.94108e-09
1.71498e-09
1.68989e-09
1.57596e-09
6.23398e-11
1.55845e-10
1.79273e-10
2.75007e-10
5.48457e-11
5.93529e-11
3.82119e-12
3.96587e-12
2.84575e-09
1.39361e-09
1.14805e-09
1.00085e-09
5.30718e-11
1.08077e-05
2.4446e-06
1.89441e-06
0.000586725
0.000116829
3.37069e-05
2.6641e-07
0.63275
0.641513
0.996195
0.907249
0.794091
0.0792209
0.877907
8.49621e-05
5.60605e-05
5.58243e-05
1.56058e-05
6.22689e-05
5.54352e-05
5.4262e-05
7.76112e-06
8.87196e-05
7.55835e-06
4.01031e-05
7.53243e-05
7.01109e-06
3.97108e-05
1.02387e-05
7.60705e-05
1.34842e-05
0.000307101
0.00098799
0.000442447
0.00102852
0.00282773
0.000947705
0.00223496
1.11039e-06
0.000456261
0.00324288
1.78044e-07
7.46022e-07
8.43079e-05
2.98638e-06
0.00027702
0.000497436
1.15222e-07
1.13752e-07
1.1506e-07
1.13843e-07
1.18841e-07
1.13787e-07
1.15023e-07
7.10096e-07
4.0805e-07
7.10097e-07
7.10096e-07
1.75095e-07
4.7472e-07
6.29669e-07
3.27813e-14
9.21363e-17
4.73053e-14
8.82309e-17
9.20032e-17
2.10851e-14
1.05227e-14
4.2729e-12
9.21698e-13
2.32362e-12
1.18636e-12
2.09962e-15
1.15734e-16
8.34435e-15
3.88719e-10
1.29576e-11
5.48654e-09
2.15202e-10
7.84618e-12
1.2794e-11
2.96546e-11
6.5247e-06
6.58326e-06
5.85427e-07
3.27564e-07
2.76578e-07
2.12836e-07
2.61396e-07
2.29198e-07
2.21375e-06
7.74832e-08
5.87137e-08
1.04945e-07
9.84062e-08
5.87137e-08
3.76414e-07
2.08051e-07
0.488578
0.613419
0.785042
0.199981
0.549976
0.164492
0.695146
0.785872
0.581166
0.789327
0.551733
0.453767
0.333721
0.621244
0.570359
0.278041
0.572356
0.773543
0.643165
0.812088
0.581073
0.657385
0.581122
0.938872
0.69563
0.938877
0.853869
0.853951
0.832175
0.938833
0.935285
0.933062
0.854464
0.684755
0.898971
0.696564
0.779148
0.808866
0.866117
0.831401
0.866117
0.530871
0.727159
0.0136824
0.118676
0.26162
0.16082
0.237447
0.0419511
0.0142665
4.22157e-05
0.00217407
0.000521265
0.00368714
4.4972e-05
0.000524423
0.00153337
4.19063e-05
4.19063e-05
4.17734e-05
4.17826e-05
4.17714e-05
0.0248292
0.00687656
0.006895
0.0168923
0.0112135
0.0198405
0.0500291
0.00638149
0.00280049
0.00641948
0.000895548
0.000121107
0.178698
0.60282
0.197868
0.922804
0.512426
0.923151
0.777954
0.893727
0.893055
0.903295
0.803048
0.384341
0.898899
0.86881
0.479969
0.411897
0.481535
0.137235
0.138836
0.159143
0.137458
0.709712
0.464594
0.275897
0.475521
0.476833
0.474447
0.273191
0.279253
0.431366
0.294355
0.386451
0.283475
0.386445
0.271695
0.3178
0.38645
0.829606
0.826644
0.829606
0.803398
0.711578
0.723264
0.693229
0.469897
0.466945
0.82727
0.672492
0.666305
0.672746
0.392196
0.445674
0.385798
0.336732
0.33017
0.328621
0.330164
0.0289434
0.113214
0.109744
0.0273964
0.0297135
0.064826
0.0180959
0.693039
0.210408
0.306636
0.209364
0.245279
0.364985
0.370869
0.00222057
0.00225359
0.00218962
0.278207
0.930994
0.0935743
0.0694902
6.87455e-05
1.00816e-05
3.98793e-06
0.00051598
0.000215518
0.000250829
0.000783666
9.07056e-05
4.27727e-07
0.000163142
0.000354113
1.08767e-06
0.00120118
7.27142e-05
0.000194464
0.000771589
0.00120007
2.76107e-05
2.68367e-05
0.00119246
2.76107e-05
0.00253067
0.000433879
0.000375838
0.00343964
0.00246579
0.000327005
0.000343791
4.23368e-07
5.95066e-06
3.01435e-06
2.42713e-07
2.18565e-07
1.1562e-05
8.68011e-07
3.86789e-07
9.60625e-08
9.41447e-08
1.56441e-07
1.08646e-07
9.17193e-08
1.95691e-07
1.95523e-07
6.34093e-09
3.60321e-05
2.07758e-05
2.48937e-08
7.51712e-05
6.05937e-07
2.55081e-05
2.3503e-07
4.40621e-08
5.95987e-08
4.21417e-08
1.79898e-07
6.85735e-07
4.25471e-08
4.30461e-08
1.15023e-07
1.18568e-07
1.18577e-07
2.22174e-07
2.47004e-07
2.47004e-07
1.4161e-07
2.49152e-07
1.86037e-07
1.8587e-07
1.13843e-07
1.15816e-07
4.25712e-07
7.36959e-31
3.04401e-12
-6.76744e-115
6.0703e-11
5.75092e-08
1.55233e-09
0
-3.09996e-61
3.76067e-48
4.0298e-23
6.84788e-40
2.82356e-22
1.37269e-39
2.98277e-17
1.13704e-17
2.55526e-17
7.5159e-17
2.11419e-18
2.50415e-17
2.5042e-17
9.66685e-16
2.30418e-17
3.33999e-07
3.40803e-07
1.81842e-07
1.39398e-07
2.76782e-07
9.80578e-08
1.35373e-07
5.06704e-06
2.33833e-07
2.67746e-07
0.000407015
9.94224e-06
2.88995e-07
2.88995e-07
0.411192
0.411119
0.411186
0.411494
0.401102
0.244269
0.0537225
0.425193
0.400431
0.425374
0.399565
0.423847
0.16036
0.425604
0.375095
0.400648
0.220709
0.426124
0.24182
0.426124
0.122994
0.19495
0.426124
0.690036
0.677602
0.590315
0.00015772
0.00103314
0.000416007
0.000188768
0.000327155
0.000489873
0.000430765
0.000931767
0.00143599
0.000728717
0.000429323
0.000404243
0.000704294
0.000404243
0.286516
0.0386127
0.039711
0.954312
0.366241
0.0979513
0.173079
0.0185443
0.00405201
0.0118511
0.0617339
0.0688305
0.0271465
0.0198286
0.0299403
0.028428
0.028515
0.060959
0.0367309
0.0662583
0.0343451
0.00186229
0.00610749
0.00218718
0.00447899
0.00593623
0.00117819
0.000358623
0.00498705
0.00187411
0.00191193
0.000349274
0.00159542
0.0065635
0.0034331
0.00308446
0.00190949
0.00262913
0.000196327
0.00052438
0.00182858
0.00189073
0.00180018
0.00185112
0.00185112
0.00186831
0.00182858
0.0200127
0.00660418
0.0107401
0.00660312
0.00667755
0.00824527
0.00495558
0.0490221
0.0883939
0.270486
0.179029
0.045868
0.241445
0.439241
0.602517
0.55132
0.419403
0.900766
0.900741
0.900766
0.900751
0.900734
0.900741
0.90044
0.898693
0.809296
0.898672
0.89621
0.859394
0.899503
0.890971
0.890974
0.890959
0.890958
0.890981
0.872111
0.621386
0.862039
0.900739
0.861131
0.0429782
0.0506325
0.140671
0.051628
0.233008
0.0709388
0.319009
0.391094
0.374644
0.391094
0.387282
0.32217
0.324215
0.31951
0.468081
0.467156
0.467166
0.327969
0.326051
0.459022
0.336076
0.320044
0.319884
0.320044
0.434728
0.327931
0.468081
0.678352
0.547449
0.830181
0.830181
0.781696
0.77532
0.784174
0.0250279
0.187222
0.0569953
0.592339
0.325729
0.833436
0.478223
0.830022
0.579651
1.48754e-06
6.02668e-08
5.10979e-06
4.89891e-06
1.17751e-06
6.14848e-08
6.40533e-08
5.71791e-08
5.43268e-08
7.19012e-08
9.51323e-08
5.31675e-08
4.31285e-09
4.71533e-09
2.25869e-09
9.88343e-10
2.33687e-09
2.22097e-09
1.3511e-09
3.7502e-10
8.07191e-10
6.11978e-16
1.53438e-16
7.93598e-21
1.62318e-18
1.79073e-18
2.89601e-18
9.134e-19
2.40971e-18
1.43351e-18
1.44825e-18
6.29999e-19
-3.01847e-85
1.05716e-18
5.59376e-22
5.5606e-19
1.66293e-19
-6.03335e-85
9.29801e-22
1.61449e-19
1.35011e-20
-1.95109e-144
7.15971e-21
0
-1.38751e-213
4.17184e-196
7.40295e-20
4.06203e-22
1.8962e-19
1.08476e-18
1.20533e-26
1.26792e-18
4.45544e-19
1.32174e-26
-9.70938e-98
5.75775e-19
2.39366e-19
3.65678e-24
0
3.792e-13
8.26925e-12
2.82928e-12
0
2.50404e-12
1.09071e-12
8.81852e-16
9.99651e-07
1.87582e-06
6.94707e-07
1.43094e-06
3.07712e-07
3.03497e-07
3.2027e-07
0.194337
0.180266
0.194341
0.179892
0.0466616
0.077086
0.353139
0.352945
0.3525
1.45608e-05
0.0861005
0.353139
0.298803
0.256827
0.24881
0.411532
0.411494
4.86018e-07
3.95158e-07
9.41562e-07
8.31012e-06
3.30224e-06
4.55504e-07
1.27932e-06
1.40196e-06
7.53774e-07
8.05735e-07
7.33737e-07
7.17359e-07
1.46313e-06
1.31307e-05
9.82753e-05
8.69015e-05
6.97717e-06
6.00613e-06
1.39265e-05
2.94607e-05
6.80873e-05
0.000301252
0.000296673
0.000846987
0.000851543
0.000647912
0.000852519
0.000852398
0.000152678
0.000161004
0.000152678
0.000152678
0.000152678
0.000431319
0.000256867
0.000111921
0.000119663
7.59746e-06
9.60085e-05
0.000280966
7.5723e-06
7.41905e-06
0.00047915
0.00319417
0.000480847
0.000493336
0.00042265
0.000488335
0.000514286
0.000381403
8.02015e-06
9.9969e-05
0.000140342
0.000139292
0.000211392
0.000133796
0.000355863
3.35038e-05
3.94899e-05
3.79519e-05
3.35038e-05
4.29267e-05
4.35087e-05
3.35354e-05
3.35354e-05
3.62242e-05
0.000460405
0.000454443
0.000222536
0.000372636
0.00021085
0.0176526
0.0148954
0.00170308
0.00054599
0.0135243
0.00107972
0.000390567
0.00252109
0.000130122
0.000162762
0.000124397
0.000486171
0.00129381
0.00068602
0.000621555
0.0303627
0.0277827
0.00542492
0.03904
0.00532389
0.0186058
0.00641168
0.00188171
0.00275461
0.00210907
0.00178447
0.000848679
0.00518568
0.00172425
0.00285588
0.00622303
0.00691084
0.0248867
0.0062199
0.00928492
0.00307698
0.00857308
0.00477728
0.00394399
0.0106124
0.00911694
0.00979965
0.0122706
0.00474753
0.00716238
0.00465651
0.00418209
0.00418209
0.00424567
0.00567851
0.306774
0.545806
0.793222
0.731552
0.468371
0.80579
0.257132
0.890971
0.890888
0.88659
0.878039
0.878041
0.878041
0.863772
0.880062
0.878073
0.878036
0.884831
0.884832
0.884832
0.884832
0.880489
0.567971
0.878024
0.878041
0.854438
0.737469
0.737469
0.737469
0.557138
0.737876
0.737229
0.737389
0.410495
0.173768
0.181386
0.682751
0.875
0.560251
0.877043
0.559537
0.06667
0.06667
0.127148
0.181561
0.359248
0.489386
0.152262
0.196961