/*--------------------------------*- C++ -*----------------------------------*\
| =========                 |                                                 |
| \\      /  F ield         | OpenFOAM: The Open Source CFD Toolbox           |
|  \\    /   O peration     | Version:  v2012                                 |
|   \\  /    A nd           | Website:  www.openfoam.com                      |
|    \\/     M anipulation  |                                                 |
\*---------------------------------------------------------------------------*/
FoamFile
{
    version     2.0;
    format      ascii;
    class       volScalarField;
    location    "0.5";
    object      p_rgh;
}
// * * * * * * * * * * * * * * * * * * * * * * * * * * * * * * * * * * * * * //

dimensions      [1 -1 -2 0 0 0 0];


internalField   nonuniform List<scalar> 
6576
(
2750.97
2726.92
2734.01
2740.1
2755.78
2763.21
2738.36
2741.91
2758.35
2748.81
2788.71
2773.06
2761.36
2770.63
2738.39
2744.68
2711.42
2737.55
2740.14
2785.48
2720.76
2777.7
2781.13
2734.46
2766.69
2796.16
2846.42
2760
2722.75
2725.74
2746.15
2705.88
2744.31
2766.05
2757.53
2780.54
2755.51
2782.84
2739.96
2762.79
2727.68
2720.18
2746.99
1484.58
1138.34
1851.83
1288.86
1388.4
1808.55
1828.27
1506.59
1630.68
-0.276269
-0.323487
-0.0767139
-0.820168
-2.7299
-3.98989
-1.10871
-0.0350804
-0.237387
-0.149361
-0.251479
-0.22651
-0.251223
-0.201662
0.042755
-0.00299602
-0.145165
-0.256478
-0.152403
-0.331357
-0.189447
13.1053
13.2897
13.2727
13.3388
13.3314
12.6456
13.18
17.6587
24.4413
22.9859
16.833
21.1929
24.6302
21.9095
103.157
88.8751
74.2164
101.757
227.994
136.581
305.574
952.903
884.498
978.659
763.559
826.825
969.077
960.952
1145.82
1248.56
1187.79
1157.63
1156.39
1120.2
1135.6
1761.59
1744.31
1774.75
1695.91
1793.07
2036.93
-1.68752
-0.0614626
0.1404
0.464338
0.507265
0.32309
-0.635805
793.557
2338.39
2487.8
2513.6
2388.53
2771.06
2748.55
0.503953
-0.373582
-0.151521
-1.15667
-0.485039
-1.61047
-1.00416
7.94252
13.3144
5.55397
11.951
9.49858
14.1922
7.61357
2.87577
2.53612
2.51188
0.749532
2.22163
2.93388
1.96301
2.54545
2.41337
2.45811
2.93156
1.9829
1.99455
2.27646
2.98312
2.83214
2.94185
3.02847
2.835
2.84212
2.68022
2.81236
2.88358
2.54568
2.36209
2.48486
2.76482
2.67949
2.50579
2.64257
2.39502
2.25997
2.47219
2.52331
2.40845
2.60267
2.52227
2.50101
2.57693
0.924494
0.772302
0.819248
0.962108
0.686219
0.867027
1.06511
1.04671
0.481859
0.659518
0.701805
0.667992
0.751617
0.737814
0.707322
0.684013
0.102185
0.523764
0.246236
0.255207
0.111576
0.430349
0.395638
0.995783
0.770493
0.579487
0.347927
0.602758
0.558797
0.485452
-0.105363
-0.223226
-0.645389
0.743102
-0.16678
-0.320751
-0.330446
0.399064
0.380365
0.425629
0.447665
0.37546
0.403762
0.471103
0.524456
0.487432
0.587032
0.544283
0.583901
0.682369
0.606216
0.861671
1.004
0.913818
0.811495
0.806918
0.945813
0.899851
1.3216
1.29392
1.55411
1.24385
1.10798
1.34627
1.1943
1.94762
2.21897
2.05126
1.69412
1.86972
1.77637
1.95885
2.12515
1.95914
2.60425
2.55092
2.59595
2.70028
2.5486
2.64172
2.53501
1118.94
1554.44
1351.72
1403.53
1714.73
1842.79
1811.88
830.77
730.664
553.407
1144.71
595.39
515.429
1438.38
468.013
1414.08
1233.71
1220.02
1131.12
1005.13
774.337
900.403
431.265
136.517
221.774
330.447
168.132
427.21
217.788
39.8815
203.144
169.383
1190.8
1208.02
1133.64
332.234
298.78
220.361
360.782
277.475
196.353
303.117
10.8292
21.2725
12.9165
10.6076
9.32076
233.109
40.33
612.648
90.7078
4.34386
278.299
19.8962
5.48572
5.27859
5.00189
5.20501
-7.22154
5.20554
-10.1095
22.5394
10.9585
36.2581
11.1256
-255.682
-261.55
-243.716
-262.612
-261.913
-260.699
-260.84
-185.928
-225.005
-249.125
-189.272
-227.404
-152.067
-230.189
-206.522
-160.458
-220.847
-252.587
-109.572
-215.87
-255.506
-50.2225
-3.01431
-145.867
-168.493
54.1598
430.089
-31.9737
74.1761
185.246
-26.1405
117.61
1417.56
1039.71
1108.35
1125.91
846.352
176.654
703.83
1142.08
1788.9
-222.906
-220.456
-189.493
-235.057
-217.008
-239.089
-236.075
-254.434
-261.197
-248.423
-255.052
-237.168
-261.048
-252.792
-24.751
-25.4023
-24.806
-25.5852
-25.5984
-25.4078
-25.25
-23.306
-24.3574
-18.6394
-20.6377
-12.4169
-15.991
-14.8718
-15.5277
-20.7972
0.174279
-17.8671
-15.0278
-1.06725
45.4072
-15.3798
1.24648
-15.4462
-0.812369
19.3672
101.769
457.137
86.1413
23.5176
22.6971
26.8567
1510.72
1512.65
1523.36
1443.23
1461.44
1469.41
1532.51
0.366942
0.651572
0.280367
0.547899
-0.363785
0.539773
0.0796356
-1.58112
-1.47283
-1.7297
-1.50197
-1.3825
-1.96822
-1.57087
-1.62008
-1.99313
-1.67292
-1.8174
-1.82121
-2.2616
-2.44717
-0.842434
-0.898246
-2.02171
-1.71619
-0.915476
-2.48029
-3.07967
-1.9821
-2.45924
2.23677
2.01272
2.64274
3.0781
2.13506
2.52899
1.99068
664.941
654.38
654.898
521.112
613.709
520.466
647.155
235.784
90.6597
364.744
660.243
640.878
632.183
661.994
764.019
75.6215
105.628
770.551
768.058
254.817
798.604
494.264
326.91
513.52
101.765
263.791
108.998
67.3931
396.04
818.223
146.379
237.796
244.943
675.845
-1.81271
-3.0087
-2.36537
1.69257
0.243163
-0.813728
-1.73049
5.93357
1.92869
6.7017
1.74013
0.858096
-1.04013
4.40851
-3.6353
0.813025
-3.63975
0.190943
0.0764825
-0.249202
0.0911981
0.162184
0.00601099
0.33103
0.230887
-0.231641
0.0161927
-0.072124
0.0753051
0.099765
0.203193
0.222457
0.420518
0.213827
-0.425606
0.0577077
0.386207
-0.0197571
-0.0965177
0.371925
0.0595729
-0.186732
-1.07941
-1.49696
-1.34
-0.825691
-0.844087
-0.916971
-0.953342
-1.28443
-1.17803
-0.624803
-0.532868
-0.539419
-0.359998
-0.485102
-0.37039
-0.488629
-0.0127472
-0.181338
-0.268845
0.0393851
0.0314615
-0.0968449
-0.129303
0.265373
0.252589
-0.0328679
0.413907
0.209344
0.079228
0.304285
1.96474
2.20138
2.03698
1.69209
1.85648
1.98613
2.13131
1.90807
1.85278
1.66776
1.97086
1.842
2.37195
2.48054
2.45219
2.24141
2.50804
2.49086
2.27924
2.91846
3.26239
4.71488
2.35356
4.03623
2.76353
2.0245
4.03618
4.05194
4.13857
3.94773
4.05226
4.03125
3.98794
4.14582
4.14152
4.11047
4.29604
3.97973
4.21056
4.02376
4.08997
4.18697
15.005
39.5355
5.66284
26.1671
6.61657
7.69308
4.69024
937.322
964.75
924.234
1045.47
1062.51
1000.9
985.397
538.866
790.722
838.205
-69.9087
707.747
479.773
852.653
-224.646
-253.458
-203.081
-252.089
-229.679
-218.54
-243.879
-225.487
-250.5
-230.534
-242.104
-267.172
-250.614
-252.389
-222.999
-140.614
3.49116
117.629
-19.1005
44.1968
-169.394
72.3655
-182.815
87.4632
118.027
46.5638
-22.0368
-64.8899
18.1875
-92.4342
195.917
83.8637
-61.8759
-100.009
-87.6177
19.7766
-26.6752
-68.6609
7.62796
-75.8971
-45.1065
-16.9195
27.517
81.5941
110.139
-14.7834
71.8278
-26.2003
96.3727
-4.57759
108.606
-105.43
-90.4515
-39.9379
385.159
398.24
426.258
211.188
88.3516
-146.425
-123.877
-123.168
38.1511
-29.0097
121.971
-82.7946
274.849
376.897
261.763
237.813
261.253
206.98
277.881
270.928
-193.156
-204.882
-194.305
-171.534
-193.897
-238.062
-219.171
-47.3496
-194.757
-146.346
-194.051
-178.49
373.099
18.9054
103.472
458.936
-244.537
-84.3242
418.563
373.107
283.23
1017.52
-214.553
-126.181
-323.854
-87.4087
-517.062
-66.0482
-248.793
-18.3967
75.283
-70.0115
-56.9799
42.3672
-178.779
-205.392
-294.887
-230.353
28.065
175.303
-5.24585
1057.07
337.891
1110.81
395.089
387.09
610.544
906.924
244.862
405.121
-336.647
184.69
-60.0854
-56.3026
-53.6721
-450.855
-499.065
-372.302
138.227
-123.078
846.219
604.11
803.411
884.777
820.914
919.121
887.53
-536.671
6.25214
261.816
459.314
292.638
570.827
313.334
-168.828
-175.485
-209.965
-98.0568
-200.396
-186.324
-49.6829
428.994
612.048
710.203
778.661
875.361
567.412
439.781
91.4044
9.42652
-6.79165
64.7096
-2.29633
-8.0867
-16.3059
-20.2074
-19.6447
-20.0204
-19.5728
-20.5233
-20.3601
-18.5134
-19.2737
-21.1108
-17.5975
-20.6476
-20.1841
-18.0444
-17.89
-21.6259
-21.1418
-21.6271
-21.045
-20.1739
-21.3496
-19.587
-21.6823
-21.5494
-24.0751
-23.5437
-22.7111
-22.2539
-23.0701
-22.5807
-23.3241
-23.0173
-23.901
86.5579
115.813
126.741
48.0207
-19.2933
63.8441
-26.2744
1.90126
1.73663
2.05428
2.39092
1.77894
1.19704
1.87405
2.26471
2.21468
2.73217
2.4043
2.44551
2.72279
2.58288
2.81429
2.78478
2.85253
2.95086
3.00748
1.0043
0.730929
-0.00708218
0.773615
-0.316908
0.911713
0.364565
0.11045
0.356586
1.61626
-0.316418
0.123723
1.30128
-0.0616012
4.51234
84.4688
0.295345
1.38842
1.65244
1.31903
0.7974
306.781
124.631
-2.85482
668.381
508.709
746.707
-3.94901
-2.56903
-2.90282
16.9692
-3.70555
-2.59077
-2.32637
4.82082
64.1055
886.533
65.7725
878.943
487.279
52.4675
461.927
302.649
819.207
879.58
151.456
7.36379
51.3375
106.208
254.48
152.464
177.857
373.007
353.235
104.151
148.257
661.047
524.339
679.945
1.84006
1.21157
1.17883
0.489528
0.659068
1.23271
1.61629
0.391241
0.328926
0.428876
1.11144
0.494884
0.611875
1.08286
-0.419059
-0.178206
0.0308905
-0.718242
-0.667915
-0.501697
-0.365151
0.109253
0.0731986
0.254227
-1.08561
-0.726142
-1.2835
-0.48508
-0.636133
-0.869803
-0.663999
-0.116559
-0.128613
-0.0724276
-0.147201
-0.177607
-0.126015
-0.15277
-0.0393166
-0.156131
-0.111755
-0.153949
-0.18522
-0.054066
-0.0495554
-0.0196503
-0.0909781
-0.101252
-0.0722948
-0.0697508
-0.0376151
-0.0662051
-0.03969
-0.00949776
-0.0506672
-0.050545
-0.00532806
-0.211916
-0.195291
-0.114286
-0.0777076
-0.122207
-0.219619
-0.173785
-0.125767
-0.12277
0.393808
0.331062
0.436747
0.17842
0.136951
0.231083
0.235444
0.864531
0.804654
0.815266
0.725446
0.705933
0.77633
0.741304
0.800051
1.0419
1.19064
0.607043
0.365605
0.165187
0.640068
1.11642
0.133997
-0.360375
-0.615326
-0.400168
0.375403
1.71062
1.59137
1.0444
1.16567
1.02234
1.39817
1.62417
0.979709
5.49342
5.24176
5.18523
5.37142
5.1715
5.13883
5.09249
5.1194
5.17792
4.45328
4.23725
3.93614
4.3559
4.59833
4.36833
4.16851
4.8153
4.40526
4.65599
4.66323
4.77229
5.01715
4.70358
6.76207
6.32306
6.1337
6.47898
6.20717
5.47785
6.09748
6.10618
5.9967
205.726
9.04176
13.3322
34.4271
9.00521
39.6166
342.174
341.791
317.72
425.588
388.225
326.885
658.856
449.496
372.517
311.912
383.577
320.368
411.94
117.907
360.192
-100.528
376.253
329.488
311.832
313.628
375.091
358.485
425.925
195.238
113.351
178.167
131.714
69.2323
228.476
32.1323
117.096
11.7184
256.129
76.3943
-143.293
3.80047
-14.5732
205.236
19.5823
69.5468
-261.724
-262.199
-261.514
-260.933
-256.947
-261.538
-261.984
-135.398
706.412
375.122
735.72
766.424
417.432
746.414
852.829
868.475
869.617
818.484
459.572
733.747
881.045
937.039
916.729
881.138
815.65
785.474
761.15
868.508
898.433
926.858
456.687
650.798
502.78
518.338
427.102
490.985
479.163
753.316
718.925
763.56
752.569
788.787
693.055
612.581
765.467
806.879
834.495
966.841
826.732
736.265
560.631
300.815
399.672
243.928
310.178
243.364
396.542
426.056
405.605
404.137
378.666
413.482
393.618
396.599
15.2177
117.999
302.185
349.984
338.61
138.451
129.792
66.0223
-128.092
481.722
366.798
498.684
-39.7787
23.4106
136.219
380.761
888.545
796.205
824.216
896.914
704.67
15.0365
24.427
5.70476
66.8246
7.79344
16.6612
170.802
11.6656
13.3202
12.8865
11.2683
12.363
12.2843
15.9578
14.4896
14.7171
14.6878
14.8561
14.9922
14.5727
15.0893
5.48092
4.42464
3.55868
2.72762
28.1386
4.43353
1.84035
76.723
54.4848
49.0687
569.751
559.941
118.8
283.774
109.512
96.1768
245.026
1471.74
1681.34
658.916
1640.25
1356.27
978.302
1487.18
1570.74
1828.7
1856.69
1854.54
1663.5
1297.75
1559.53
1684.13
1940.87
1885.2
1942.09
321.598
630.564
352.108
266.3
604.164
828.953
1703.85
1683.23
879.851
1645.16
2067.65
1971.27
1645.64
1706.78
1992.08
1986.52
1849.32
1974.57
2043.19
1983.47
1556.14
1952.87
2006.39
670.502
1892.56
789.853
696.56
685.571
748.438
565.54
614.395
904.248
922.861
1052.79
714.116
623.114
684.091
671.614
1955.37
1214.35
131.998
169.773
406.063
798.674
125.567
786.857
-0.549444
-1.25204
-1.56062
-2.24141
-1.33079
-2.54855
-1.47291
-1.28977
-1.20645
-0.690617
-1.33726
-2.53735
1.02325
0.439648
0.258669
0.99792
-0.141181
0.712297
1.74016
-1.06606
-2.24661
-0.907345
-1.44536
-1.26607
-1.3991
-1.5624
-1.50449
-1.66584
-0.824964
-3.07469
-2.28283
-0.982737
-1.92725
-1.06669
-1.27994
-0.908804
-0.880113
-1.0792
-0.393674
-0.485505
-0.548439
-0.45658
-0.528341
-0.576021
-0.590954
-0.64079
-0.734487
-0.545887
-0.469683
-0.387237
-0.593913
-0.509575
-0.399547
-0.279421
-0.27971
-0.320026
-0.230834
-0.282763
-0.299701
-0.0998235
-0.144489
-0.0956372
-0.0693689
-0.0315359
-0.0609342
-0.0889815
-0.0627013
-0.0603007
-0.0973162
-0.0678168
-0.0127891
-0.0888156
-0.00680323
0.0244132
0.0235127
0.0243575
0.0320048
0.0331802
0.017762
0.0178566
-0.000385668
0.00428379
0.0245124
0.0246983
0.0333161
0.0371348
0.0139472
0.0170945
0.0162589
0.0238635
0.0188684
0.00692145
0.0455087
0.0446103
0.0434201
0.0397923
0.0482205
0.0812333
0.0632065
0.0980089
0.063926
0.0518721
0.072169
0.0309319
0.0600462
0.0554512
0.0302352
0.053725
0.070263
0.0489259
0.172577
0.139057
0.18855
0.158424
0.205242
0.144978
0.181271
4.70143
5.07874
4.70981
4.45669
4.62007
5.07346
4.82454
4.69996
4.99783
4.933
4.82121
5.49504
4.66316
5.04105
3.83708
3.11761
3.04645
3.05934
2.60894
3.34523
2.67559
4.68486
4.42777
4.63876
4.23526
4.17324
4.40886
4.30239
4.55283
4.61887
4.83771
4.90695
4.82578
4.81309
4.8901
4.94653
4.84976
4.91193
4.90419
4.80756
4.94976
4.91025
4.96882
4.85775
4.92098
4.93427
5.38511
5.13266
5.42479
5.27152
5.68632
4.92863
5.03442
5.46842
5.75853
5.2164
5.10129
5.05575
5.037
5.12314
5.60231
5.10675
4.80151
4.80287
4.67187
4.7824
4.96673
4.90827
4.85504
253.801
1060.01
1590.77
1620.76
245.835
1052.68
1610.67
1306.86
1320.67
1441.01
1631.45
1641.25
1608.73
1622.97
1017.25
750.071
767.651
673.97
956.777
791.026
614.918
1021.18
693.667
1003.26
907.333
981.569
1090.99
1102.37
742.73
879.539
624.057
107.914
73.9669
576.068
606.735
380.05
414.696
143.479
460.688
485.445
317.815
255.494
540.108
418.83
576.969
952.363
748.21
591.614
611.761
629.779
594.686
645.491
578.953
461.308
591.642
389.088
288.373
275.993
309.365
279.576
256.463
231.481
388.309
262.814
405.046
107.886
374.468
458.477
336.492
285.522
554.407
253.029
-34.7284
225.42
363.209
539.904
499.986
597.276
401.231
338.986
367.087
415.38
492.684
556.248
734.844
394.906
318.322
363.061
296.923
274.022
302.989
366.221
470.337
279.778
266.154
643.096
527.444
490.616
678.593
843.458
616.544
520.162
351.458
259.558
383.847
444.317
293.814
214.559
289.892
23.2081
23.1049
22.758
25.982
34.9726
26.8166
25.2404
23.6989
25.3768
23.2412
24.1077
24.6031
21.4139
21.7421
21.6197
21.7773
36.6019
28.5379
43.9635
49.7512
41.6078
54.7337
43.1375
23.2332
22.0327
24.0068
26.2619
27.7895
21.1045
18.4768
24.7848
23.0739
23.5814
21.7252
19.9338
20.0214
14.5644
12.2284
13.0931
12.9823
13.4428
13.126
12.0136
11.9377
11.9552
11.789
11.8046
11.8906
1193.6
1244.08
1178.75
753.72
782.142
685.411
699.25
659.8
790.557
951.195
752.434
697.323
883.72
976.957
1102.15
1176.86
922.821
1043.33
994.886
893.451
1167.37
1645.68
1501.34
1542.05
1572.4
1257.35
1055.05
1561.28
972.795
1298.3
1120.96
875.496
966.749
1311.04
1511.23
1550.45
1105.99
1304.46
1665.5
1096.49
870.855
744.432
1082.72
1534.52
1684.63
1117.15
1315.09
1248.58
1716.55
1969.79
2017.55
220.571
94.5859
183.372
1691.3
1022.98
1667.85
1801.56
1475.72
1622.59
1762.57
1834.25
1807.59
-1.43542
-0.814085
-1.49602
-1.27611
0.393518
-0.744347
-1.14454
0.204052
0.444235
-0.113919
0.30703
-0.0552647
0.0164607
-0.245236
-1.86124
0.296164
-0.17195
-0.549609
-0.861033
0.00467879
-0.913881
-1.46646
-0.889439
-0.68944
-1.28745
-1.04964
-0.282616
-0.421963
0.234368
0.306023
0.354573
0.359217
0.297782
0.31012
0.396874
0.0310155
0.0456058
0.0554343
0.0551817
0.0296912
0.0644361
0.0848948
0.0578056
0.0791269
0.11632
0.0464894
0.0140163
0.0684268
0.0277705
0.0302382
0.00788407
0.0502656
0.0559401
0.0461174
0.0409689
0.0475551
0.0573104
0.0709602
0.0457975
-0.154419
0.116187
0.0639003
0.0526898
0.15566
-0.568486
0.0101436
-0.0724406
-0.722107
-0.518023
-0.69752
-0.430566
0.844868
-1.26778
-0.819678
311.938
1763.7
2756.1
2754.44
2746.49
2654.64
2668.45
8.92931
9.2718
13.1103
11.6332
6.78842
6.2628
15.8494
7.61997
49.0521
4.27976
7.43708
6.21367
394.458
7.33956
22.8405
44.9877
45.4847
0.180593
11.6774
11.2095
0.445696
20.9371
38.7797
9.53632
49.927
10.4859
30.9279
8.66383
2.77936
2.36635
2.25095
2.32907
1.95594
1.77506
2.1182
0.397313
0.792602
0.968927
1.58955
1.344
0.53344
0.815428
1.21047
0.762686
4.21455
3.78399
3.92231
3.55323
3.42511
3.52359
3.80505
3.7746
4.28741
3.89491
4.14515
4.45132
3.91756
4.06307
4.70676
4.74149
4.88007
4.7482
4.80115
4.89986
5.2267
5.58319
5.90726
5.8869
5.56548
5.60215
5.85252
5.49942
281.201
60.8074
227.569
1325.93
1632.2
799.356
476.492
1626.14
1115.75
1097.19
1682.02
1346.52
1356.81
1256.19
1498.06
1205.8
1542.56
1455.78
1546.17
1537.95
1307.96
1323.9
1325.19
1696.63
1686.18
1448.08
1662.52
1307.54
1447.8
1438.36
1438.27
1281.66
1296.48
1037.1
1292.09
1049.59
923.469
1375.07
1521.67
1036.5
772.293
980.274
928.01
1057.44
818.763
1035.14
852.005
586.426
-62.0717
550.662
-198.901
-195.366
481.747
440.176
1102.44
865.083
946.686
414.723
563.786
503.887
-237.27
-235.754
-238.093
-233.809
-224.956
-135.761
-199.249
-19.9514
-20.2026
-18.1812
-19.9134
-19.5676
-19.0254
-18.6523
14.0819
130.597
71.1081
68.899
59.5596
345.88
174.257
322.667
-17.5669
-76.8773
107.217
135.813
-78.5647
-16.4662
248.697
201.405
242.653
229.599
338.748
304.141
281.234
1320.74
907.829
1237.93
1358.55
1193.35
1289.33
1271.63
420.775
539.654
333.857
592.695
429.195
534.445
237.528
514.926
563.699
-221.392
-217.131
-248.074
-132.565
-151.313
-54.7724
74.5126
-241.629
-152.475
-240.853
31.7136
-100.05
366.821
-34.1481
496.736
-208.441
-219.133
-153.235
713.649
731.212
1055.74
811.623
729.105
898.967
953.366
1350.61
1233.34
1177.68
1312.71
1224.02
1261.45
1227.67
1280.44
1655.73
1065.11
798.175
951.165
868.224
328.376
-36.8802
794.279
368.955
734.42
800.281
717.68
-135.034
474.506
739.287
-149.22
663.518
638.188
846.683
834.741
830.496
817.277
666.486
1060.27
1349.85
1134.13
1280.74
1242.13
1398.09
1303.68
3.4654
3.68047
3.48639
3.84122
3.65849
3.56778
3.6009
2.82928
1.4711
1.95563
1.38
1.15285
1.98109
1.78473
1.04831
1.09811
0.830163
1.86915
1.72994
2.00722
0.961232
1.27524
1.86124
2.81733
1.88503
1.99802
1623.95
1550.69
2461.08
2304.62
1978.66
200.616
2181.61
5.51075
6.20304
6.27464
5.60338
4.93241
4.53514
5.76316
6.09622
6.44961
5.75627
7.57228
5.9267
5.62446
6.44108
0.45946
0.865913
0.936908
-0.964863
1.15059
-0.0159916
0.831558
6.77377
0.44427
5.4263
-1.93119
-0.520423
7.33782
0.297413
-0.390968
-0.0424686
-0.0327106
-0.107475
-0.346885
0.432189
-0.0328351
-0.1193
0.176402
-0.113411
0.150455
0.0683569
-0.646511
-0.801221
-0.623972
-0.432405
-0.651125
-0.77512
-0.717169
3.61062
3.25781
3.30114
3.3223
3.21863
3.45448
3.58622
3.84783
3.83877
3.87725
3.82691
3.75555
3.81978
3.95672
4.17888
4.39432
4.50826
4.20234
4.17881
4.32877
4.36663
4.59081
4.64089
4.53608
4.43844
4.40974
4.48246
4.45888
4.56841
4.56064
4.53307
4.61488
4.68199
4.56366
4.61731
4.68979
4.75537
928.667
1129.92
1481.08
371.407
1041.34
308.525
1297.61
1480.33
1141.81
1463.36
1053.64
871.096
656.106
1180.64
1087.96
537.436
1085.91
1440.27
1236.72
1504.48
1137.27
1281.47
1139.32
1701.91
1327.16
1719.64
1509.81
1534.96
1545.49
1696.31
1716.6
1661.46
1534.57
1257.61
1675.86
1432.77
1341.58
1482.14
1508.33
1501.43
1547.74
1094.18
1401.69
-238.392
-113.721
94.381
-35.9108
50.8875
-188.355
-231.547
-23.615
-21.6635
-23.8421
-20.3533
-22.3951
-20.6157
-20.2568
-21.5995
-21.7029
-22.2599
-21.6463
-21.1535
-9.85818
-18.0776
-16.7618
-10.7177
-13.2518
-8.63584
10.065
-17.6214
-19.7844
-17.1106
-21.589
-22.2459
78.3275
282.036
97.6148
427.881
272.91
439.142
363.74
378.211
408.267
364.601
328.905
149.397
393.931
355.588
243.194
314.657
380.921
243.311
294.203
278.005
260.669
1300.42
715.854
1099.17
1969.93
1643.75
1917.36
1454.38
1135.29
1576.83
1639.09
1308.17
1308.02
1530.92
1428.44
1173.67
1422.14
2097.08
1890.06
1940.72
1417.4
1917.56
1257.07
1753.96
2042.12
2229.36
2068.31
525.343
676.24
710.33
328.258
482.145
165.146
157.207
31.6984
98.6187
256.379
-244.232
-131.361
-130.67
-246.995
-242.4
-190.878
-261.835
835.33
242.551
326.71
267.778
293.838
415.878
448.429
11.1319
12.0924
11.6798
362.933
1209.23
131.527
100.538
0.697757
1.42351
3.41071
-0.547806
0.910788
2.67987
0.620237
-2.03324
0.774984
0.182571
-0.430532
1.75095
2.72489
2.23546
3.12422
3.77184
2.13664
3.50911
0.185613
-1.3388
1.60494
6.2191
3.29079
1.56943
4.47737
5.26239
1.85984
1.58741
4.97749
5.25469
5.53911
5.19177
5.31157
5.19941
4.90996
4.82479
4.64261
4.55286
4.5721
4.21823
3.85302
4.2601
4.14586
3.64192
4.44079
4.02391
3.4895
5.45487
4.79871
4.81361
4.23338
-0.0419452
-0.0177592
0.688633
-0.231244
0.100831
0.447045
-0.0168582
0.0770802
0.0426163
0.238559
-0.196233
-0.304888
-0.43969
-0.23097
-0.475094
0.00196531
-0.465823
0.1091
-0.116145
-0.425616
-0.023226
-0.0971168
0.167219
-0.118
0.106789
-0.150621
-0.00700166
0.0566351
0.102089
0.215252
0.165756
0.197665
0.159548
1.08508
1.28112
1.32392
1.11682
1.37847
1.67581
1.2967
1.569
1.23095
3.91467
3.73211
3.68893
3.91829
3.55798
3.65228
3.91429
4.55296
4.58146
4.47649
5.5038
4.55003
4.93161
4.15222
886.556
908.247
909.495
899.213
876.154
557.155
130.412
891.567
834.996
895.407
815.324
875.533
332.608
849.941
796.378
837.868
466.549
840.392
463.639
832.697
242.465
384.925
843.491
1291.92
1286.82
1144.34
5.34933
7.56819
5.68521
5.2974
5.72034
6.01564
5.45915
7.49935
8.35452
7.84132
7.25342
7.2275
7.92403
7.5851
320.943
53.2796
54.8638
1153.94
461.802
135.671
213.439
27.6206
10.807
21.7046
74.5366
82.5869
35.4977
26.6351
20.9887
30.4774
29.3793
64.9324
44.0072
65.79
36.8728
-24.5841
-20.0845
-23.9909
-22.0292
-18.6444
-24.9097
-25.8021
-21.9244
-24.5606
-25.0768
-25.9692
-25.7446
-21.3898
-23.8199
-23.8367
-24.0604
-23.1301
-25.4102
-24.8697
-27.7921
-27.4387
-26.6387
-30.9886
-31.7976
-29.5372
-28.3289
-11.376
-19.9217
-18.0904
-18.7564
-20.0196
-18.974
-21.2129
-6.63913
33.0359
143.8
81.1504
-2.35962
127.953
246.249
1826.61
1843.05
2072.6
465.412
458.978
630.839
230.469
442.189
255.111
397.341
857.178
1151.15
1392.58
851.759
885.158
285.166
408.506
511.345
437.934
224.488
428.893
176.061
401.873
238.547
263.086
371.859
-365.129
-349.168
-256.226
-346.921
-168.631
-329.482
-79.768
75.8872
111.225
123.807
100.812
-7.19319
135.816
35.2523
218.221
165.785
267.402
137.399
22.9917
343.587
76.8396
3.20224
-7.17405
153.445
341.26
118.853
343.762
538.915
261.927
667.639
672.218
633.414
528.044
648.935
-351.943
-170.852
-255.336
336.687
92.188
660.613
241.385
637.853
323.513
5.59394
5.67886
5.64568
5.54719
5.67228
5.64272
5.69133
5.63096
5.25797
5.26645
5.37767
5.11247
5.21488
5.05293
1.45074
1.63773
1.45597
1.65276
0.9451
1.25725
1.7103
0.158759
0.196765
0.0448386
0.853893
1.10142
0.81393
0.802333
1.01789
1.17775
0.922154
0.276179
0.136273
0.312754
0.326662
0.526981
0.281393
0.187079
0.280702
0.363403
0.222707
0.0544445
0.243033
0.0537338
0.0968494
0.124675
0.166017
0.194462
0.237369
0.203916
0.249539
0.229514
0.304767
0.0643096
0.0329686
0.150897
0.210047
0.153268
0.0952329
-0.00443864
0.0213523
-0.0191015
-0.0606876
-0.0200144
-0.0465685
-0.123752
1.18883
0.847096
1.01629
1.38274
1.421
1.30477
1.1042
465.656
411.715
468.124
424.546
112.25
182.146
802.788
795.231
811.13
5.23597
194.218
796.946
675.543
582.952
538.022
900.701
875.721
4.61794
4.57718
4.65853
4.65378
4.6136
4.57544
4.61648
4.69186
4.67627
4.75618
4.84654
4.75645
4.71101
4.7298
4.93369
4.93692
4.78981
4.77034
4.81286
4.80056
4.85474
5.32447
5.33842
6.39402
6.35452
5.97461
6.40694
6.38316
5.16396
5.17484
5.20106
5.32905
5.28992
5.7068
5.38771
5.15961
5.07262
4.93852
5.1165
5.35272
4.85699
4.88423
5.87182
9.82542
5.6856
5.61112
5.61839
5.98293
6.05256
5.76538
5.0956
5.37056
5.25156
5.44938
5.49617
5.25782
7.08249
6.38797
6.34562
6.4805
6.18767
5.42428
5.96215
6.31236
6.07873
5.93447
6.20401
5.98939
4.71281
5.09826
4.36824
28.1872
23.3186
6.57405
5.12301
22.3368
5.01782
6.5075
8.77891
5.63991
5.00559
5.14534
6.45702
7.32568
5.50906
5.5464
35.1022
33.2611
2.49029
38.9004
-2.09507
15.4893
0.674549
-17.0133
-18.7186
-20.8765
-21.6492
-19.4297
-16.2764
-19.1585
-18.4807
-13.705
-15.2161
4.69489
-11.7141
-12.6417
-18.7349
-22.557
-22.7916
-24.0205
-14.5813
-16.2484
-18.7897
-17.8794
-26.7587
-23.4616
-27.5265
-28.0719
-27.6584
-26.6272
-26.1267
70.7747
193.501
469.231
351.75
195.926
459.186
72.1453
297.172
371.254
311.807
350.258
77.0364
327.975
247.059
74.9939
323.83
204.243
350.371
307.01
281.289
357.838
-66.3514
249.379
-157.51
270.01
125.924
-291.924
-260.427
-170.343
-212.001
-135.655
-330.953
-449.025
-73.1729
-197.401
-171.821
-303.969
-198.919
-353.764
-76.1783
-211.884
-238.825
-262.528
-276.024
-199.07
-122.173
-142.358
-256.293
-379.163
-462.547
-483.267
-339.221
-286.526
-363.233
-390.013
96.4598
223.604
75.5803
0.952493
221.621
-288.589
40.2734
137.463
-179.847
32.7731
49.0847
25.6928
31.3617
30.2802
48.9899
33.2758
27.385
127.601
34.9645
34.2751
34.2289
34.1792
34.8773
35.1672
34.4287
38.5953
39.6163
44.3114
32.6526
32.4917
33.7947
33.6307
676.878
715.176
740.46
738.012
717.217
715.946
732.173
93.0304
49.9202
165.164
275.369
150.617
304.053
233.764
558.911
534.981
526.914
628.36
396.297
283.28
412.718
70.9541
19.6969
66.3978
-108.05
162.363
-3.02548
66.706
128.464
160.4
-213.267
229.736
-108.67
97.7128
246.965
240.94
28.6111
44.6912
32.4452
182.667
283.612
302.642
267.295
112.906
158.69
239.449
199.124
40.7245
16.6304
-45.6218
-1.70852
45.2798
-19.3784
59.8227
16.8643
9.5109
-124.386
-273.772
-379.439
169.617
194.073
34.0331
307.05
530.331
351.61
197.985
979.338
941.922
985.059
1006.17
1192.63
1023.1
847.771
1735.04
1784.13
1715.9
1318.48
1620.7
1758.5
1290.86
1353.96
1379.58
1365.47
1397.63
1113.96
1328.43
1109.38
1172.29
1271.71
1405.15
1334.69
1351.11
1362.37
32.5405
30.9158
36.1956
33.7039
38.0769
41.6271
42.9848
37.8154
32.5766
34.3811
38.2555
34.9874
35.2003
34.7082
33.4487
33.2256
33.4238
34.0064
33.6347
33.6563
33.9681
13.3085
21.9797
11.1753
10.6441
11.2043
14.2644
11.1174
11.693
12.328
12.5751
12.1531
12.3468
14.48
17.2534
32.1932
22.3313
32.3118
16.6894
20.7773
23.9006
15.5968
15.9254
15.392
36.6848
37.1621
21.1466
26.795
15.024
17.2415
20.1236
1538.5
1509.72
1133.11
138.543
958.258
1587.17
1006.41
1548.99
1510.28
1109.2
1072.9
1298.96
1613.88
1584.09
1465.38
1375.9
1484.25
1697.65
1354.72
1723.93
938.598
30.1164
892.377
6.7274
5.04445
20.019
124.001
622.529
6.17422
6.02946
5.22838
5.84063
5.43401
5.79963
5.59472
5.59653
5.56695
5.80359
5.73164
5.63101
5.23185
5.48673
5.20866
5.06628
5.0826
4.70956
4.69909
4.9812
4.53843
4.56815
4.54869
4.64687
3.71187
3.90764
4.09881
3.81556
3.86283
3.90781
4.02177
2.8437
2.88039
3.18577
3.13373
2.99004
3.08285
3.36657
2.08478
2.15338
2.40289
2.48501
2.2086
2.17139
2.2706
1.31186
1.72518
1.4929
1.05995
1.02137
0.272757
0.551474
0.433403
0.157035
0.134481
0.47541
0.406984
0.0820311
0.0091748
-0.00661585
-0.0316675
-0.146339
-0.0349186
0.0826549
-0.00836068
0.0422813
0.0129767
-0.221374
-0.278123
-0.21076
-0.138039
-0.180782
-0.0996198
-0.189472
-0.185668
-0.186335
-0.172072
-0.03421
-0.0240954
-0.200284
-0.183076
-0.207339
-0.279867
-0.112656
-0.165264
-0.0113448
-0.0838024
-0.377282
0.232502
-0.00809482
0.0566777
1.10693
0.522885
0.328106
0.793996
714.832
769.996
792.745
614.289
568.639
673.98
549.824
708.38
559.656
2.82438
787.07
771.001
792.24
783.646
224.19
331.353
0.302297
0.455932
1.21443
1.39301
1.58306
0.478634
0.594083
1.76393
1.29469
407.416
404.947
185.871
-0.298906
80.0899
15.887
394.306
4.3812
4.23724
4.17621
4.0006
4.0744
4.22794
4.12316
4.14987
4.05477
4.15013
3.89786
4.01215
3.9052
4.01694
4.48766
4.57707
4.6385
4.73242
4.70525
4.60754
4.5631
4.58247
4.51117
4.53846
4.45566
4.53802
4.71724
4.82517
4.81673
4.63084
4.65946
4.85559
4.7026
4.94109
4.85931
5.10535
5.04436
4.95677
4.90334
5.03543
5.12067
5.02205
5.05011
5.10008
5.29442
5.01452
5.11016
5.66773
5.9125
5.26484
5.07631
5.06905
5.26933
5.05285
5.20332
5.5004
5.23524
5.03087
5.06693
4.94577
4.89073
4.82435
5.16422
4.8376
5.04501
5.06995
4.69559
4.86132
4.68816
4.65729
4.54465
4.89522
4.82307
3.88177
3.90335
3.92566
3.30669
3.67825
3.10409
3.24793
3.96943
3.80852
4.5159
4.39324
4.34529
4.37817
4.04955
4.26007
4.49518
4.08185
4.09384
3.8629
4.26854
4.5472
4.01965
3.85753
4.08661
3.76029
3.59154
3.81071
3.79087
6.52271
13.8843
18.5232
3.19086
39.5604
97.7874
10.423
-15.0142
3.04688
11.8606
-3.00366
-3.93457
-2.45713
-15.1732
3.51659
15.5829
3.15403
14.1254
15.8936
4.18893
3.39786
-21.8747
-21.6653
-21.1284
-19.2019
-21.7719
-21.057
-20.8878
12.7549
6.85081
79.1379
104.832
13.1313
183.473
53.9658
-14.8087
-20.2622
-18.2024
-6.48906
12.7537
-20.3333
-12.3019
-3.50428
-19.7092
19.1786
-30.8981
-23.9454
36.5174
181.319
65.1268
40.6792
34.6921
47.3816
36.9769
-199.253
-456.098
-340.347
17.0048
-278.24
47.8667
-285.65
-246.178
-68.1199
-93.7343
-416.571
-166.365
-354.812
543.696
462.734
493.784
1035.55
665.906
587.941
731.333
448.411
13.2985
463.647
189.096
165.45
221.548
482.792
391.151
382.098
135.339
425.487
240.247
388.332
327.424
228.426
246.266
220.72
333.437
506.209
327.658
422.849
572.544
401.405
258.525
367.562
171.973
168.868
377.293
102.363
70.2775
355.923
569.686
451.779
512.434
404.727
904.503
1057.22
940.574
954.836
661.755
767.243
883.122
245.837
389.076
534.425
475.488
558.932
614.233
1009.61
1013.6
1053.6
872.158
1029.03
1058.31
924.759
766.299
933.989
1004.65
907.116
1061.27
979.418
1099.38
1100.9
1205.8
1183.48
1123.31
1254.69
1186.85
1163.43
1274.78
1190.85
878.171
769.317
873.681
1078.43
838.351
814.74
885.879
1058.67
897.533
849.296
791.699
1030.36
1003.75
576.381
566.616
669.804
769.374
544.606
645.932
598.79
547.494
460.59
630.232
132.182
278.001
63.9634
28.8388
17.0026
105.942
10.1408
235.433
309.912
87.787
-207.762
-319.778
49.4777
31.4899
29.8176
149.669
245.27
19.0385
29.2181
17.7893
14.181
99.814
20.0281
14.6976
16.9014
13.9733
11.6485
11.2474
11.193
12.0114
11.8864
15.1466
28.5947
21.0359
12.7778
15.9211
15.8037
12.3562
17.1848
14.6452
14.7604
17.7264
14.1537
19.1774
19.491
18.2414
16.336
19.8218
23.6395
23.3632
21.3435
18.4213
24.8084
19.8693
21.0883
25.299
21.2567
13.3563
12.5194
20.6081
13.6181
17.1351
19.3151
29.0296
915.096
1017.63
857.381
842.659
213.545
1087.08
813.72
3.95662
4.03091
4.11582
3.99538
4.00685