/*--------------------------------*- C++ -*----------------------------------*\
| =========                 |                                                 |
| \\      /  F ield         | OpenFOAM: The Open Source CFD Toolbox           |
|  \\    /   O peration     | Version:  v2012                                 |
|   \\  /    A nd           | Website:  www.openfoam.com                      |
|    \\/     M anipulation  |                                                 |
\*---------------------------------------------------------------------------*/
FoamFile
{
    version     2.0;
    format      ascii;
    class       surfaceScalarField;
    location    "0.5";
    object      phi;
}
// * * * * * * * * * * * * * * * * * * * * * * * * * * * * * * * * * * * * * //

dimensions      [0 3 -1 0 0 0 0];
oriented        oriented;


internalField   nonuniform List<scalar> 
13152
(
9.88321e-07
2.02843e-05
-1.63161e-06
-1.9641e-05
1.87096e-05
-1.70998e-05
-6.21422e-07
-3.47087e-06
4.24648e-05
-3.46538e-05
3.54113e-05
-2.38919e-06
2.11994e-05
-7.54942e-05
2.8516e-05
-2.44165e-05
6.04565e-05
-1.61003e-05
-2.95687e-05
-2.84366e-05
7.41057e-05
3.83759e-07
-1.67844e-05
3.00329e-07
-2.99179e-05
7.32996e-07
7.84166e-06
5.15853e-06
-2.97846e-05
7.81387e-06
3.2812e-07
-5.08173e-06
-1.5541e-05
-2.98411e-05
-8.6521e-06
-1.46448e-05
-5.13317e-06
2.84301e-05
-6.88187e-08
-8.66742e-06
8.41386e-08
-1.41687e-05
-5.44916e-07
5.65843e-06
-3.0565e-05
1.62391e-05
-2.93447e-05
2.987e-05
2.9372e-05
-5.17682e-07
3.55434e-08
-1.52485e-05
-2.99159e-05
1.10327e-07
-7.4949e-05
3.20373e-07
1.60029e-05
3.02209e-05
-3.04973e-08
7.46539e-05
3.58046e-05
1.26723e-05
2.53809e-05
-7.38579e-05
3.64276e-07
-7.0656e-07
3.61469e-05
1.24152e-05
2.57888e-07
-1.87553e-05
7.36352e-05
7.78481e-05
2.91562e-05
-7.36377e-07
-2.93862e-05
9.66437e-07
-1.64078e-05
-2.68851e-05
7.24491e-05
1.73636e-07
-1.73178e-05
-8.07866e-06
8.01376e-06
2.38538e-07
5.30234e-06
-3.06988e-05
-4.96463e-06
-1.39068e-05
-2.90485e-05
-1.37916e-05
1.23353e-07
2.91449e-05
2.19706e-07
5.38035e-05
5.51019e-08
-1.4994e-05
-3.88646e-05
-2.87659e-05
6.13846e-06
7.6431e-05
-2.18523e-05
-6.85855e-06
-5.09923e-05
-2.74841e-05
8.46149e-05
-3.26084e-06
-6.27256e-05
5.77445e-06
-6.84988e-06
-2.07769e-05
3.74044e-06
-4.82456e-06
-1.34608e-05
-1.02829e-05
-2.35716e-05
-1.26046e-05
6.1259e-05
-1.33838e-05
-3.52706e-05
8.59626e-05
-2.96604e-05
-6.89068e-05
-5.84622e-05
-9.93198e-05
2.65408e-05
1.26466e-05
-6.88478e-05
2.724e-05
-1.4083e-05
-6.78589e-05
3.66367e-05
-0.000154532
-1.53272e-05
-2.70086e-05
-4.45435e-06
4.67901e-05
1.43484e-06
-2.02577e-05
3.49562e-06
-2.67428e-05
1.16897e-06
4.56487e-05
4.45454e-05
-0.000116937
5.01983e-05
-3.38065e-06
-2.43036e-05
7.00475e-05
-1.58323e-08
-9.82109e-06
1.35883e-05
2.43416e-05
-2.81088e-05
7.87274e-06
8.36471e-06
-2.60585e-05
1.4319e-05
7.14205e-06
1.77064e-05
1.53795e-05
-2.47211e-05
1.57835e-05
2.62645e-05
-5.83755e-06
3.55361e-05
1.70881e-05
-1.7376e-06
1.30055e-06
-1.46186e-05
1.50556e-05
-4.09422e-06
-2.35612e-05
2.59177e-05
1.83381e-06
-4.62752e-06
1.64737e-05
-1.39972e-05
-2.60377e-05
-2.64643e-06
4.50151e-06
-1.26204e-05
1.18078e-05
-3.12452e-05
-2.43037e-06
4.83682e-06
3.63874e-06
-6.04519e-06
2.41626e-06
-5.63948e-06
7.9285e-07
-2.17955e-07
7.47104e-06
-1.21205e-06
6.80538e-06
-1.95459e-06
6.51559e-06
-1.37728e-05
6.65276e-07
2.10824e-07
7.25269e-06
1.02833e-05
4.32216e-06
6.71829e-06
-2.13237e-05
2.29596e-06
1.854e-05
-1.05527e-05
1.62794e-06
4.99018e-06
2.93061e-06
-9.00248e-06
7.69981e-06
-1.36843e-05
2.16051e-05
-1.38255e-05
2.3363e-05
-2.07916e-05
-3.72666e-06
-2.10131e-05
-3.86963e-06
2.86094e-05
-6.17258e-06
3.62105e-06
-1.17514e-06
-1.7885e-05
-9.30072e-06
-2.61661e-06
-6.3202e-06
1.25578e-05
-3.94576e-06
1.53973e-07
1.91208e-05
-4.09515e-05
8.93089e-06
9.38135e-06
1.19425e-06
-1.04467e-05
-1.28938e-07
-2.07005e-05
-5.42028e-06
3.55022e-05
2.78322e-06
-2.22896e-05
-7.32036e-06
-3.48321e-05
3.67322e-05
-3.50336e-05
1.72666e-05
-4.08326e-05
8.7837e-06
-9.81559e-05
1.58353e-05
1.45388e-05
3.34373e-05
-6.38113e-05
-9.86784e-07
7.86401e-06
8.95801e-06
5.64582e-06
7.90613e-06
1.43466e-05
2.69547e-05
-6.51246e-06
2.65049e-05
1.03516e-05
-3.25589e-05
-5.72618e-06
-3.91776e-05
7.74627e-05
3.18515e-05
2.20708e-05
2.96476e-05
-9.88659e-06
3.6012e-05
2.03816e-06
1.27329e-05
7.29979e-06
1.28999e-05
1.87858e-05
-4.04556e-06
7.05925e-06
-3.04902e-05
2.52752e-05
1.7379e-06
-2.17538e-05
-5.25934e-06
-2.44114e-05
-2.67424e-05
7.6429e-05
1.3815e-07
-2.28116e-05
-2.51715e-05
2.67131e-05
-1.40349e-06
1.98153e-05
-6.77985e-05
-3.31494e-06
3.28563e-06
-5.25341e-06
-1.22277e-05
-0.000212914
7.70028e-05
0.000148139
-0.000136488
5.03033e-05
7.39571e-05
0.000157715
0.000234669
4.90275e-05
4.99674e-06
-3.72099e-06
-1.94278e-05
0.000145458
0.000149839
1.28721e-05
0.000365081
2.03658e-05
9.50441e-05
-4.03618e-05
-7.5048e-05
0.000106966
-6.67088e-05
-1.98911e-05
-4.13125e-05
0.000243322
-7.43551e-05
0.000124842
-9.08491e-05
3.56055e-05
-0.000185009
9.73508e-05
-0.000128454
0.000180881
-1.88411e-05
-4.24867e-05
-2.14253e-05
8.27531e-05
-6.32657e-06
1.86053e-05
-3.112e-05
-8.90291e-05
4.02156e-05
-4.84529e-05
4.07161e-05
2.63422e-05
3.03547e-05
-0.000109928
9.00422e-05
-0.000148717
0.000109333
8.32302e-06
2.41197e-05
-8.71419e-06
-2.37285e-05
4.95355e-06
-4.57172e-06
7.94105e-06
1.22696e-06
2.78461e-05
1.82576e-05
2.02909e-05
-4.31203e-05
8.94665e-08
2.61091e-05
-1.05215e-05
1.18379e-05
1.05495e-06
8.16034e-06
5.34843e-06
-9.17655e-06
-4.33222e-06
-3.54484e-06
2.67839e-06
9.02673e-06
6.76974e-06
-4.96626e-06
2.63932e-06
1.87854e-06
-1.36945e-05
2.81646e-06
2.50113e-06
-1.76975e-05
-6.3472e-06
3.08144e-05
-2.49265e-05
2.26255e-06
-6.95473e-06
3.42384e-06
-3.00028e-05
1.02535e-07
-4.79931e-06
-1.26956e-06
5.96634e-06
-8.152e-06
9.42031e-06
-1.16582e-06
1.85169e-06
-1.48031e-05
1.22396e-05
-4.48263e-06
6.05802e-07
1.76001e-05
-1.36801e-05
2.37062e-05
-1.63111e-05
-1.1358e-05
-4.77389e-06
1.513e-06
1.46189e-05
-9.61845e-07
-6.81043e-06
-3.58574e-06
-2.00033e-06
-3.73544e-06
-5.65301e-06
9.50562e-08
7.07091e-06
-1.50229e-06
-1.09613e-05
-7.84541e-07
3.30554e-06
-4.52134e-06
-2.11405e-07
-4.30862e-06
-3.50772e-06
1.79398e-06
-1.07222e-07
-2.17714e-06
-3.00697e-07
-1.33751e-06
3.81535e-06
1.25936e-06
4.34348e-06
-7.78004e-06
-4.78478e-06
5.74337e-06
-1.28336e-06
-5.73264e-07
5.19023e-07
4.99111e-06
-1.93106e-06
3.26778e-05
-1.5287e-06
-3.59339e-05
1.46829e-05
2.37382e-05
-1.68868e-06
1.57983e-05
1.7737e-06
-3.84138e-06
-9.4471e-06
5.20039e-06
8.0881e-06
-5.38688e-06
-2.84312e-06
4.38858e-06
1.25154e-06
-1.60856e-05
2.04018e-06
-3.00711e-06
-1.8762e-06
-1.35139e-06
4.74891e-07
-2.23048e-06
4.32384e-06
-2.50563e-07
-1.81615e-05
3.44401e-07
1.80676e-05
-1.83315e-05
2.68897e-05
-8.80881e-06
3.53137e-05
-7.18067e-05
2.02255e-05
-2.32065e-05
3.32535e-06
-2.69634e-05
6.52564e-05
1.39631e-05
-1.40368e-05
2.60703e-05
-2.662e-05
-2.64917e-06
2.965e-05
-3.80855e-07
4.5396e-05
3.30465e-06
-7.53207e-05
5.24815e-05
-9.73459e-06
-3.33958e-05
-8.7609e-06
-9.33086e-06
-2.44458e-05
4.72377e-05
-5.32639e-05
9.09582e-05
0.00012729
0.000118361
0.000120151
-0.000365802
-3.23084e-06
0.000115017
1.55042e-05
0.000117009
-1.87933e-06
-0.000126196
-0.000108116
0.000351321
-0.000119576
-8.49968e-06
1.1202e-05
-1.06269e-05
1.81033e-05
-4.66045e-06
1.63767e-06
3.93187e-06
-9.09095e-07
7.40835e-06
1.36113e-06
-1.34299e-05
3.68351e-06
5.36257e-06
-4.88535e-06
-1.95591e-06
1.07731e-05
-6.41637e-06
6.21944e-07
5.71959e-06
-1.07748e-05
7.4472e-06
-5.2296e-06
-1.80519e-06
3.24681e-06
3.78798e-06
3.41115e-06
2.13236e-06
2.53979e-06
-9.33849e-07
-9.58602e-07
1.03476e-06
2.05619e-06
-9.75658e-07
3.26382e-06
2.06813e-06
-5.04011e-07
2.16903e-06
1.64468e-07
1.08053e-06
-2.46394e-07
-9.98606e-07
4.40655e-06
1.91724e-06
-6.15934e-06
-8.04113e-07
6.29115e-06
-4.7396e-07
3.93726e-07
-1.66192e-07
-3.34887e-06
5.9685e-06
-7.40015e-06
5.55802e-06
-4.8155e-06
-6.57445e-06
-7.9409e-06
1.93309e-05
6.87835e-06
-3.55578e-06
-8.13807e-06
-7.91545e-06
8.21933e-06
1.35109e-06
6.69896e-06
-1.16059e-05
1.46625e-05
-2.14495e-05
1.41077e-05
-1.53242e-05
2.08292e-05
2.59733e-06
8.74867e-06
-4.99911e-06
-6.34689e-06
1.07623e-05
-9.33087e-06
-6.62227e-06
2.61332e-05
-3.11263e-06
1.27464e-05
-1.46329e-05
7.99089e-06
-1.74505e-05
-6.55031e-07
5.26182e-06
8.13957e-06
4.08365e-06
3.25218e-06
1.63759e-06
-6.88483e-06
2.77118e-07
-1.09494e-05
4.06073e-06
-4.03057e-06
1.09193e-05
1.80799e-05
-1.18324e-06
9.79795e-06
1.23426e-05
2.2191e-05
-8.62143e-06
1.58655e-06
3.15237e-05
1.60327e-05
-2.58374e-05
2.74173e-05
8.7049e-06
1.46667e-05
-8.6109e-06
-1.47608e-05
4.84042e-06
-1.78104e-05
2.16749e-05
-2.43245e-05
4.38317e-05
-1.80799e-06
1.87659e-05
-2.55688e-05
2.7022e-05
-4.35908e-05
-1.35865e-05
2.27981e-05
-1.91451e-05
-1.98963e-05
7.95602e-06
1.64709e-05
-4.53066e-06
3.0876e-05
3.06215e-06
-5.38344e-05
1.24173e-05
2.64147e-05
-1.2038e-05
2.48624e-05
3.64648e-06
2.74977e-05
-3.64735e-05
2.36815e-05
-6.77288e-05
5.64645e-05
-4.29996e-05
9.30959e-05
1.59906e-05
-5.62216e-05
-2.14663e-06
-9.12172e-06
2.78858e-07
1.18634e-05
-3.02056e-06
2.83092e-05
1.0352e-06
-3.84662e-05
-8.3996e-07
2.94281e-05
8.52647e-06
3.36931e-05
-4.11843e-05
4.86052e-05
-2.82154e-05
5.16653e-05
-1.88122e-05
0.000129699
-7.29903e-05
-2.23449e-05
-3.76705e-05
0.000133006
6.27989e-06
-6.79763e-05
-1.12939e-05
-2.16894e-05
5.62439e-06
2.25323e-05
8.75628e-06
-5.2978e-05
2.02776e-05
7.87913e-06
0.00011196
-4.31896e-05
-0.000136747
-6.05575e-05
0.000134847
9.11927e-06
-4.35526e-05
-3.11607e-05
2.16739e-05
2.11492e-05
-8.12892e-05
-9.56196e-06
-2.95971e-05
-5.40833e-07
5.23379e-05
-5.15623e-05
-2.34839e-07
2.81402e-05
-2.95881e-05
9.06977e-07
-4.95022e-05
0.00012998
1.27197e-05
9.7037e-06
-5.20115e-05
1.38441e-05
-2.1743e-07
-8.72336e-06
-2.69347e-05
-5.05819e-05
1.39919e-05
9.88296e-06
1.45488e-05
-3.84237e-05
8.31296e-06
3.77313e-05
-3.20524e-05
-5.71232e-08
1.8253e-05
-2.12351e-05
1.54278e-05
4.35385e-05
2.48419e-05
-3.15282e-05
2.93924e-05
-4.60766e-06
6.30731e-05
5.92946e-05
6.92844e-07
-5.82628e-05
-1.7246e-06
-3.96673e-05
-1.8779e-05
0.000117741
-3.37557e-05
-5.21864e-06
1.49099e-05
-1.78251e-05
-5.53476e-05
-1.75587e-05
1.36896e-05
3.62612e-05
1.38116e-05
-8.38284e-05
4.25359e-05
-1.14931e-05
-7.51454e-06
3.24917e-05
-1.15278e-05
-2.35871e-05
1.23023e-06
7.60489e-06
1.4752e-05
4.15498e-05
2.66467e-05
-9.17836e-05
4.04232e-05
2.35689e-06
1.09363e-05
-5.23374e-05
4.9006e-05
-2.23746e-05
4.80629e-05
4.78902e-05
-7.35809e-05
6.59388e-05
-1.14463e-05
-3.15871e-05
7.14946e-06
3.5884e-05
-4.7563e-06
7.0937e-06
-1.37836e-05
-2.6622e-05
-9.7213e-06
-2.3755e-05
8.01125e-06
2.28377e-05
5.90472e-06
-4.34425e-05
3.10171e-05
-5.17342e-05
4.61785e-05
8.03719e-06
-1.59914e-06
1.76114e-05
-2.40495e-05
-1.14224e-06
-1.50432e-07
9.32986e-06
3.31428e-05
2.15072e-05
-3.59513e-05
1.42936e-05
-3.36812e-05
6.45183e-05
-1.72748e-05
-3.02539e-05
1.15774e-05
-2.33417e-05
-2.76143e-05
-2.57899e-05
3.55911e-05
-3.84324e-05
-2.34509e-05
-1.33604e-06
2.56421e-05
-8.55154e-07
2.38535e-05
5.55493e-06
-5.28594e-05
2.51062e-05
-2.58879e-06
-9.00949e-06
6.71672e-06
2.79349e-05
7.21443e-06
-1.06691e-05
-4.25392e-05
-5.42319e-06
7.30685e-05
-4.4832e-05
-2.9595e-07
1.38469e-05
-5.14645e-05
1.51404e-05
1.57948e-05
-3.43678e-07
-1.75707e-05
2.11958e-06
-2.11485e-05
-9.17755e-06
4.61208e-05
1.07918e-06
-2.25713e-05
-1.14598e-05
-5.47494e-05
5.70316e-05
-6.24504e-05
3.34199e-05
-5.40531e-05
3.82918e-07
-0.000139075
-1.3272e-05
-1.00664e-05
2.69849e-05
-2.4921e-06
-1.94194e-05
8.63945e-06
-1.70891e-05
4.50859e-05
-0.000116009
-1.0807e-05
-7.94458e-05
-2.40889e-05
4.73132e-05
3.4867e-05
-0.00012512
1.94176e-05
4.42559e-05
-2.2567e-05
-2.36594e-05
-7.94313e-06
5.41696e-05
5.23524e-06
-4.58367e-06
-2.32186e-05
-1.96933e-05
1.26921e-06
4.60205e-05
3.88726e-06
-6.96012e-05
5.19194e-05
-4.62968e-06
5.18012e-05
-5.24976e-05
9.57776e-05
-1.03834e-05
-1.62123e-05
-1.10096e-05
3.76053e-05
-5.16253e-06
-2.64921e-05
2.12713e-05
-1.86231e-05
-2.75171e-06
1.37036e-05
1.49843e-05
-4.7311e-05
2.74027e-05
-1.64507e-05
1.22918e-05
-2.37993e-05
2.8685e-05
-1.44122e-05
4.05833e-06
1.73065e-07
1.01808e-05
4.16471e-06
1.93547e-06
-2.05125e-05
-1.01453e-05
1.83681e-05
-3.30598e-05
1.34067e-05
2.15884e-05
-2.92239e-06
-5.065e-05
-5.42903e-06
5.06796e-06
1.37676e-05
6.17093e-06
-1.45224e-05
6.07496e-07
-4.58188e-06
5.84834e-06
-8.22471e-05
-2.48303e-05
2.51336e-07
0.000106826
1.15766e-05
-2.80032e-05
-6.58205e-05
-1.35382e-05
2.84718e-07
1.17122e-05
2.31608e-07
-2.5482e-05
1.33693e-05
-1.37221e-06
4.0354e-05
-6.81253e-05
5.39748e-05
2.38577e-05
0.000111959
-7.63384e-05
-5.94781e-05
3.43302e-05
-7.6069e-06
-2.86572e-06
-5.13287e-06
0.000151422
-1.24148e-05
4.7347e-05
-4.25393e-05
4.71341e-05
-6.24147e-05
1.29907e-05
2.13474e-05
1.30089e-05
1.71037e-05
4.30211e-05
-2.68711e-05
3.8842e-05
-8.18623e-05
1.65548e-05
2.01275e-06
-1.33157e-05
-5.25184e-06
-2.30082e-05
-2.89376e-05
6.85006e-05
-2.25823e-05
1.58687e-06
1.01914e-05
1.92789e-05
-4.2786e-05
2.2479e-05
-1.75395e-05
1.01045e-05
-1.65631e-05
6.80103e-06
1.29502e-06
-4.01725e-05
-1.75791e-06
4.06354e-05
-4.16075e-05
3.92882e-05
3.61433e-06
3.80821e-05
-0.000119862
4.40295e-05
-4.04253e-05
-5.36211e-06
-3.85862e-05
0.000123251
-3.13778e-06
3.83979e-06
-5.48091e-06
-1.71563e-05
-4.09439e-06
-3.02809e-07
2.15535e-05
4.51761e-06
9.69353e-06
-3.13674e-05
1.47737e-05
-1.43504e-05
3.08854e-05
-1.91759e-05
-1.20122e-05
-2.52206e-05
7.76595e-05
4.16591e-06
-1.36483e-05
-6.28105e-06
7.06736e-06
1.54079e-05
2.9127e-05
-5.16023e-05
5.84076e-06
3.84399e-05
-3.72133e-05
7.51421e-06
1.37344e-05
-3.69747e-05
2.1329e-05
5.40853e-05
4.67856e-05
-5.46335e-05
-2.22886e-07
5.45226e-05
3.48402e-05
-3.45895e-05
4.7166e-05
5.11711e-05
-6.37476e-05
7.55856e-05
-1.78255e-05
-9.23495e-05
1.84187e-05
0.000104333
-0.000158761
4.86705e-05
0.000161262
-1.68205e-05
-0.000205688
9.93579e-05
-0.000134004
0.000166447
0.000173385
5.13505e-05
-8.55035e-05
-0.000139232
-5.73851e-05
3.47637e-05
0.000196006
3.17004e-05
-3.7735e-05
4.35042e-05
-8.06087e-06
-0.000120947
-5.30821e-06
8.35761e-05
-6.88923e-05
4.01769e-05
6.04157e-05
-2.34428e-05
-8.31846e-05
-3.07506e-05
6.56191e-05
-6.22543e-05
8.46697e-05
1.93747e-05
-1.85196e-05
-8.55248e-05
-2.79428e-05
8.91599e-06
0.000103697
4.50714e-06
-1.30751e-05
-2.89161e-05
1.3526e-05
1.98973e-05
-1.50059e-05
-2.69846e-05
-5.26217e-05
7.5064e-05
-8.61468e-05
-1.65821e-06
3.36385e-06
-3.95776e-06
2.25211e-06
7.84976e-06
-2.6547e-06
-6.85326e-06
7.0475e-06
4.16612e-06
-1.28733e-06
2.1321e-07
-2.88364e-06
1.78394e-06
-8.19159e-07
-3.77954e-07
-2.06354e-06
8.45349e-06
-4.33901e-07
1.29612e-05
2.33613e-08
-1.25507e-05
1.50462e-05
-1.16585e-05
-3.82167e-06
-6.74785e-06
3.47553e-05
-1.99788e-06
6.18736e-06
7.14563e-06
-2.16942e-05
-3.49896e-06
-1.01386e-06
-4.05944e-06
-3.29441e-06
-8.4794e-06
5.08738e-06
6.68642e-06
-2.2429e-05
1.03227e-05
8.81192e-06
5.10442e-06
-3.60129e-05
1.05681e-06
5.24828e-07
3.50574e-06
-4.26631e-07
8.16987e-06
-4.33287e-06
1.4229e-05
1.29638e-06
-5.68329e-07
-8.24906e-06
6.58762e-07
8.15863e-06
-7.81706e-07
6.04091e-07
-3.90714e-07
-1.71507e-06
-7.3157e-06
4.30707e-07
2.8816e-06
-2.65355e-06
4.29519e-06
-3.26039e-06
-3.34327e-05
-3.78668e-05
-9.51546e-07
1.12097e-06
8.00044e-06
3.85057e-06
1.92005e-05
-5.49365e-07
-2.58587e-06
4.8169e-07
-4.20047e-06
1.37229e-06
-3.15286e-05
-5.4596e-05
-1.85347e-05
0.000104659
-1.37994e-05
-4.39062e-05
2.6177e-05
-1.46757e-05
-5.37199e-05
5.82325e-05
-7.44539e-05
-2.76848e-05
-0.000114625
0.000154323
-8.11037e-05
-4.81967e-05
-0.000209278
1.04112e-05
4.86347e-05
-5.0056e-05
-8.98988e-06
1.26797e-05
-2.40592e-05
2.17907e-05
-3.31947e-05
9.45091e-05
6.44894e-05
9.27561e-05
-0.000207301
8.17113e-05
-2.6212e-05
-2.08317e-05
8.95285e-05
4.28422e-05
-7.26878e-05
5.16363e-05
4.30176e-05
-6.73355e-05
1.10469e-05
6.55797e-05
-9.29111e-06
0.000115041
3.9114e-05
-0.00022149
8.92133e-05
3.68742e-05
-3.00255e-05
2.33215e-06
9.3273e-05
-2.51221e-05
-1.41945e-05
-1.28936e-05
-2.25313e-05
3.7757e-05
-3.99965e-05
1.9808e-06
5.08564e-05
-5.17389e-05
0.000117538
-0.000113099
-0.000113781
-9.09556e-05
9.17261e-06
-8.45147e-05
-3.60257e-05
-6.85824e-05
-6.91927e-05
-3.59574e-05
-0.000103238
-7.06343e-05
-1.31213e-05
1.51732e-05
8.44556e-05
-0.000206829
-3.19034e-05
-2.86657e-06
5.33636e-05
-1.87515e-05
-3.17456e-05
8.52431e-05
-3.36216e-05
-5.44881e-05
-7.58142e-05
-4.99311e-05
-1.59571e-05
-6.73434e-06
3.93992e-06
2.97736e-06
-5.2556e-05
2.95826e-05
-0.000102419
-2.70829e-05
6.06611e-06
-1.63044e-06
-4.70459e-06
2.68922e-07
-4.74873e-06
-2.25206e-06
1.30668e-05
-5.91269e-06
-4.66639e-07
-3.93862e-06
3.51768e-06
-4.28373e-06
4.60086e-06
-8.27071e-06
-1.40895e-06
9.14212e-07
4.0123e-06
1.32099e-06
1.87079e-06
2.74726e-07
-1.20594e-06
-4.72384e-06
5.66775e-06
-1.37992e-06
-6.16274e-06
1.8749e-06
-6.81297e-06
-1.29807e-05
2.54613e-05
-3.61836e-06
-4.57462e-06
1.7231e-07
8.70934e-06
-1.25e-05
7.78087e-06
-1.21832e-05
5.34265e-06
-9.61406e-06
6.96065e-06
-6.43912e-06
4.52226e-06
6.17994e-06
-4.26307e-06
1.1872e-05
-4.52673e-07
-1.78585e-05
3.89407e-06
-1.16556e-05
4.52461e-06
1.33109e-05
-1.65816e-06
-1.42606e-05
1.02859e-06
-3.13947e-06
9.44718e-06
-5.59579e-06
-1.24665e-06
-8.81845e-06
1.56609e-05
4.17083e-06
-4.75682e-06
-5.0098e-06
-1.49262e-05
1.78503e-05
-1.77062e-06
1.29818e-05
-1.5968e-05
8.6879e-06
-1.54683e-05
6.55274e-06
-1.2791e-05
1.0716e-05
-2.0877e-08
-8.26999e-06
-2.17776e-06
1.04686e-05
-1.14574e-05
4.55164e-06
-1.64752e-05
1.88704e-05
-1.29086e-05
2.96161e-05
-8.9791e-06
-2.75626e-06
-1.55836e-06
1.32937e-05
-2.06276e-06
-4.50986e-06
-2.40646e-06
-3.0725e-06
-1.74652e-06
6.89283e-06
2.40021e-06
-1.23655e-05
5.84712e-06
-7.00836e-07
1.17096e-05
-1.38193e-05
1.59984e-05
-1.12361e-05
-3.05416e-06
2.71635e-06
1.15739e-05
-6.81972e-08
-1.75409e-06
-9.41388e-06
-1.0913e-06
-2.0312e-06
-5.11342e-06
-6.20048e-07
4.64215e-06
2.2114e-06
-9.35611e-06
1.35371e-05
-1.30799e-05
1.56332e-05
7.60823e-05
-1.51495e-05
-6.64061e-05
5.47337e-06
-7.88325e-05
-4.28882e-05
0.000197803
-7.68854e-05
-1.70966e-05
0.000104704
3.29009e-05
-0.00021449
0.000143901
-5.62942e-05
-0.000120891
0.000221904
-0.000154396
-9.83696e-06
-2.22232e-05
2.87691e-07
3.17725e-05
-2.71015e-06
1.23473e-06
-8.36157e-06
-8.03032e-06
-1.69031e-05
-1.24185e-05
6.77923e-06
6.87395e-06
1.19973e-06
-2.19799e-05
1.39964e-05
-2.0827e-05
2.10631e-05
-2.91602e-06
-9.18576e-06
-5.92966e-06
1.80314e-05
-1.51565e-06
5.78491e-06
-7.18533e-06
-8.38457e-07
-9.86307e-06
4.51656e-05
-2.83525e-05
-2.27428e-05
9.91579e-08
6.30978e-05
9.58804e-06
-3.04805e-06
-3.48925e-05
-4.62124e-06
1.43084e-05
1.02603e-06
1.37536e-07
-2.86058e-06
-1.22791e-05
1.34341e-05
3.76042e-05
-3.87593e-05
1.66915e-05
2.22365e-05
-5.12071e-05
1.67083e-05
1.34174e-05
2.71895e-05
3.50254e-05
-3.99784e-05
2.1311e-05
4.34828e-05
-1.27958e-06
5.30134e-05
3.34491e-05
-1.30839e-05
-1.04628e-05
-8.89848e-06
3.24452e-05
2.05768e-06
-9.7674e-06
-5.37421e-06
2.18707e-06
-1.05922e-05
-1.4848e-05
8.30012e-06
8.73492e-06
5.24441e-06
-3.06846e-05
3.28995e-06
-7.81294e-06
2.69159e-06
-3.07697e-06
5.05801e-06
1.05995e-05
-1.25806e-05
9.05273e-06
1.64457e-05
-2.85754e-05
9.47918e-06
4.63157e-06
3.56538e-06
1.2333e-05
-5.2988e-06
1.12769e-05
8.73422e-06
-7.51508e-06
2.93272e-05
8.39338e-06
-1.74972e-05
-1.36774e-05
-1.04996e-05
4.16742e-05
4.12448e-06
-1.45665e-05
-7.05509e-06
-1.40186e-05
4.46575e-06
1.84014e-05
8.75722e-06
-4.11772e-05
1.10064e-05
1.18608e-05
-5.70984e-06
6.21668e-06
-1.15191e-05
3.9093e-05
2.42562e-06
-3.55519e-05
-5.9667e-06
-3.2205e-05
-1.81504e-05
8.94484e-05
-3.27447e-05
2.96534e-06
1.91383e-07
-3.70167e-05
1.2734e-06
-3.04387e-05
1.24798e-05
3.06947e-05
-0.000100456
3.2214e-06
-4.49978e-05
1.69219e-06
5.99063e-05
-1.66007e-05
2.1454e-05
2.89212e-05
-9.5373e-05
1.59952e-07
2.29863e-05
5.87268e-05
-5.44725e-05
-4.09433e-06
-3.74065e-05
0.00011912
8.4789e-05
5.10261e-05
-0.000106894
3.51632e-05
0.000109532
5.30373e-07
-3.9768e-06
-1.71293e-06
-8.12026e-05
-5.46714e-05
-1.72145e-05
0.000153088
-2.69434e-07
-8.50275e-05
-5.631e-05
1.36917e-06
1.88672e-05
-9.01015e-06
-6.61671e-05
1.98294e-05
4.07016e-07
2.15012e-05
2.96735e-05
-6.01848e-05
6.48116e-05
-2.3481e-05
9.93652e-05
-0.000154719
0.000146962
-6.23962e-05
-1.33665e-06
7.20307e-05
-8.29782e-06
2.54935e-05
5.93835e-05
-0.000147273
-1.6169e-06
2.57737e-05
3.76871e-05
-3.96529e-05
3.48823e-07
-1.37783e-05
7.72391e-05
1.67209e-06
7.15018e-05
-1.14321e-06
5.80508e-05
3.00474e-06
-7.24324e-05
0.000130156
-5.40345e-05
-2.3313e-05
-4.84003e-05
0.000148952
-2.42479e-05
1.28366e-06
2.55711e-05
1.04323e-05
-6.02513e-05
2.52496e-05
1.60509e-06
1.81943e-05
-6.17965e-05
7.74139e-05
-3.397e-05
0.000159169
-4.43206e-05
6.78122e-07
4.80093e-05
-4.36685e-06
4.09467e-05
4.95802e-05
-1.23896e-06
4.28638e-05
5.30985e-05
-4.75729e-06
-5.54458e-05
0.000151408
-1.21937e-05
2.6394e-05
3.09534e-05
6.35341e-06
-6.37008e-05
-7.67186e-06
2.9315e-05
4.75078e-06
-3.43272e-05
2.00897e-05
-8.09519e-05
3.56262e-05
2.68239e-05
1.49736e-05
-7.74237e-05
4.70621e-06
4.24974e-05
5.91049e-06
2.56197e-05
4.85658e-05
3.94763e-05
1.73878e-05
7.36755e-05
2.77188e-05
1.76679e-05
7.07262e-05
4.82538e-05
1.80256e-05
5.21672e-05
8.37383e-07
-6.44902e-05
-4.59849e-05
-0.000108911
-2.60986e-05
-1.05361e-06
5.15884e-05
-4.71476e-08
-9.6664e-06
-1.76863e-05
-1.10796e-05
4.73337e-06
-1.29682e-05
-1.43161e-06
-1.81273e-05
5.17432e-06
6.0292e-06
-1.18062e-05
-5.30261e-06
-7.79414e-06
8.13368e-06
-3.4055e-05
1.50189e-06
-5.24646e-05
7.68309e-07
2.31735e-07
3.50119e-05
-9.81456e-05
1.48047e-06
3.42997e-05
2.79837e-05
-2.72825e-05
2.20277e-05
6.17194e-05
2.9693e-05
3.84796e-05
-9.5455e-05
2.23193e-05
2.94014e-05
1.24997e-05
-3.6453e-05
4.62726e-05
-5.62445e-05
3.00651e-05
-4.78299e-05
5.53315e-05
6.41542e-06
2.91241e-05
4.07645e-05
2.26825e-05
6.43539e-05
1.49782e-06
-6.10037e-05
-4.84801e-06
-3.26536e-05
-3.50804e-05
0.000132088
1.35007e-06
-3.25058e-05
-3.09479e-05
3.06286e-05
1.66943e-06
5.00247e-06
-6.84562e-05
-5.33379e-05
4.88861e-05
-0.000109339
-1.68729e-05
-4.62094e-05
7.45566e-06
5.56266e-05
4.3623e-06
-1.98168e-05
-1.41832e-06
-4.59548e-05
4.10759e-06
-1.96415e-05
-2.99106e-05
5.70078e-05
-6.74225e-05
2.79641e-05
7.24597e-05
1.81309e-05
-0.000136545
7.91711e-05
-2.6038e-06
9.1526e-05
-0.000140818
0.000140786
-2.64654e-05
-5.6983e-05
8.03575e-08
1.05039e-07
1.22085e-05
1.13162e-05
-1.65769e-05
-6.94777e-06
-3.13457e-05
-1.9381e-06
4.54923e-05
9.63035e-06
-2.96599e-05
4.37921e-06
-4.47438e-05
2.37877e-05
-3.22121e-05
3.46532e-05
-2.49594e-05
2.49469e-05
9.64284e-06
-1.60233e-06
-5.3017e-05
3.33087e-05
-7.96548e-05
2.60435e-05
-2.1749e-05
-1.82788e-05
-9.09574e-06
4.91235e-05
1.94037e-06
-2.22145e-05
-1.47484e-06
-1.4669e-05
1.2716e-05
-6.60392e-05
3.11087e-05
5.25063e-05
3.90222e-05
-0.000122147
-0.000136356
-3.12929e-05
-6.04013e-05
-1.65906e-06
-9.55408e-06
1.07742e-05
1.43036e-06
-7.22018e-06
-4.98435e-06
-2.66585e-05
-6.74744e-06
4.41801e-05
-3.71673e-06
-2.15114e-05
2.76689e-06
-2.25919e-05
1.26049e-05
-3.55518e-05
3.15713e-05
-2.18197e-05
-1.74488e-05
-6.5923e-05
-6.93782e-05
-3.5113e-05
-3.1865e-05
-2.57483e-06
-2.98365e-05
-3.69669e-05
-2.8045e-05
1.60348e-05
-9.70967e-05
1.63406e-05
-7.99607e-05
3.09834e-05
-4.44794e-05
2.5162e-05
1.82536e-05
1.8373e-06
2.8494e-05
-4.85848e-05
-1.72874e-05
1.26705e-05
2.28707e-05
4.54748e-05
-6.09248e-05
2.63911e-05
-5.06874e-05
-2.45435e-05
7.38054e-05
-4.56896e-05
6.66209e-05
-6.7883e-05
-3.57203e-05
-1.39713e-05
1.4991e-05
3.47006e-05
1.9287e-05
1.01189e-05
-6.51262e-05
-1.25224e-05
1.78381e-05
3.76985e-05
-1.29577e-05
-3.72633e-05
7.83563e-06
4.7701e-05
2.87566e-05
-3.15954e-05
5.15833e-05
1.49704e-05
-4.70912e-06
-6.88751e-07
-9.57249e-06
-2.51791e-06
9.02852e-08
1.7398e-05
-8.94958e-06
1.72255e-06
4.23016e-06
7.10502e-07
-5.62942e-06
-8.42036e-06
1.27408e-05
2.40256e-05
-3.22647e-05
1.73278e-05
1.9044e-05
1.55181e-05
2.90141e-06
-3.74635e-05
-2.15543e-05
1.96871e-05
2.09111e-05
1.89252e-05
-2.49618e-05
1.66645e-05
-1.97518e-05
2.27743e-05
-8.79506e-06
4.63706e-05
-3.36534e-05
4.37834e-05
-5.05039e-05
-9.71419e-06
-1.11229e-05
4.55029e-06
1.62868e-05
4.43681e-06
1.31348e-06
-1.54646e-05
3.24084e-06
-9.92704e-06
8.94781e-06
9.28615e-06
-1.69206e-05
-7.04692e-07
1.42024e-05
-1.36857e-05
1.62218e-05
-1.43267e-05
-9.01375e-07
-2.95843e-05
1.98262e-05
1.06595e-05
-1.5273e-05
1.13813e-05
2.99024e-06
7.09851e-06
-5.19561e-05
-1.26719e-05
1.2309e-05
1.17441e-05
-7.06184e-06
-2.62001e-06
-4.78197e-06
-4.96479e-07
1.75873e-05
-1.88883e-06
-9.95506e-06
6.81261e-06
-1.60321e-06
2.61421e-05
-8.55062e-06
-1.2962e-05
-3.1262e-05
5.27746e-05
-5.72435e-06
-2.57038e-05
2.28773e-05
-6.11367e-06
-1.25729e-05
-9.3025e-06
1.38479e-05
2.38788e-05
-4.57544e-05
9.46685e-07
7.63289e-06
5.2682e-06
1.33344e-05
1.14909e-05
2.75328e-06
-2.08243e-05
-1.51746e-05
-3.99677e-05
-1.13169e-05
1.82144e-05
3.30702e-05
2.44387e-05
7.56001e-06
-7.19664e-05
2.68312e-05
-1.37094e-05
-3.0703e-05
1.11694e-06
4.78004e-05
1.45695e-05
-3.77124e-05
-4.61806e-05
7.41287e-05
-4.53206e-05
-1.67206e-06
-1.68673e-05
1.08331e-06
1.7456e-05
-2.33707e-06
9.46177e-06
-8.79696e-06
-1.62152e-06
-1.75831e-05
-4.46011e-05
1.43306e-05
3.97322e-05
-5.85805e-06
-4.75401e-05
1.88622e-05
3.42759e-05
2.71991e-05
1.51219e-05
-3.72912e-06
-3.85918e-05
-7.97601e-06
4.64065e-06
3.05343e-05
1.38295e-05
-6.68386e-06
2.05377e-05
6.12005e-06
-3.03869e-05
-4.91137e-06
3.00893e-05
-2.2957e-05
3.18749e-05
-2.35211e-05
-6.01138e-06
-1.31558e-05
2.2591e-05
-8.38347e-06
4.8731e-06
-1.24526e-05
-9.08675e-06
-2.72355e-06
-2.5505e-05
-3.65715e-05
4.37603e-05
2.40958e-05
-3.12846e-05
0.000153948
-3.08506e-05
-0.000159668
1.60397e-05
0.000181668
-3.28519e-05
1.72522e-05
3.96957e-05
-1.89099e-05
-4.52265e-05
8.6914e-05
-0.000136674
0.000120206
-4.37835e-05
-8.74627e-05
-5.08366e-06
0.00013633
-8.77974e-06
-8.02352e-06
-2.69802e-05
-3.11829e-05
-6.50595e-05
-1.82274e-05
4.94182e-05
-3.92143e-05
1.45039e-05
-5.97115e-05
6.55872e-05
-8.22662e-05
0.000109922
1.19554e-05
1.65358e-05
2.78115e-05
-5.63027e-05
9.49679e-06
3.03938e-05
-2.79352e-05
1.18001e-05
1.42325e-05
-4.03162e-05
1.44257e-05
5.62843e-05
3.64764e-05
-4.89811e-05
3.0538e-05
1.77384e-05
5.91961e-05
2.14843e-06
-7.49014e-06
5.00034e-06
3.41371e-07
-1.93267e-05
-1.38583e-05
3.53334e-05
1.00618e-05
-3.68787e-05
-4.76286e-07
2.03686e-06
3.43977e-06
-3.69144e-07
2.34228e-07
-1.71528e-06
-1.01061e-05
7.97729e-06
-8.46078e-06
-1.10086e-05
1.78061e-05
1.66328e-06
-1.17361e-05
9.51028e-06
-6.23505e-06
-1.56926e-05
-7.05214e-06
1.63294e-05
-5.8485e-05
5.99615e-05
-1.88864e-05
1.88009e-05
-6.77758e-05
-1.57782e-05
6.59695e-06
-1.10334e-06
-9.49619e-06
4.00257e-06
-3.92558e-06
4.28362e-06
6.2389e-06
2.26211e-06
-7.29103e-06
2.54164e-06
3.99811e-07
1.34217e-06
-2.40764e-06
1.11882e-05
-7.26743e-07
5.81212e-07
1.87478e-06
-2.20171e-06
-1.49124e-05
-3.27115e-06
2.26269e-07
1.42331e-05
-2.70385e-06
7.74871e-07
-6.19772e-06
1.29216e-06
6.24471e-06
-1.16676e-05
6.33072e-06
1.85671e-06
-8.45658e-07
-7.34178e-06
-2.15689e-06
1.63436e-06
2.39027e-06
-2.69044e-06
-9.39637e-07
2.35152e-06
9.78389e-07
1.99565e-06
-5.62573e-06
-1.44579e-06
2.2345e-06
-1.34355e-06
-4.37805e-07
3.49765e-06
8.96393e-07
-1.44952e-06
-1.87224e-05
-9.3199e-05
4.73068e-05
6.46145e-05
-6.29242e-05
6.75819e-05
-2.338e-05
1.93457e-05
-0.000175469
-0.000112517
-3.50576e-05
0.000215156
-5.97517e-05
-7.61452e-05
5.33027e-05
-9.37087e-05
6.5552e-05
-9.27461e-05
-7.23782e-05
-5.63657e-05
1.59467e-05
-6.85376e-05
-4.01552e-05
1.58201e-05
-7.22516e-05
-9.73619e-05
6.82666e-05
4.49154e-05
4.97708e-05
-0.000219384
2.68506e-05
-4.56174e-05
3.87515e-05
1.02167e-05
6.42557e-05
-6.76313e-06
-6.77093e-05
4.77672e-05
-6.63524e-05
2.8802e-05
-6.95044e-05
0.000181527
-5.6435e-05
6.62474e-05
-1.65754e-05
8.01699e-05
-0.000204314
-1.45559e-05
2.83734e-05
-1.78128e-05
7.53044e-06
-3.53361e-05
-8.29151e-05
-0.000170807
-3.47142e-06
-1.69405e-05
1.64522e-05
3.95967e-06
-1.72921e-05
1.77908e-05
-3.97014e-06
1.31454e-05
-4.7378e-05
-1.81886e-05
-1.57792e-05
5.17587e-05
-1.42429e-05
-7.91581e-06
-4.76489e-07
-6.21019e-07
1.96566e-07
8.36882e-06
1.2697e-05
-1.66473e-05
-4.41845e-06
1.29798e-05
-3.16938e-05
-7.29841e-06
-1.26384e-05
8.7509e-07
-4.92162e-05
-3.75011e-06
-7.96673e-06
-1.55134e-05
-1.16052e-05
-5.29584e-06
1.75615e-06
1.51449e-05
1.01929e-05
1.00098e-05
5.08007e-06
-3.06952e-06
1.45888e-06
6.31081e-06
2.24016e-06
3.46942e-06
1.15364e-05
9.07318e-07
-9.6191e-06
3.47342e-06
5.23836e-06
-1.54358e-05
5.68714e-06
1.0656e-05
1.69422e-05
1.14477e-05
3.2415e-06
1.31379e-06
-1.08187e-06
-1.07269e-06
1.00013e-05
-1.00797e-05
2.59493e-05
2.68181e-06
6.34062e-07
1.69128e-06
-2.96256e-08
-2.29571e-06
-2.185e-07
1.29172e-06
-4.39152e-07
1.58193e-06
-1.09119e-07
-2.83578e-07
9.10802e-07
-6.56847e-07
2.86638e-06
-1.85821e-06
1.81785e-06
2.6305e-06
2.61956e-06
5.69756e-06
5.20807e-06
2.30034e-06
-1.3206e-05
9.43986e-07
1.06393e-06
3.68959e-06
4.84716e-06
1.30484e-06
-5.58809e-06
-3.00385e-06
1.34391e-05
-3.17008e-06
-1.11324e-06
5.27302e-06
3.05601e-06
-6.02874e-06
2.68345e-06
3.65337e-06
-2.89188e-06
2.57139e-06
-3.00608e-06
3.5566e-06
1.49378e-05
-8.17843e-06
-1.0316e-05
8.69483e-06
-9.61987e-06
4.4816e-06
-1.32773e-06
2.49604e-05
1.64952e-05
6.11204e-06
-3.22272e-05
6.71619e-06
-9.72714e-06
1.51156e-05
-1.17936e-05
-1.92376e-07
5.96954e-06
-2.19201e-07
-1.6252e-06
2.17527e-06
-7.42454e-07
4.54249e-07
3.89008e-06
-2.41377e-06
2.35852e-06
-1.92327e-06
-1.23296e-06
1.97301e-06
-2.75934e-06
-9.91361e-06
6.16346e-06
6.50949e-06
-1.36215e-05
1.13811e-05
-7.73685e-06
1.22014e-05
-7.96901e-06
2.04845e-05
3.50776e-05
-9.75519e-06
-4.83788e-06
-5.87048e-05
-2.7225e-05
0.000121007
-1.31014e-05
-5.53586e-05
-8.33736e-05
0.000122898
-5.26261e-05
1.63858e-05
-0.000155118
-7.68043e-05
0.000172478
5.33709e-05
-1.91982e-05
-3.7496e-05
3.32334e-06
-0.000146425
-1.46939e-05
-0.000118092
-4.75313e-05
6.50052e-05
4.01823e-06
-0.00010652
5.07763e-05
1.75521e-05
1.95431e-05
2.04755e-05
-3.60005e-05
1.85317e-05
5.17877e-05
-3.43598e-05
3.81976e-05
-0.000131977
-3.28796e-05
-2.71534e-05
-1.40981e-05
7.41312e-05