/*--------------------------------*- C++ -*----------------------------------*\
| =========                 |                                                 |
| \\      /  F ield         | OpenFOAM: The Open Source CFD Toolbox           |
|  \\    /   O peration     | Version:  v2012                                 |
|   \\  /    A nd           | Website:  www.openfoam.com                      |
|    \\/     M anipulation  |                                                 |
\*---------------------------------------------------------------------------*/
FoamFile
{
    version     2.0;
    format      ascii;
    class       volVectorField;
    location    "0.5";
    object      U;
}
// * * * * * * * * * * * * * * * * * * * * * * * * * * * * * * * * * * * * * //

dimensions      [0 1 -1 0 0 0 0];


internalField   nonuniform List<vector> 
6576
(
(0.0336358 -1.48155 -0.0661149)
(-0.0922858 -1.5342 0.0781434)
(-0.0327809 -1.56685 0.0125059)
(0.0434677 -1.45175 -0.0613199)
(-0.00457262 -1.50671 0.00571809)
(-0.0790943 -1.59655 0.0785897)
(-0.016846 -1.54646 0.0317567)
(0.0151291 -1.49784 0.00213691)
(0.0169076 -1.24742 -0.0100843)
(0.0172661 -1.45903 0.000450082)
(-0.0116137 -1.51238 -0.0164343)
(-0.0170847 -1.55223 -0.0118243)
(-0.00207261 -1.55154 0.0061039)
(0.0073297 -1.48792 -0.000483454)
(0.0597204 -1.45605 0.022557)
(0.00852113 -1.82265 -0.0332077)
(0.0659073 -0.860399 0.0339632)
(0.0166523 -1.71858 -0.0162778)
(0.0546798 -1.56057 0.0622735)
(0.0172787 -1.48069 0.0035941)
(0.0475545 -1.37538 0.0488947)
(0.00207602 -1.53038 0.0144623)
(0.0103207 -1.46804 0.00833628)
(-0.00486712 -1.50021 -0.0123537)
(0.00191193 -1.59923 0.0181348)
(0.0525672 -1.52902 0.0550201)
(0.0628401 -1.49452 0.065181)
(0.000179222 -1.45725 0.0142102)
(-0.00599809 -1.58024 -0.0316902)
(0.00563407 -0.962968 -0.00825012)
(-0.0525577 -1.57412 0.0615549)
(-0.0273838 -1.45636 -0.00949131)
(-0.0115151 -1.55487 -6.26028e-05)
(0.012235 -1.45777 0.031392)
(0.0164878 -1.46653 0.0346837)
(-0.0191571 -1.25691 0.0100861)
(0.00144517 -1.64207 0.0123679)
(-0.0144749 -1.56923 0.010556)
(0.0179135 -1.47973 0.0246302)
(0.0105358 -1.47757 0.0186436)
(0.00237964 -1.31112 0.031161)
(-0.0172465 -1.47674 0.00623921)
(-0.000896016 -1.40636 0.00583473)
(0.516955 1.341 0.802038)
(0.398273 1.48581 0.37103)
(-0.19716 1.06393 -0.258125)
(0.119704 1.58533 0.655293)
(0.397492 1.63269 1.08118)
(-0.277995 0.639106 0.252114)
(-0.202525 0.828813 -0.0649696)
(-0.189614 1.2414 0.117464)
(0.127806 1.22903 0.664504)
(0.0518505 3.25764 -1.75216)
(0.278769 2.68357 -0.414341)
(-0.0587104 2.86448 -0.438776)
(0.140238 2.80482 -0.350384)
(0.177671 3.09783 -1.72308)
(-0.130315 3.04104 -0.656994)
(-0.364149 3.26903 0.655025)
(0.01397 2.20683 -0.158675)
(0.219984 2.50864 -0.403323)
(-0.0279348 2.11651 0.0345828)
(0.0300787 2.22077 -0.131498)
(-0.067869 1.94394 -0.0665249)
(-0.0206966 2.14726 -0.0812491)
(0.133083 2.41374 -0.14223)
(0.100701 0.572893 -0.694928)
(-0.0811847 0.161334 -0.498529)
(0.0231083 0.82069 -0.467442)
(-0.0969586 0.059857 -0.451892)
(-0.0118599 0.522081 -0.517174)
(-0.0586399 0.652632 -0.304174)
(-0.0713447 0.938171 -0.256941)
(0.519258 -0.239719 0.304757)
(0.114325 -0.448633 0.478214)
(-0.0960189 -0.215076 -0.020284)
(-0.0581133 -0.574867 0.471168)
(0.508638 -0.124671 0.0136368)
(0.174766 -0.275325 -0.274179)
(-0.151836 -0.740755 0.374645)
(0.0288644 0.192855 0.124807)
(0.0571079 -0.0406682 0.096062)
(-0.172099 0.197282 0.148714)
(-0.201023 -0.0109332 0.190905)
(0.157287 -0.286994 0.31784)
(0.108673 -0.0826526 0.36997)
(-0.135847 0.12868 0.309266)
(0.0173883 0.395886 -0.0201013)
(-0.149369 0.461992 -0.125227)
(0.0711289 -0.115367 -0.231144)
(-0.115344 0.0718024 -0.547966)
(-0.0354984 0.183669 -0.381918)
(-0.0959264 0.322496 -0.357397)
(-0.0590812 0.37202 -0.285784)
(0.26493 0.253222 0.474542)
(0.0101612 0.189708 0.20979)
(0.177263 0.164526 0.833698)
(0.0953969 0.376008 -0.235557)
(0.0348277 0.242697 -0.096385)
(0.188618 0.267571 0.504029)
(0.449728 0.44381 0.220536)
(0.0859466 -0.057005 1.82333)
(0.0178812 0.0949934 1.70934)
(-0.00801676 0.203757 1.65408)
(-0.00608221 0.124229 1.73974)
(0.0266235 0.0456839 1.86252)
(0.000205168 0.150881 1.72183)
(0.0319271 0.0758893 1.78286)
(0.109495 0.151375 1.14274)
(0.00781758 0.31438 0.66192)
(0.0995987 -0.096544 0.423892)
(0.00313864 0.483694 1.27538)
(0.38157 0.0621045 0.364778)
(0.101148 0.284614 0.32062)
(-0.0904975 -0.819123 -1.40505)
(0.0851237 -1.08372 -0.200258)
(0.181871 -1.01654 -0.853239)
(-0.168062 -1.21363 -0.249787)
(-0.0180872 -0.96258 0.115797)
(0.0897 -1.24666 -0.759755)
(-0.36885 -0.831017 -1.72883)
(0.0619977 -1.24201 0.060797)
(0.0426863 -1.52284 0.0509118)
(-0.00821207 -1.39038 0.0146487)
(-0.0180548 -1.51168 -0.0399924)
(-0.0355645 -1.35664 0.0275281)
(0.0524569 -1.61129 0.0941761)
(-0.000144843 -1.25179 0.0829781)
(0.049167 -7.10326 -0.0621267)
(0.0230971 -6.94707 -0.0662524)
(0.0118013 -6.89782 -0.0448261)
(0.0161498 -6.82677 -0.214823)
(0.0443108 -7.03994 -0.19656)
(-0.103749 -6.4352 -0.0901746)
(-0.0317713 -6.87037 -0.102986)
(-0.0958536 5.53441 2.52176)
(-0.0833266 3.48188 -0.298553)
(-0.249897 4.31875 0.711303)
(-0.134161 4.29889 1.90392)
(-0.022695 3.6874 1.29447)
(0.0131815 2.44051 -0.420486)
(-0.404441 2.92741 0.650497)
(0.208882 1.81511 0.023012)
(0.0550734 0.912099 -1.119)
(0.309729 2.66186 0.829026)
(-0.0453631 1.20785 -0.59425)
(0.103467 2.09881 0.428052)
(0.188605 2.8106 0.860213)
(0.355368 2.53218 -0.0314942)
(0.0468671 0.658554 0.398525)
(0.012883 0.419448 0.482768)
(0.159894 0.49211 0.494338)
(-0.36138 0.555422 0.182061)
(0.0966105 0.326012 0.471929)
(0.239895 0.373055 0.196114)
(-0.543292 1.14539 0.578488)
(0.099582 0.300932 -0.0252972)
(-0.0755525 0.154147 -0.10767)
(-0.0102424 0.0238857 -0.363105)
(0.172576 0.169763 -0.233279)
(0.214859 -0.0494676 -0.293386)
(0.183422 -0.0169938 -0.575818)
(0.339968 0.023928 -0.787261)
(0.213879 0.127651 -0.520483)
(0.160324 0.376651 -0.775791)
(0.0192795 0.0139181 0.233841)
(-0.0221472 -0.0058153 0.387998)
(-0.020313 -0.0171435 0.30977)
(-0.0698074 0.199681 0.285616)
(-0.0622513 0.180639 0.370182)
(-0.025574 0.184881 0.425571)
(-0.00981149 0.143603 0.337803)
(-0.0792345 -0.101081 0.302098)
(-0.0208692 -0.0787302 0.326828)
(0.00214129 0.136226 0.346866)
(-0.0114105 -0.174426 0.134825)
(0.149318 0.0213115 0.0438015)
(0.0784809 0.0766504 0.121875)
(0.0948457 0.0240659 0.0512472)
(0.10739 0.142327 -0.0247363)
(-0.141703 0.00742593 0.0281436)
(0.148809 -0.00118011 0.0624963)
(-0.047206 -0.196379 -0.115846)
(-0.0185082 0.0147202 0.162787)
(0.129202 -0.143612 0.0487255)
(0.246204 -0.464286 -0.286029)
(-0.229046 -0.66178 0.648843)
(-0.137514 -0.293824 0.792034)
(-0.161287 -0.132894 0.360258)
(-0.237505 -0.238585 -0.202671)
(-0.100196 -0.29983 -0.0432774)
(0.0183687 -0.327969 -0.153505)
(-0.00273684 -0.272847 -0.154101)
(0.118463 -0.0875268 -0.0366601)
(-0.0385135 -0.115004 0.0288747)
(0.00285385 -0.140851 -0.0273418)
(-0.125156 -0.161873 0.0680946)
(0.0332017 -0.941665 0.0907385)
(-0.109001 -1.26279 -0.159397)
(-0.224813 -1.39954 -0.121639)
(0.00309621 -1.22296 -0.151401)
(0.105733 -1.47791 -0.053512)
(-0.161493 -1.18628 -0.261152)
(-0.229155 -1.22879 -0.327038)
(0.0588802 -1.68298 0.141839)
(0.151802 -1.04225 -0.060717)
(-0.0362083 -2.4657 0.215065)
(-0.238725 -1.34294 -0.13678)
(-0.265089 -0.562155 -0.531368)
(0.0158549 -0.937891 -0.471211)
(0.00556912 -1.71656 -0.181471)
(-0.12392 -6.79202 -0.308184)
(0.0895289 -6.63813 -0.21351)
(0.0239019 -6.48817 -0.225897)
(-0.0821065 -6.78525 -0.29204)
(-0.15626 -6.91652 -0.272921)
(-0.291876 -7.12438 -0.43703)
(-0.129353 -6.54995 -0.325123)
(-0.00967627 -0.286605 -0.05761)
(0.0105174 -0.232885 -0.0481139)
(-0.00458278 -0.214682 -0.095691)
(0.0300018 -0.205553 0.00934087)
(0.0601323 -0.186645 0.0294996)
(0.0437235 -0.152635 0.0344336)
(0.008843 -0.152734 -0.0186325)
(-0.0140249 -0.196831 0.0841446)
(0.0286516 -0.193379 0.0296619)
(0.0156223 -0.129224 0.106816)
(-0.0114171 -0.068034 -0.0329189)
(-0.149945 -0.0779983 0.0638341)
(-0.108109 -0.0080797 0.0764372)
(0.0586092 0.0610849 -0.121095)
(-0.00319978 -0.00970856 0.0170007)
(-0.106146 0.108253 0.0293416)
(0.0374444 0.114951 0.144377)
(0.0243573 0.0365008 0.0700845)
(0.0854911 0.0732649 -0.0286892)
(-0.00448388 0.145417 -0.00337294)
(0.140284 0.269034 0.215639)
(0.0648688 -0.257614 0.373843)
(0.0063374 -0.428691 0.194764)
(-0.145291 -0.159728 0.388738)
(-0.0320851 -0.246313 0.266989)
(0.0409457 -0.409089 0.244007)
(-0.188807 -0.00500706 0.47984)
(-0.0377139 -0.205989 0.423366)
(0.00893933 -0.150064 0.342641)
(-0.0755091 -0.0329129 0.463118)
(-0.0373169 -0.0998273 0.454207)
(0.0194803 -0.269473 0.396483)
(-0.0243126 -0.207554 0.319385)
(-0.0141821 -0.307312 0.387252)
(-0.00208543 -0.231487 0.311472)
(-0.0573649 -0.157368 0.363457)
(-0.0787693 -0.23859 0.46171)
(-0.0204742 0.424968 0.331691)
(0.212605 0.547788 0.181275)
(0.0803881 0.543198 0.285324)
(-0.115308 0.287917 0.28486)
(-0.067675 0.534095 0.516379)
(0.265705 0.479164 -0.0405536)
(0.0691901 0.592162 0.203307)
(0.0081565 0.531528 -0.809462)
(-0.0681891 0.353177 -0.844336)
(0.00437209 0.343636 -0.829559)
(-0.0113154 0.480393 -0.868479)
(0.0141453 0.551848 -0.831131)
(-0.00619025 0.41943 -0.819517)
(0.0256486 0.367911 -0.833811)
(0.235894 0.0231315 -2.16542)
(-0.403936 0.278908 -2.74511)
(-0.112383 0.685204 -1.93588)
(0.239956 0.0409199 -2.25785)
(-0.178048 0.406185 -2.54396)
(0.134482 0.98746 -1.91498)
(0.243879 0.897005 -1.90758)
(0.00105611 0.773795 -2.40283)
(0.194996 0.427654 -2.0131)
(-0.177752 1.97572 0.233602)
(0.302456 1.43539 -0.215871)
(0.107349 2.27647 0.17624)
(0.296001 1.61982 -0.0857002)
(0.227198 2.34175 0.190927)
(-0.147549 1.99799 -0.467172)
(-0.0215467 2.38006 -0.0522159)
(-0.0553559 2.47054 -0.279942)
(-0.127554 2.37876 -0.193136)
(-0.0247024 2.31607 -0.621567)
(-0.108092 2.11231 -0.391859)
(0.0802263 2.01102 -0.428516)
(-0.232043 2.40314 -0.125827)
(-0.101981 2.49818 -0.121428)
(-0.152573 2.48211 -0.0214204)
(0.121194 2.44398 -0.0598906)
(0.376259 1.63784 -0.293926)
(0.449682 1.91249 -0.103476)
(0.290629 1.58734 -0.208537)
(-0.0208996 2.33973 0.00753894)
(-0.0629008 2.09482 -0.000270389)
(0.00931583 2.46576 -0.0354086)
(-0.0798858 2.4872 0.0221302)
(-0.035851 2.4936 0.107229)
(0.0123331 2.57616 -0.0305497)
(-0.0201218 2.44769 0.0742616)
(0.149945 -0.745324 -0.454727)
(-0.016618 -1.09232 -0.623739)
(0.0136561 -0.553376 -0.198459)
(0.206812 -0.607246 -0.731158)
(-0.0681858 -0.555179 -0.357681)
(-0.113569 -1.28646 0.0379215)
(0.0412108 -1.21603 -0.262787)
(0.0584219 -2.20836 0.00755102)
(0.0080471 -2.2144 -0.0368509)
(-0.0392475 -1.69509 -0.0607239)
(-0.0251889 -2.12946 0.185729)
(-0.0704576 -2.16692 0.177922)
(-0.0465995 -1.5103 0.462899)
(-0.117329 -1.93858 0.187008)
(-0.409731 -1.80778 0.504086)
(-0.702731 -1.50754 0.855945)
(0.0755512 -0.0392544 -0.912611)
(0.116702 0.370231 -1.79302)
(-0.110271 -0.0881538 -1.36631)
(-0.133494 0.873507 -0.980942)
(-0.0519033 0.632532 -0.88726)
(-0.0310673 1.00638 -1.36124)
(-0.0714376 0.701074 -1.28078)
(-0.062402 0.441 -0.816725)
(-0.00670291 0.288808 -0.486717)
(-0.0759546 0.222084 -1.05384)
(-0.0134698 0.401845 -0.571179)
(0.0388887 -0.0555811 -0.924407)
(-0.130238 0.204139 -0.89644)
(0.385836 0.915322 -0.900892)
(0.0331522 0.466784 -0.588772)
(-0.0229978 0.941827 -0.369344)
(0.453372 0.529649 -0.608344)
(-0.308944 0.99754 -0.23124)
(-0.23025 1.22315 -0.164189)
(-0.265214 0.991349 -0.317799)
(-0.275591 1.21139 -0.216067)
(-0.174454 0.735556 -0.536871)
(-0.17682 0.679851 -0.429715)
(0.119411 0.700548 0.049983)
(-0.193133 0.998443 0.0736452)
(-0.0902486 1.12543 -0.0190994)
(0.280961 0.757222 0.231339)
(0.429308 1.01884 0.463354)
(-0.0369908 1.41719 -0.0324602)
(-0.0617184 1.72949 0.0613666)
(-0.00603206 1.74689 0.325784)
(-0.0101935 1.39772 0.166991)
(0.0901099 0.0343835 -3.41761)
(-0.172699 -0.125158 -2.29751)
(-0.322341 -0.0740633 -1.04767)
(-0.10307 -0.0895155 -2.77804)
(0.0264354 0.148895 -3.27158)
(-0.0770715 -0.0368799 -2.23183)
(0.0652888 0.138896 -2.57757)
(0.187529 -0.0507849 -0.985983)
(-0.125354 0.102364 -1.55837)
(0.301631 0.00878772 -0.500168)
(-0.204382 0.0622815 -1.9974)
(-0.158786 0.235998 -2.2656)
(0.11255 0.904592 -2.12643)
(-0.0748415 0.314196 -2.40876)
(0.0109565 1.2933 -1.17162)
(0.176037 0.506588 -1.02698)
(0.0127532 -0.228501 -1.00398)
(-0.050454 -0.537009 -0.00818879)
(0.0485091 -0.0569571 -1.72369)
(0.257222 -0.684898 -1.39796)
(0.0783375 0.148588 -2.16595)
(0.38385 -0.553869 -1.27958)
(0.0305205 -0.196766 -1.82188)
(0.0136395 0.264509 -0.802552)
(-0.14436 0.790641 -0.479551)
(-0.0414601 0.134987 -0.960971)
(-0.325687 0.471178 -0.514817)
(0.0900087 0.212521 -0.842866)
(-0.161377 1.02897 -0.204509)
(0.250325 0.550303 -0.610469)
(0.408053 0.247124 -0.321919)
(-0.0380414 0.806068 -0.0627058)
(0.0547361 0.0911786 -0.260927)
(-0.0986225 0.981003 0.393034)
(-0.112698 0.974328 0.17133)
(-0.381326 0.902613 0.125528)
(-0.59144 0.780603 -0.298195)
(-0.0677841 0.342995 -0.246003)
(0.25531 0.29174 -0.214753)
(0.047522 -0.884497 -1.85636)
(0.334717 -1.27057 -2.94919)
(-0.109594 -0.15847 -0.670682)
(-0.250798 -0.0388632 -0.237419)
(0.00313122 -0.0614619 -0.372556)
(0.179958 -0.752575 -1.45471)
(-0.0254765 -0.534433 -0.927283)
(-0.0416302 -1.20128 -2.44579)
(0.0932858 -0.878802 -0.698671)
(-0.413573 -1.85048 -2.71211)
(0.274041 1.419 -0.915452)
(0.0390039 1.09712 -0.827532)
(0.755306 0.52737 -2.68383)
(0.0676117 0.735371 -1.74164)
(-0.321654 -0.629395 -2.75965)
(-0.166369 -0.746241 -2.97081)
(0.023183 -0.751317 -0.319981)
(-0.0592311 -1.30693 -0.160538)
(-0.064617 -1.40049 -0.0818969)
(0.08781 -0.793926 -0.12599)
(-0.00918891 -0.986687 -0.2298)
(0.057094 -1.17574 -0.320846)
(-0.141219 -0.862748 -0.277743)
(-0.00317938 -2.28397 -0.0817303)
(0.00550415 -2.24655 -0.061306)
(-0.0072689 -2.26264 -0.0796078)
(-9.36994e-05 -2.35226 -0.0970417)
(-0.00811648 -2.31812 -0.0909948)
(-0.0141732 -2.28007 -0.0855723)
(-0.00417616 -2.32041 -0.0942706)
(-0.0270541 -0.294956 1.22455)
(-0.0703348 -0.109387 0.617526)
(0.13494 -0.26579 0.533361)
(0.0544209 0.281772 1.44579)
(-0.187417 -0.196211 1.39516)
(-0.142106 0.0950602 0.8883)
(-0.208583 -0.0506605 1.05777)
(0.0738404 0.942005 1.11494)
(0.0862125 0.797311 0.603333)
(0.0905007 0.973131 0.37366)
(-0.13349 1.19011 0.788306)
(-0.211156 1.03468 1.41448)
(-0.463575 0.632578 0.987716)
(-0.081357 0.804107 0.538554)
(0.029697 3.40525 2.44422)
(0.00241252 1.25961 1.68144)
(0.157572 2.04876 1.79647)
(0.0979064 4.12189 2.99139)
(0.0398295 3.91892 3.1012)
(0.171766 2.69065 2.18499)
(0.306839 3.21207 2.31896)
(-0.0912325 4.12769 2.56239)
(-0.161757 3.6335 2.57358)
(-0.0370778 2.16387 2.07896)
(-0.211221 3.50913 2.28315)
(-0.268806 3.37559 2.34841)
(-0.0867938 1.33403 1.23375)
(-0.0239842 1.68931 0.983963)
(-0.0319923 2.06657 1.60073)
(0.209729 2.61025 1.7492)
(0.124148 2.4527 1.60035)
(0.103341 1.93745 1.28847)
(-0.0328529 0.679885 0.480871)
(-0.156712 0.661358 0.430892)
(-0.210243 0.360069 0.823204)
(0.0404648 1.3845 1.26723)
(-0.0160149 1.59461 1.74568)
(-0.0905823 0.176833 0.0862412)
(-0.107797 0.061743 -0.0799935)
(0.121831 0.235933 -0.297629)
(-0.0318533 -0.447646 0.21492)
(-0.0828962 -0.127193 -0.140991)
(-0.00443063 -0.159807 0.209376)
(0.0963802 0.164833 -0.233183)
(-0.0988981 0.806713 -0.237379)
(-0.0139575 0.841811 0.102996)
(0.032372 0.656862 -0.0928822)
(0.307462 0.0903887 -0.349259)
(-0.0699778 0.43993 -0.0548577)
(-0.194054 0.356186 -0.000993886)
(0.151699 0.0761004 -0.169804)
(-0.00462458 0.670441 0.416916)
(0.18171 1.35148 -0.384251)
(4.86602e-05 0.688512 0.209576)
(-0.114227 0.228303 0.194412)
(0.0247566 0.503071 0.0375702)
(-0.0840211 0.693716 -0.441978)
(-0.280028 -0.0579341 0.0984254)
(-0.12774 -0.354495 0.110424)
(-0.0416483 0.0844475 -0.0381328)
(0.07237 -0.564735 0.25168)
(-0.176401 0.120396 0.0884284)
(0.0911194 0.193614 -0.0335961)
(0.123023 0.733171 0.526461)
(0.110056 0.983499 0.540003)
(0.131324 0.391601 -0.0974932)
(0.16635 -0.212316 0.0155641)
(-0.170929 -0.0476856 -0.258081)
(0.209662 0.401799 -0.256315)
(0.137152 0.478108 0.0667171)
(-0.0369527 -0.149304 0.107536)
(0.00372392 3.99479 1.39694)
(-0.117072 3.50252 1.11479)
(0.0688049 4.49349 1.3654)
(-0.0885189 3.58133 0.745284)
(0.00665291 3.95177 0.919473)
(0.0412291 4.37707 0.936807)
(0.137203 4.10773 0.708907)
(0.00416643 3.6685 0.600408)
(0.0120709 3.65679 0.843394)
(-0.0786318 3.48843 0.748397)
(0.0272439 3.9902 0.306927)
(0.113963 3.94263 0.359536)
(0.0126453 3.80682 0.590417)
(-0.125051 3.63497 0.730743)
(0.179093 3.21961 0.742035)
(0.000100746 3.70479 0.989479)
(0.016782 3.77028 0.857398)
(0.00881631 4.24849 0.704214)
(0.0407257 4.15587 0.59806)
(0.0288696 4.29948 0.74382)
(-0.0409588 3.95186 0.676527)
(-0.0313732 3.62423 0.620317)
(-0.0217299 3.96924 0.714394)
(-0.0353349 3.87181 0.676444)
(-0.0147795 3.94781 0.643048)
(-0.00469685 4.16124 0.735061)
(-0.0467927 3.86939 0.801747)
(-0.0297287 4.07237 0.879438)
(-0.016092 3.87811 0.813136)
(-0.0441937 3.45401 0.650576)
(-0.057034 3.75193 0.635209)
(-0.0186664 3.90718 0.813366)
(-0.0435961 3.90833 0.64495)
(-0.0344146 3.69226 0.638361)
(-0.0214822 4.14685 0.888497)
(0.00800698 2.81776 0.425827)
(0.0385751 3.24109 0.626235)
(0.0176177 2.49293 0.425408)
(0.0435128 1.82127 0.223007)
(0.0125133 2.75615 0.308745)
(-0.00676087 1.95288 0.255166)
(0.015653 1.18869 0.484842)
(-0.0257722 -0.0522843 0.296253)
(0.0341438 -0.0342446 0.255259)
(-0.143467 -0.0447178 0.158653)
(-0.0712618 -0.388712 0.0670563)
(0.148976 -0.114371 0.12898)
(-0.196972 -0.310931 -0.0563128)
(-0.00551567 -0.130954 0.109201)
(-0.0481282 -0.0281435 0.0695453)
(-0.244477 -0.0456357 -0.0678239)
(-0.00611186 -0.236312 0.0394189)
(-0.0436379 -0.458051 0.0327527)
(0.0200611 -0.328398 0.111725)
(-0.0291223 -0.376378 0.239089)
(0.00234446 -0.20278 0.163345)
(-0.154428 -0.561516 0.204077)
(-0.112826 -0.247841 0.243604)
(-0.0253499 -0.231919 0.299242)
(-0.108949 -0.341573 0.13874)
(-0.0236678 -0.323066 0.244645)
(0.185707 -0.0492435 0.215244)
(0.0412423 -0.329336 0.251866)
(0.024883 0.0164486 -0.0175527)
(0.236477 0.0597514 0.0577768)
(0.00397383 -0.281174 0.300835)
(0.00790301 -0.352259 0.269482)
(-0.13385 -0.388287 0.381205)
(0.016121 -0.346524 0.312719)
(0.0534308 -0.302681 0.410268)
(-0.170457 -0.272706 0.381382)
(-0.0585995 -0.240705 0.388156)
(-0.00298503 -0.00476974 0.565383)
(-0.0484976 -0.0773019 0.35959)
(-0.0452242 -0.127022 0.294364)
(0.0164319 -0.246227 0.452218)
(0.0173357 -0.129684 0.55445)
(-0.0751749 0.0802719 0.336052)
(0.100884 0.0250458 0.236076)
(-0.0106855 -0.10854 0.145173)
(0.0673346 0.0221663 0.23705)
(-0.0386506 -0.021069 0.25933)
(0.119145 0.172701 0.25571)
(-0.0437564 0.161218 0.361924)
(0.00268005 0.304811 0.235689)
(0.167711 0.342282 0.361543)
(-0.0210214 -0.0176676 0.122156)
(-0.178707 0.0973507 0.198977)
(0.0615248 -0.00226958 0.14757)
(0.163368 0.410769 0.371572)
(-0.217015 0.318684 0.365166)
(0.340449 -1.82853 0.0146944)
(0.388924 -3.30681 0.651434)
(-0.0739622 -4.64401 1.05555)
(-0.325074 -3.96157 0.757177)
(0.124142 -5.52369 1.11071)
(0.135157 -4.07021 0.779317)
(-0.249834 -2.83443 0.208375)
(0.0758569 -0.237288 0.580518)
(-0.0235652 -0.158608 0.383756)
(0.118002 -0.319767 0.744399)
(-0.0769924 -0.13032 0.270795)
(-0.0697991 -0.106433 0.305352)
(0.139529 -0.215586 0.503839)
(0.0745118 -0.129301 0.390696)
(-0.0570274 0.0677197 -0.512406)
(-0.0669934 -0.132789 -0.214143)
(-0.151765 -0.120756 -0.168969)
(0.0393866 0.424114 -1.36119)
(0.0287562 0.351565 -1.16839)
(-0.0386884 0.336445 -1.06977)
(0.0442798 0.165288 -0.968655)
(-0.0237452 -0.276615 -0.168206)
(-0.115728 -0.11097 0.0787537)
(0.082607 0.943498 -0.726858)
(-0.0024807 0.971649 -0.749433)
(-0.0137999 0.831472 -0.817346)
(0.0304333 0.767587 -0.858659)
(0.0916363 0.692573 -0.844934)
(0.0784916 0.566731 -0.956077)
(0.118444 0.505295 -1.04369)
(-0.0325932 -0.602332 0.0738209)
(-0.0195804 -0.603384 0.105708)
(0.0015788 -0.628721 0.0973541)
(-0.00920994 -0.565988 0.162742)
(-0.00268201 -0.583972 0.221614)
(-0.0420831 -0.557714 0.146253)
(-0.0466024 -0.531724 0.085895)
(-0.0440787 -0.5591 0.233348)
(0.00733685 -0.543935 0.278448)
(-0.0112954 -0.494306 0.282403)
(-0.101658 -0.601532 0.0916434)
(0.0102085 -0.603052 0.168119)
(-0.00924245 -0.574195 0.0657475)
(0.0892856 -0.620236 0.0773097)
(0.00717546 -0.815929 0.181339)
(-0.0570402 -0.798072 0.124275)
(-0.0204828 -0.719949 0.337483)
(-0.0340935 -0.783107 0.182649)
(-0.0135283 -0.715864 0.219149)
(-0.0848785 -0.810202 0.202459)
(-0.10086 -0.805076 0.223967)
(0.0345261 2.05364 0.149464)
(0.151307 1.69803 0.25461)
(-0.0431153 1.72056 0.132414)
(-0.186585 1.97865 -0.0282125)
(0.213176 1.47821 0.0141339)
(-0.0634075 1.91604 -0.147341)
(0.118398 1.70151 -0.044922)
(0.0644615 1.8586 -0.319983)
(-0.0422791 1.82796 -0.288563)
(-0.0122652 1.86644 -0.119433)
(0.00233057 2.34782 0.0981793)
(-0.00293583 2.2073 0.0448527)
(0.0136051 2.02707 -0.0026542)
(0.067522 1.98925 -0.0500822)
(-0.0122338 2.19397 0.0758129)
(-0.0482821 2.11885 0.00981914)
(-0.038369 2.90455 0.0180563)
(-0.103846 2.79268 0.0691845)
(0.0749146 3.09363 -0.0143011)
(-0.00216541 3.16138 0.0576675)
(0.071541 3.23048 0.0426865)
(0.0427536 2.91927 -0.0893812)
(0.152419 2.75038 -0.0740213)
(-0.0627953 2.85352 0.00604367)
(-0.00618437 2.79081 -0.085901)
(0.116993 2.76963 -0.131468)
(0.107562 2.82622 -0.168184)
(0.0354394 2.82535 0.0710454)
(-0.0988928 2.77949 -0.0382085)
(-0.0848374 2.86857 0.0584967)
(-0.0147582 2.96869 -0.0198353)
(-0.0336611 2.92974 -0.0960079)
(-0.0475797 2.96301 -0.00997555)
(-0.0504174 2.88789 -0.0617146)
(-0.0818671 2.84075 0.065276)
(0.0259621 2.30843 -0.00199038)
(0.156875 2.89099 0.0339817)
(0.0776421 2.99127 0.0521688)
(-0.0555045 2.82109 -0.0618818)
(-0.056761 2.99234 0.00549123)
(-0.0880852 2.99837 0.0460163)
(0.0519474 2.54844 0.0174231)
(-0.0734117 2.60875 -0.0955598)
(0.0351217 1.95764 -0.019662)
(-0.049817 3.20973 -0.137371)
(0.112588 2.82787 -0.0386089)
(0.159935 2.79463 -0.024538)
(0.0309019 2.3985 -0.0117559)
(-0.00456373 2.83291 0.323784)
(0.0683282 2.05211 0.0379016)
(-0.1639 2.51492 0.0439431)
(-0.106217 2.22284 -0.297254)
(-0.0534411 1.48021 -0.00228602)
(-0.126978 1.30527 -0.153653)
(0.00925507 1.63094 -0.462764)
(-0.0413099 1.37285 -0.17062)
(-0.0959044 1.29618 -0.279927)
(0.020679 1.26727 -0.273712)
(-0.00945291 1.32316 -0.41995)
(0.0304921 2.45363 -0.0293305)
(0.0232402 3.16413 0.221237)
(-0.214721 2.3021 -0.0875575)
(-0.187741 1.69989 -0.411536)
(-0.153007 2.09467 -0.281309)
(-0.00403024 2.57827 -0.207651)
(-0.0507443 2.52504 -0.0364215)
(-0.036988 2.42166 -0.0200649)
(-0.136034 0.809539 -0.0566719)
(0.175109 0.541424 -0.0330769)
(0.0889141 0.962139 0.448518)
(-0.119414 0.457129 -0.184039)
(0.370571 0.169592 -0.0497812)
(0.322902 0.625392 -0.160453)
(-0.125352 0.711836 -0.0634625)
(-0.0665423 2.09411 0.0333858)
(0.19968 1.85049 -0.0986007)
(-0.0140935 1.99733 0.167372)
(0.0588643 0.784331 0.0988703)
(-0.126529 1.46345 0.137949)
(0.0700863 1.15839 -1.78507)
(-0.0120328 1.26105 -1.80544)
(-0.021736 1.34285 -1.52441)
(-0.208114 1.7424 -0.934256)
(0.151866 1.95295 -0.595567)
(0.466601 2.05732 -0.424658)
(0.0368235 1.59324 -1.1099)
(0.00926311 0.283098 -2.74022)
(-0.19532 0.227804 -2.43326)
(-0.300095 0.000456878 -2.31188)
(-0.0660411 -0.203153 -2.40283)
(-0.00106689 -0.0460131 -2.43916)
(-0.0211275 -0.104374 -2.47408)
(-0.0130157 -0.0875013 -2.34339)
(-0.103524 -0.137491 -2.59161)
(-0.205589 0.028079 -2.38238)
(-0.171005 -0.154164 -2.58859)
(0.101182 0.134751 -2.717)
(0.244728 -0.0702081 -2.92669)
(-0.0367312 0.170888 -2.43827)
(0.0601594 -0.015377 -2.73585)
(0.150934 -0.0776124 -2.72136)
(-0.00801439 -0.143998 -2.62751)
(-0.165833 -0.0660803 -2.48717)
(0.0991807 -0.14394 -2.64369)
(-0.0548803 -0.170438 -2.58444)
(0.120709 0.154562 -2.64616)
(0.104127 -0.00625402 -2.0396)
(0.0634591 0.0793911 -2.69814)
(-0.0492746 -0.588247 -1.79942)
(-0.115958 -0.0347083 -2.23572)
(-0.103472 -0.0792116 -1.65801)
(0.264035 -0.761537 -1.6666)
(0.334807 -0.0201284 -1.72155)
(-0.23907 0.335971 -2.0602)
(0.0156516 -0.263464 -1.62178)
(0.253083 -0.721388 -1.72973)
(0.199518 -0.155072 -1.77349)
(0.0866923 0.0283321 -2.21035)
(0.101931 -0.038046 -2.64691)
(0.0451987 -0.0132201 -1.12287)
(-0.157532 -0.148882 -2.39786)
(-0.170126 0.0287786 -2.35913)
(-0.111807 -0.194399 -2.27926)
(-0.186888 -0.197905 -2.55869)
(0.103596 -0.124848 -2.63067)
(-0.0442116 -0.0751098 -2.84857)
(0.0161567 -0.202076 -2.74987)
(0.0507527 0.368192 -1.69362)
(0.0422614 -0.229158 -2.03642)
(-0.0234558 -0.566471 -2.12465)
(-0.0308353 0.0362757 -1.12209)
(0.210918 -0.438724 -1.22518)
(0.257391 -0.567022 -1.22124)
(0.023443 -0.105725 -1.29077)
(-0.14762 -0.139862 -2.58496)
(0.0769383 -0.653585 -1.91869)
(0.019114 0.730501 -3.19152)
(0.0880725 -0.204574 -1.8853)
(0.241905 -0.733992 -1.6201)
(0.0645353 -0.848574 -1.34728)
(-0.327936 -0.834706 -1.96637)
(-0.0996639 -1.39047 -0.792428)
(-0.0471978 -0.76493 -1.23693)
(-0.127094 -1.0091 -0.812605)
(-0.0861568 -0.789143 -1.3122)
(-0.0901612 -0.429602 -1.38716)
(-0.0578699 -0.794751 -1.30678)
(-0.00376589 -0.965246 -1.23923)
(-0.0388307 -1.09499 -0.651799)
(0.00876522 -1.26196 -0.400374)
(0.0165589 -0.874583 -0.976296)
(0.083011 -0.98502 -0.776538)
(0.153751 -0.99393 -1.12862)
(0.167084 -1.39219 -0.788455)
(0.143216 -1.25201 -0.949967)
(0.248844 0.0134651 -0.195669)
(-0.193747 0.454109 -0.464726)
(-0.145354 -0.43933 -0.0639831)
(0.207391 0.0881735 -0.370472)
(0.550251 -0.440358 -0.288041)
(-0.0143417 0.602715 -0.675597)
(0.128787 0.683558 -0.430375)
(-0.0836624 -0.162533 -0.731086)
(-0.170916 -1.64461 -1.01314)
(-0.0762481 -0.306346 -0.564272)
(0.154371 -0.558418 -1.23975)
(0.179836 -1.05102 -1.09069)
(0.299379 0.613125 -0.98838)
(0.236474 0.898562 -1.1592)
(0.241083 -0.355131 -0.464397)
(0.0695043 -0.20342 -0.064048)
(-0.0617053 -0.493237 -0.411457)
(-0.304769 -0.36055 0.225324)
(-0.0931 -0.383972 -0.256117)
(-0.311299 -0.705627 -0.581816)
(-0.260104 -0.289805 -0.270877)
(0.0642102 0.129812 0.713253)
(0.0564018 -0.222516 0.655645)
(0.0716354 0.361062 0.976716)
(0.0778456 0.204388 0.211173)
(0.0519393 0.0177315 0.438471)
(0.147736 0.442714 0.261549)
(-0.0268809 0.282994 0.302943)
(0.378537 0.296856 0.802736)
(0.283502 0.254777 0.534527)
(-0.166445 0.961874 0.702579)
(-0.332864 0.84267 0.508903)
(0.0741757 0.394801 0.521211)
(-0.0121545 0.274395 0.47316)
(0.0648515 0.35934 0.849534)
(-0.15337 0.836874 0.530993)
(-0.108113 0.853313 0.927176)
(-0.348498 0.513003 0.0608561)
(-0.213737 1.00799 0.721057)
(-0.0267899 1.4437 0.582671)
(0.0324003 1.40171 0.469739)
(0.078008 1.47269 0.638)
(-0.0420267 1.42776 0.842256)
(0.0748253 1.44296 0.827812)
(0.0989859 1.37665 0.941643)
(0.0246024 1.12549 0.922496)
(-0.215511 0.365775 -0.598766)
(-0.16173 0.129774 -0.315772)
(0.256718 0.195007 -0.0754669)
(0.21334 0.954112 -0.82879)
(0.337752 1.43044 -0.912954)
(0.190931 0.510327 -0.52069)
(0.390776 0.110404 -0.266339)
(-0.227682 -0.35114 -0.732084)
(-0.10007 -0.656331 -0.698074)
(-0.0310592 -0.372725 -0.708095)
(-0.0165776 -0.462242 -0.582078)
(-0.0310771 -0.599526 -0.60921)
(0.181981 -0.399651 -0.41964)
(0.0450643 -0.500683 -0.479974)
(0.103659 0.292161 -0.526432)
(0.106641 0.155502 -0.342299)
(-0.0279603 0.716065 -0.798584)
(0.0850579 0.635114 -0.901559)
(0.226258 0.510757 -0.480609)
(-0.00626771 2.83651 2.33584)
(-0.0707752 3.16111 3.05118)
(0.0548646 3.4059 2.95118)
(0.00931704 1.73803 1.46492)
(-0.255732 1.75102 1.35774)
(-0.280401 2.6209 2.40118)
(-0.150847 2.74096 2.50925)
(0.269227 2.47924 0.988548)
(-0.0837447 1.91066 0.0529734)
(0.391417 2.46802 1.24964)
(0.0554407 1.23597 -0.776621)
(-0.0888608 1.08403 -0.582867)
(0.301136 1.9458 0.551271)
(0.191388 1.98875 0.208585)
(0.214934 0.511621 -1.14596)
(0.0288363 0.50195 -0.44211)
(-0.186442 0.265294 -1.00094)
(0.260712 0.493261 -0.812014)
(0.699471 0.691471 -1.0704)
(0.578358 0.588317 -0.97799)
(-0.0863304 0.17865 -1.22361)
(0.28122 -0.14626 0.13353)
(0.0340661 -0.693606 0.1312)
(0.245372 -0.68568 0.23295)
(0.176995 -0.0504054 -0.178362)
(-0.0759614 -0.0383766 -0.0984262)
(-0.0233892 -0.70528 0.115031)
(0.307365 0.455281 -0.0915427)
(0.0264525 -0.589689 0.458034)
(-0.680761 -0.611938 -0.0643109)
(-0.487432 -0.0232642 -0.204179)
(-0.033119 -1.39897 1.99904)
(-0.816593 -0.515544 1.50778)
(-0.0816084 -0.727491 1.31861)
(-0.524299 0.0235637 0.166789)
(-0.00482156 0.151374 0.396913)
(0.436777 -0.388071 0.0702405)
(-0.0967811 0.00564198 0.00873834)
(0.0642327 -0.424809 -0.158872)
(0.366547 -0.358141 -0.192508)
(0.126999 0.0338188 0.0285345)
(-0.316766 -0.23675 -0.267595)
(-0.153612 -0.0260622 0.0903202)
(0.0870194 -0.350374 -0.0183822)
(-0.0159041 -0.0483925 0.293745)
(0.137645 0.0735562 0.495851)
(-0.320224 -0.194565 0.190414)
(-0.368806 -0.202629 0.0217888)
(-0.0126314 0.215016 0.129308)
(-0.0636273 0.225416 -0.137842)
(0.0565033 0.191132 -0.168679)
(-0.174274 0.0227817 -0.0855287)
(0.0407144 0.0536812 0.0793507)
(-0.097552 0.0331736 0.0385665)
(0.10904 0.0208776 0.218774)
(0.046758 -0.00277211 0.116428)
(0.129129 0.159442 -0.306715)
(0.0738472 -0.446263 0.289618)
(-0.205141 0.0899521 0.243627)
(0.129539 3.19772 1.22308)
(0.0467038 3.50196 1.05923)
(0.180362 3.33133 1.51563)
(-0.0255791 4.0225 1.21457)
(-0.0838558 4.4204 1.53962)
(0.0988485 3.93906 1.6154)
(0.129807 3.69136 1.26516)
(0.0458231 4.17119 0.616021)
(0.150088 4.07995 0.635587)
(0.00825777 4.08465 0.763674)
(-0.0961027 4.06101 0.881515)
(-0.036696 4.11645 1.00863)
(0.0864383 4.24557 0.785324)
(-0.136223 4.26833 0.765527)
(-0.0163393 3.78761 0.56182)
(-0.0213243 3.45487 0.511402)
(-0.0248766 3.49828 0.470653)
(-0.0200085 3.73577 0.366771)
(-0.0357955 3.81929 0.562836)
(-0.0314077 3.62099 0.483362)
(-0.0296671 3.34307 0.356997)
(-0.027171 3.49146 0.607906)
(0.021407 3.31307 0.6975)
(-0.00940221 3.22214 0.519799)
(-0.0689669 1.02597 0.0138481)
(-0.00772129 1.07228 0.281052)
(0.053919 0.860483 -0.101743)
(0.0443296 0.959751 0.171492)
(0.0736987 0.658523 0.057473)
(0.163436 0.713723 -0.165303)
(0.162791 0.982406 -0.0444132)
(-0.0334663 1.00635 0.406798)
(0.00631862 1.07956 0.476734)
(0.0995286 0.43205 0.369363)
(0.0371505 0.856884 0.233085)
(0.0742234 -0.171399 0.0630599)
(0.174183 0.137153 0.0406048)
(0.0525173 -0.335967 0.0764129)