/*--------------------------------*- C++ -*----------------------------------*\
| =========                 |                                                 |
| \\      /  F ield         | OpenFOAM: The Open Source CFD Toolbox           |
|  \\    /   O peration     | Version:  v2012                                 |
|   \\  /    A nd           | Website:  www.openfoam.com                      |
|    \\/     M anipulation  |                                                 |
\*---------------------------------------------------------------------------*/
FoamFile
{
    version     2.0;
    format      ascii;
    class       surfaceScalarField;
    location    "0.25";
    object      alphaPhi0.water;
}
// * * * * * * * * * * * * * * * * * * * * * * * * * * * * * * * * * * * * * //

dimensions      [0 3 -1 0 0 0 0];
oriented        oriented;


internalField   nonuniform List<scalar> 
49400
(
-5.66052e-06
9.96327e-09
5.61604e-06
3.45161e-08
1.3057e-05
3.59764e-06
-2.23151e-05
1.28637e-05
2.0319e-07
-3.42037e-06
1.73171e-05
-8.28072e-06
2.02284e-05
-2.00511e-05
-2.07693e-05
5.09502e-05
-3.37742e-07
8.08852e-06
1.95866e-05
-4.99903e-05
-1.57684e-07
-6.22154e-07
-1.22891e-05
2.40642e-07
1.21408e-05
-9.22837e-08
2.62933e-05
1.1554e-05
-5.01364e-05
2.59117e-05
-1.31227e-05
1.50578e-06
2.37577e-05
-1.32635e-05
4.85903e-08
2.94622e-05
-3.11718e-05
5.68798e-05
-2.6826e-05
4.35672e-07
2.63992e-05
-8.88537e-09
9.18444e-06
1.56163e-05
-5.16267e-05
4.86369e-07
9.13375e-06
4.11618e-05
2.27374e-05
-4.82829e-05
1.73179e-05
5.02431e-05
7.67475e-06
-7.39388e-06
2.05504e-07
-3.69889e-06
2.05074e-05
6.23189e-06
9.11163e-06
1.98509e-05
8.84927e-06
4.67862e-07
-2.00236e-05
4.93802e-05
2.95139e-07
-1.06183e-11
1.56765e-10
-5.29514e-11
-8.7226e-11
1.86794e-10
-6.68199e-11
-1.22585e-10
-4.82119e-11
-6.10501e-11
-4.83145e-11
-4.72526e-12
8.03547e-12
3.95487e-12
-1.14513e-10
-3.61199e-11
-1.49416e-11
-1.00322e-10
1.03625e-11
4.62902e-12
1.25266e-11
-2.30342e-11
8.3479e-13
1.90903e-11
-1.48742e-12
1.08418e-11
1.79864e-12
-1.39122e-11
-1.41119e-11
4.60988e-11
-2.35957e-11
1.43141e-11
-5.67112e-12
2.13602e-11
-1.22438e-11
3.90408e-10
1.63332e-11
-3.06066e-10
-2.06227e-11
-6.46855e-10
-2.97161e-10
1.361e-09
-7.64586e-10
1.64761e-10
1.55932e-10
2.63636e-10
-7.03598e-10
1.66901e-10
-1.05193e-11
-2.55648e-10
1.39525e-10
-7.20136e-10
2.54189e-11
1.65757e-09
-1.33216e-09
3.14912e-11
1.95607e-09
-1.40037e-09
3.25511e-10
-9.45187e-10
5.07358e-09
2.85204e-09
6.4095e-10
-4.74051e-09
1.56845e-09
9.21363e-10
8.29902e-10
-1.55334e-09
1.30326e-09
-1.98593e-08
-1.68697e-08
-4.85387e-09
4.02457e-08
-2.76521e-09
-4.17106e-08
2.31636e-08
-2.18489e-08
1.4257e-09
4.7379e-08
2.78701e-08
-1.21191e-07
5.52751e-08
1.3143e-08
6.64984e-09
-1.77945e-09
5.61689e-08
5.98901e-16
-4.15304e-16
-2.11104e-16
8.89716e-16
-7.30468e-16
5.08054e-16
9.60356e-16
1.15912e-16
-1.34542e-15
6.90214e-16
-2.66175e-16
-5.75998e-16
-8.48401e-17
1.83229e-15
-3.53907e-16
8.5053e-16
-5.13524e-16
-5.86543e-13
-7.43413e-13
9.20185e-13
7.96655e-13
-1.37703e-12
7.65646e-13
-1.97093e-13
3.93494e-13
-3.43897e-12
-5.85753e-13
-8.8714e-14
1.41415e-12
-3.20293e-13
-3.52346e-13
4.55235e-13
-5.83046e-13
1.7705e-12
-2.29657e-06
-1.06945e-05
-5.65155e-06
1.93591e-05
8.42639e-08
-2.32677e-06
-3.0694e-08
-1.31932e-05
2.56426e-06
2.82685e-06
2.67736e-06
-7.72395e-06
2.80319e-06
-1.01137e-13
-1.03831e-05
7.80228e-06
-2.09118e-05
1.76909e-12
-5.11667e-13
-2.58027e-12
1.86883e-12
-9.0565e-13
1.91948e-12
1.09326e-12
1.79323e-13
-8.80354e-13
3.3759e-12
1.93073e-13
-7.44975e-12
1.39052e-12
4.17668e-12
-4.5881e-13
4.13852e-12
-2.76879e-13
-1.91103e-17
-3.06743e-18
-1.09469e-18
1.78459e-17
4.57034e-18
-8.55641e-18
-2.39138e-17
-5.09783e-18
1.44684e-18
9.66266e-18
7.08713e-19
-2.18061e-17
2.38723e-18
4.91411e-18
1.27203e-17
-2.76592e-17
9.79996e-18
5.01546e-15
7.86856e-15
-1.16285e-14
-1.46777e-14
2.4268e-15
-1.79027e-14
1.24469e-14
-2.74652e-14
2.65755e-14
-4.83923e-15
2.89404e-14
-5.60271e-14
2.34194e-14
-6.26598e-14
-4.01725e-15
1.85785e-15
-1.55356e-14
-1.70313e-11
5.20388e-11
1.21362e-10
-1.58113e-10
6.40143e-11
1.07046e-10
-1.89675e-10
5.08514e-11
6.21693e-11
2.07364e-11
-1.43818e-10
1.71803e-10
-1.64633e-10
2.4557e-10
4.40368e-11
-8.21527e-11
5.90706e-11
4.62789e-23
-4.0159e-24
-1.75471e-22
5.44171e-24
-1.58114e-22
-5.14372e-23
1.40409e-22
-4.34062e-24
-9.03252e-22
-1.55894e-21
4.37282e-22
2.87088e-23
1.21349e-21
-7.51519e-21
1.42831e-22
2.91957e-22
2.89727e-22
6.65614e-24
3.60375e-23
7.65537e-23
1.16084e-23
1.2011e-22
3.07703e-24
3.99611e-28
-9.68383e-24
-7.39897e-26
-5.75813e-24
-3.36398e-24
6.08755e-24
4.01372e-26
-3.10281e-23
-4.10894e-23
1.23326e-23
1.22631e-24
3.23685e-23
-2.05806e-22
-4.36924e-24
4.15726e-24
-2.46658e-24
1.44652e-23
1.32964e-22
-9.15662e-24
-3.79121e-22
2.32384e-23
-4.90919e-23
-7.62931e-24
-2.45887e-23
-1.62429e-25
-8.95829e-23
1.98976e-20
2.18022e-20
1.8234e-20
-9.64098e-20
-7.86619e-22
4.70804e-21
5.90618e-22
8.7616e-21
-8.42664e-22
-3.87586e-21
-4.14147e-21
7.68165e-21
-1.21204e-20
1.40691e-21
7.93651e-21
-1.37159e-20
6.27104e-21
1.46653e-17
-2.44177e-17
-4.19788e-17
2.28209e-17
-4.54829e-17
1.04521e-17
3.34143e-17
-3.82636e-18
-8.55469e-17
1.49768e-16
-3.28844e-17
-2.06575e-16
-1.64045e-18
1.43931e-16
-5.7698e-17
4.98016e-17
-1.19313e-16
4.20129e-10
-2.9315e-11
-5.71487e-10
2.10294e-10
-2.71648e-10
-2.25234e-10
9.40808e-10
-1.80649e-11
-1.95901e-10
-9.7119e-11
1.05585e-10
-1.41203e-11
1.77978e-10
-4.5223e-10
-2.06816e-10
9.92056e-11
-5.62984e-10
4.23404e-10
1.80192e-10
3.96981e-10
-8.77277e-10
2.2747e-10
1.52842e-09
-6.87306e-10
7.71608e-11
5.22871e-10
1.09693e-09
-8.79799e-10
1.8357e-10
-8.68836e-10
2.66425e-09
-6.13443e-10
1.67146e-09
-6.45866e-10
1.05674e-07
-1.53716e-07
-2.40198e-07
1.97361e-07
-2.35798e-07
1.18734e-07
1.65902e-07
6.63392e-08
-5.51692e-07
4.78896e-07
-2.27437e-07
-4.34666e-07
-2.1254e-08
7.57193e-07
-1.40606e-07
2.0897e-07
-3.58807e-07
-1.04939e-06
-6.19065e-07
6.15107e-07
5.1863e-07
7.37282e-08
4.73602e-06
-5.90929e-06
1.00122e-06
-1.97684e-06
-1.58106e-07
-1.61364e-06
1.71319e-06
-5.90876e-06
5.50226e-06
1.0595e-06
-3.3558e-06
2.40025e-07
-6.5388e-07
-2.29645e-07
1.45376e-08
6.68747e-07
3.30494e-07
-1.64546e-07
-1.22637e-06
-8.33417e-08
1.30418e-07
2.16357e-07
-2.12741e-08
-4.64796e-07
9.40659e-08
1.38756e-07
1.92838e-07
-5.40575e-07
2.13258e-07
-5.04041e-07
-4.6507e-06
-8.09363e-06
1.17319e-05
-4.12923e-06
-9.06171e-06
1.1402e-05
-5.713e-06
-5.39075e-06
5.58945e-07
1.17508e-05
-1.83718e-05
1.25052e-05
-1.73175e-05
3.27773e-07
2.3159e-06
3.27754e-06
-3.19627e-10
-2.97857e-11
2.46674e-10
1.02351e-10
1.94904e-10
2.0169e-10
-7.16687e-10
-2.51028e-11
1.89684e-10
2.00412e-10
-1.62675e-10
-6.30749e-11
-9.66034e-11
4.86373e-10
1.31415e-10
-9.2689e-11
2.8121e-10
1.36263e-10
1.36865e-10
2.49251e-10
-5.22287e-10
-4.90077e-12
1.32598e-10
7.09727e-12
1.36039e-10
-4.9315e-12
-5.67371e-10
-2.22351e-10
9.24576e-10
-6.65515e-10
1.10022e-10
2.51685e-10
-6.64739e-10
1.65096e-10
-1.08257e-05
-1.48153e-05
-9.08555e-06
3.45646e-05
-1.58142e-07
-3.79769e-08
-1.14787e-05
-1.44445e-05
-5.88638e-07
-1.35934e-05
1.30861e-05
-8.19672e-08
8.93907e-06
-3.41045e-05
1.06341e-05
-1.63616e-05
1.44054e-05
-7.1405e-11
7.15077e-12
6.42628e-11
-4.58329e-12
2.09564e-10
5.09403e-11
-3.18054e-10
1.38325e-10
1.04421e-10
-8.19914e-11
-1.79166e-11
1.61167e-10
-7.71686e-11
-1.31857e-11
9.26326e-11
-1.22588e-10
2.19941e-10
-3.7956e-10
-1.02053e-09
-2.8184e-10
1.69944e-09
-1.3281e-11
-3.08912e-10
6.04322e-12
-1.03991e-09
6.41867e-11
7.28803e-10
4.463e-10
-1.45103e-09
9.21526e-10
-2.47429e-10
4.69526e-10
-1.02644e-09
1.02965e-09
-1.87566e-08
-5.2754e-09
3.90281e-09
1.63943e-08
1.20658e-08
4.12547e-09
-3.96649e-08
-3.66237e-10
5.16154e-09
5.67348e-09
-4.34634e-09
-2.32319e-09
-3.16479e-10
8.31216e-09
7.32134e-09
-8.69019e-09
8.99065e-09
-2.49465e-08
1.7965e-08
1.01994e-08
-1.52649e-08
6.16395e-08
-2.08111e-08
-9.46975e-08
-2.26768e-09
6.68098e-08
-1.81733e-08
9.47255e-09
1.25003e-08
4.30689e-09
-4.99969e-08
1.31647e-08
-3.87034e-08
1.43181e-08
-3.90289e-07
-2.33632e-07
3.47728e-07
1.59057e-07
4.04325e-07
5.27916e-07
-1.39184e-06
3.27714e-07
-3.2136e-07
-7.75031e-08
-4.05624e-07
7.95725e-07
-8.45986e-07
8.76782e-07
2.65484e-07
-5.2464e-07
1.29447e-07
-3.02141e-07
-1.82978e-07
-6.44002e-07
1.02003e-06
-6.7008e-08
5.68032e-08
-3.61777e-07
-2.31353e-07
-4.74188e-09
-7.79572e-07
2.17433e-07
-7.01769e-08
-1.05558e-06
-7.47803e-08
4.28966e-07
9.16864e-07
3.66208e-07
-1.7008e-06
6.26708e-07
-7.71752e-07
5.64407e-07
-7.40119e-07
2.26685e-06
-2.0254e-06
1.63086e-06
5.97377e-06
-9.69887e-06
6.86601e-06
1.10032e-05
3.62547e-06
-6.86542e-06
-7.76179e-06
-4.52944e-06
2.4555e-07
1.51881e-05
-6.00834e-06
4.80305e-06
1.2368e-05
1.91199e-08
-1.83914e-05
4.39433e-06
1.27546e-05
-1.08196e-05
1.53746e-05
-1.76645e-05
-6.4514e-07
-5.5479e-06
-1.26508e-05
1.88641e-05
-5.10954e-06
-1.32414e-05
1.72846e-05
-6.39872e-06
-4.86195e-06
1.26908e-06
8.98229e-06
-1.67238e-05
9.05282e-06
2.96404e-07
-4.52339e-06
-3.36241e-06
6.70196e-06
1.45873e-05
-2.66249e-06
-1.86198e-05
5.98129e-06
-6.55123e-06
5.89667e-06
2.39099e-06
1.78823e-05
1.58867e-05
-2.95866e-06
-1.95468e-05
2.27701e-06
2.01231e-05
-1.04897e-05
1.52576e-05
-1.60784e-05
-3.93398e-07
3.91581e-06
3.17108e-06
-1.12617e-07
3.30183e-06
-2.76974e-08
-2.23682e-06
7.52874e-07
1.60018e-05
-4.80519e-07
1.13029e-06
1.08173e-05
-6.53469e-08
-4.14896e-07
2.97773e-07
-3.62973e-07
7.85888e-06
3.4823e-07
8.90413e-08
3.89791e-08
-4.56588e-07
-1.7412e-06
1.84035e-07
2.09939e-06
-5.90569e-08
1.36897e-06
2.66491e-07
-7.37994e-08
-2.28015e-07
1.3935e-07
1.88478e-06
-1.27319e-07
4.63568e-07
-1.44179e-07
-4.40599e-08
8.08166e-07
4.80429e-07
-5.56664e-08
1.32979e-07
9.3253e-09
-1.73331e-07
7.91496e-08
9.2982e-07
-2.0218e-07
5.40999e-09
7.05505e-07
-4.4189e-08
-1.91214e-07
4.53695e-08
-7.76846e-08
8.96886e-08
4.51394e-08
1.52237e-07
-3.10509e-08
-1.44826e-07
1.2204e-07
-1.21799e-07
1.70571e-07
5.47819e-08
2.93314e-07
4.13634e-07
-7.33598e-08
-4.48653e-07
5.15786e-08
5.52283e-07
-1.94815e-07
3.49253e-07
-2.49532e-07
-3.42907e-10
-1.4416e-08
-1.02567e-12
1.13653e-08
-1.85841e-08
1.45898e-08
-1.66526e-10
2.18905e-08
-5.61343e-08
8.05552e-08
-8.36801e-08
-7.5878e-09
-1.84245e-08
1.06088e-07
-6.21684e-08
5.54706e-08
-1.30134e-07
-5.76994e-10
-7.6716e-10
-5.79287e-10
2.19184e-09
-2.22519e-10
-6.21935e-10
8.62032e-10
-4.01085e-10
-1.02387e-10
2.67982e-10
5.04833e-10
-7.85134e-10
5.1329e-10
-1.5259e-10
1.99453e-10
-3.15912e-10
3.46491e-10
-1.18215e-14
3.14253e-14
9.56141e-14
-8.34441e-14
5.30694e-14
6.39837e-14
-1.55459e-13
1.17239e-13
2.25439e-13
1.24277e-14
-6.32056e-14
2.08974e-13
-2.18779e-13
5.63008e-13
-1.01955e-14
3.16798e-16
-1.16146e-13
-1.10754e-15
-1.95616e-16
1.12262e-16
7.13671e-16
4.52181e-16
-2.23324e-16
-2.27201e-15
-5.72579e-16
2.13422e-16
1.43049e-15
-2.73799e-16
-2.68399e-15
1.16382e-16
9.8181e-16
9.24602e-16
-2.14666e-15
7.51406e-16
2.6703e-14
-7.05917e-15
1.20314e-14
-6.56957e-14
-3.98792e-14
-1.03938e-14
5.31379e-14
-4.04049e-14
-4.37795e-14
-9.60815e-14
3.00553e-14
3.93062e-14
1.88773e-14
-2.63833e-13
-5.51342e-14
4.73607e-14
-1.27596e-13
6.85638e-16
4.28543e-15
-6.54745e-15
-1.22603e-15
7.02172e-15
1.92505e-15
-1.99346e-14
-3.20979e-15
1.02457e-14
-3.18321e-14
1.17846e-14
9.23257e-15
1.39507e-14
-9.25532e-14
-6.93016e-15
9.91177e-15
-4.775e-15
6.08252e-18
4.93978e-18
4.96117e-18
-2.55366e-17
1.33066e-19
2.5368e-18
-2.13075e-19
1.22301e-18
1.16709e-19
-8.21028e-19
-8.79312e-19
1.77749e-18
-2.34499e-18
2.19239e-19
-1.59719e-18
1.64013e-18
-1.74562e-18
2.51558e-20
1.04541e-21
-6.51329e-20
-4.14064e-21
-3.92962e-20
-1.7969e-20
4.59905e-20
2.88341e-21
-1.82559e-19
-2.92472e-19
9.60714e-20
2.14757e-20
1.71904e-19
-1.13366e-18
-6.47742e-20
7.02916e-20
-8.83463e-20
-1.4354e-22
2.381e-21
-7.44371e-21
4.39145e-22
1.8771e-21
-9.27796e-21
-1.83574e-22
-1.88082e-21
3.24239e-21
8.62018e-21
7.11105e-21
3.08615e-21
-5.21565e-22
-2.79846e-21
6.89954e-22
-1.31828e-20
6.91895e-21
-1.832e-19
7.62144e-20
-8.94379e-21
-1.66768e-19
5.79221e-21
4.05314e-20
1.96101e-19
-8.97671e-19
2.51478e-20
-7.81383e-20
1.08508e-20
-2.88663e-20
5.59305e-20
-3.15186e-20
3.24645e-20
-1.11733e-20
-7.26836e-21
-2.70627e-22
1.95371e-22
1.62109e-21
7.96135e-21
6.61561e-21
-3.62697e-20
3.07128e-21
-3.58797e-22
1.24246e-21
-4.0409e-21
4.32447e-22
-1.37091e-21
2.47734e-21
2.65317e-21
-4.37801e-21
2.09036e-21
-9.22705e-21
6.93494e-22
2.05035e-21
-8.44018e-22
1.65018e-20
3.09786e-21
-4.87315e-20
3.65796e-21
4.34361e-21
-3.75437e-21
-6.28923e-22
3.74916e-21
-3.18754e-21
-7.65334e-21
4.46922e-21
-9.97576e-21
4.33837e-21
-2.05072e-17
1.52591e-17
7.27627e-18
-2.34978e-17
8.63013e-17
-2.72339e-17
-1.09755e-16
-3.83015e-18
8.46557e-17
-4.43207e-17
1.18116e-17
2.44263e-17
3.12619e-18
-9.29908e-17
4.07577e-17
-8.41812e-17
3.54041e-17
-5.04092e-17
8.92369e-18
5.5179e-17
-2.71188e-18
7.05421e-17
5.75354e-17
-2.17052e-16
6.72845e-17
1.30039e-17
-3.13288e-17
-3.24776e-17
1.31522e-16
-3.9054e-17
3.50657e-19
2.15605e-17
-1.44841e-17
6.08967e-17
1.15383e-05
3.5558e-08
-1.13972e-05
-1.74334e-07
-8.41703e-06
-8.6386e-06
2.87453e-05
-9.39318e-06
7.03957e-08
1.30879e-05
9.16323e-06
-3.3635e-05
1.35453e-05
-6.30966e-07
-6.60153e-06
1.14273e-05
-6.15658e-06
-7.47043e-11
-2.86255e-09
-3.39859e-09
6.83947e-09
-1.2323e-09
-2.73459e-09
6.37211e-09
-9.95026e-10
-3.09506e-09
-4.70627e-09
3.28076e-09
4.57074e-10
1.78085e-09
-1.01805e-08
1.03196e-09
-1.01909e-10
9.49837e-10
-8.96948e-10
7.50473e-09
-3.28853e-09
1.48967e-09
1.00779e-08
-1.89118e-09
-5.25892e-09
-3.82003e-09
2.30298e-08
-7.75057e-09
1.26309e-08
-1.18513e-10
4.46763e-09
-1.92408e-08
-2.41454e-09
1.30394e-08
-1.1812e-09
2.40764e-10
9.16634e-08
2.45623e-07
-3.45712e-07
7.83488e-08
1.19371e-07
-2.20355e-07
7.75435e-08
7.64801e-08
1.02669e-08
-9.56628e-08
1.50491e-07
-2.03304e-07
3.30371e-07
-1.76762e-08
2.94825e-08
6.23373e-09
1.04121e-07
3.90271e-08
1.17683e-07
-3.15297e-07
-1.13759e-07
8.34981e-08
1.14829e-07
1.45876e-07
-3.19556e-07
5.71977e-08
-5.82733e-08
7.62217e-08
-7.11907e-08
2.23604e-07
2.36978e-07
-2.8373e-07
-3.53068e-08
-1.3344e-07
2.68436e-07
-4.30366e-07
3.55586e-07
-7.70993e-07
1.84639e-09
2.90892e-08
-1.63195e-07
3.78666e-07
1.15398e-07
9.10362e-08
-3.79843e-07
-1.36886e-07
3.69871e-07
-2.80463e-07
-3.59478e-08
3.29792e-07
-2.54491e-07
-4.34802e-07
5.8524e-07
-3.06323e-07
-4.47467e-07
-1.25204e-07
1.02128e-06
-1.74129e-07
1.24247e-08
-7.33448e-07
1.56308e-07
7.42483e-07
2.01427e-07
-1.18709e-06
2.24537e-07
-9.21057e-07
4.44992e-07
-3.10734e-07
-1.50752e-07
-5.25776e-09
6.9832e-09
2.34013e-08
-2.54571e-08
1.38293e-08
2.20233e-08
-3.60773e-08
6.89211e-09
5.92851e-09
1.82573e-08
-2.03855e-08
2.00708e-09
-2.73035e-08
3.73183e-08
-1.93015e-10
-7.28617e-09
-3.8981e-09
-9.89801e-10
2.26704e-08
1.20392e-08
-8.70343e-09
1.0445e-08
-8.12403e-09
-1.90863e-09
-4.95131e-09
4.0131e-08
-2.41659e-08
1.27778e-08
3.18723e-08
4.65102e-09
-3.06693e-08
9.02309e-09
-1.16501e-08
1.83787e-08
1.28496e-11
3.32891e-12
-1.9447e-11
-2.11263e-12
-1.47759e-11
-1.21602e-11
3.65532e-11
-3.13866e-11
1.07504e-11
1.87633e-11
3.01168e-11
-7.25578e-11
2.05036e-11
-7.1901e-12
-2.32062e-11
2.88806e-11
-4.55278e-11
2.13768e-11
2.02801e-12
-2.04531e-11
-4.29601e-12
-1.60498e-11
-3.27434e-11
7.12806e-11
-2.02277e-11
5.54312e-12
4.73914e-11
2.19818e-11
-8.14351e-11
9.85261e-11
-4.33133e-11
-1.14464e-11
8.27e-11
-1.02003e-11
9.64775e-13
-2.94507e-12
-2.48021e-12
2.5572e-12
-5.33119e-12
1.98574e-12
3.14782e-12
7.06741e-13
-1.00635e-11
6.51618e-12
-3.67114e-12
-7.97805e-12
-5.95829e-13
8.25363e-12
-3.90646e-12
4.37946e-12
-8.57854e-12
-1.64916e-11
-1.29292e-11
-2.67291e-12
3.63565e-11
1.25655e-12
-8.4462e-12
-9.36567e-12
-1.68258e-11
7.15558e-12
3.14996e-11
6.07974e-12
-4.90613e-11
1.07953e-11
3.20611e-11
1.74268e-11
-1.62171e-11
2.57092e-11
1.96624e-15
-4.52819e-15
-3.57004e-15
6.25646e-15
-7.95812e-15
4.16559e-15
4.97356e-15
2.77117e-15
-1.7153e-14
1.53726e-14
-6.58688e-15
-1.09811e-14
-2.64927e-15
2.50948e-14
-4.89918e-15
6.24302e-15
-9.1719e-15
-2.5571e-12
-2.65337e-12
-3.28648e-13
3.74018e-12
8.6653e-13
-2.2874e-12
-3.9156e-12
-6.43568e-12
1.59574e-12
8.67352e-12
4.72845e-13
-2.11387e-11
1.89665e-12
4.89692e-12
4.13357e-12
-9.00178e-12
3.89145e-12
-2.14331e-14
-3.57313e-14
-2.03406e-14
5.65153e-14
-1.2874e-15
-3.33385e-14
1.36736e-15
-9.08808e-14
-1.40621e-16
1.7442e-13
1.23394e-13
-5.6048e-13
7.74054e-14
1.33852e-14
-2.52644e-14
5.91144e-14
3.87765e-14
-2.8539e-18
2.23846e-17
-5.92835e-17
6.98737e-18
2.29916e-17
-8.16843e-17
-3.21633e-18
-1.67385e-17
4.2405e-17
1.12553e-16
6.76682e-17
-3.75058e-16
5.14145e-17
-3.0252e-18
6.53194e-17
-1.06233e-16
6.78508e-17
-1.02687e-22
-1.90989e-22
-8.52863e-23
3.95256e-22
1.13852e-23
-9.508e-23
-1.68963e-23
-1.90869e-22
2.13056e-23
2.76944e-22
1.28705e-22
-7.15822e-22
2.02163e-22
7.21423e-23
8.22049e-23
-7.07108e-23
2.0029e-22
-8.74633e-21
-1.58533e-20
-8.3752e-21
3.60559e-20
9.91207e-22
-6.02507e-21
-1.89151e-21
-1.14729e-20
2.14596e-21
1.37092e-20
4.76556e-21
-2.74178e-20
1.20001e-20
6.04044e-21
4.46275e-21
-4.52254e-21
9.86759e-21
1.62387e-11
-2.53018e-13
-6.5976e-12
6.74883e-12
-2.40487e-12
-5.54342e-13
2.76026e-11
-7.83223e-13
-1.59233e-12
1.71892e-11
9.1016e-13
-1.83525e-11
8.50506e-12
2.16226e-11
-1.66868e-12
1.31383e-11
-1.09444e-12
1.45809e-09
-3.65889e-08
1.66688e-08
2.99632e-10
-1.63348e-08
1.9901e-08
9.23072e-10
6.23207e-09
-3.71224e-08
-2.58047e-08
-1.35478e-08
6.0964e-08
-2.2083e-08
-4.33973e-10
-2.07949e-08
2.61384e-08
-1.82921e-08
-4.69774e-09
2.17853e-10
6.20649e-09
-1.42914e-09
4.34454e-09
3.97802e-09
-1.27005e-08
-2.71085e-10
5.38599e-09
6.35607e-09
-7.28817e-09
9.6739e-10
-5.0639e-09
1.72532e-08
3.01136e-09
-6.42439e-09
4.31432e-09
-8.66775e-09
-1.37736e-08
-1.82059e-09
2.3091e-08
9.40784e-10
-6.3906e-09
-3.33464e-09
3.2111e-09
-8.29956e-09
-2.27911e-08
1.21971e-08
1.54565e-08
4.65392e-09
-3.59746e-08
6.14092e-09
-8.05507e-09
1.66463e-08
1.16199e-08
1.08504e-08
-2.69502e-08
-2.05116e-09
1.20575e-08
-7.34136e-09
4.10209e-09
-3.40112e-09
2.4322e-08
2.75929e-09
-1.31513e-08
1.07327e-09
3.1191e-08
-3.24214e-08
7.94955e-09
2.26604e-08
-4.04323e-08
-9.86925e-08
-2.26361e-07
-2.31494e-07
4.90498e-07
-9.31997e-08
-1.00164e-07
5.50875e-08
-2.75342e-07
-1.23373e-07
-1.33282e-07
4.65421e-07
-7.70917e-07
1.79942e-07
-5.05014e-07
4.78415e-08
6.66036e-09
1.79711e-07
6.0103e-06
8.3996e-06
-5.614e-06
-8.06665e-06
2.93138e-06
-1.22417e-05
1.56966e-05
-1.1481e-05
2.35272e-05
-3.87728e-06
1.80875e-05
-1.8522e-05
1.28897e-05
-2.43517e-05
3.6689e-06
-1.68573e-06
1.05698e-05
-2.56863e-06
-7.33726e-06
3.88404e-06
5.99656e-06
-6.79913e-06
9.85013e-06
-5.63595e-06
8.62594e-06
-2.26204e-05
4.26791e-06
-1.25482e-05
1.21303e-05
-7.93683e-06
1.81852e-05
-7.04431e-06
9.06352e-06
-1.09151e-05
-7.49591e-10
7.71319e-09
1.08224e-09
-7.79688e-09
5.76526e-09
-4.56913e-09
-1.94319e-09
-3.46864e-09
1.65603e-08
-8.29741e-09
8.71321e-09
8.21594e-10
4.34768e-09
-2.02864e-08
4.64736e-09
-4.36813e-09
1.02504e-08
-3.20986e-08
-1.29451e-09
3.1804e-08
2.398e-10
2.71249e-08
5.24807e-08
-1.09454e-07
-1.05719e-08
3.51873e-08
1.65148e-07
-1.67039e-07
-1.26241e-08
-5.67458e-08
2.56388e-07
6.75088e-08
-1.96587e-07
3.98006e-08
1.78919e-07
-1.78224e-05
1.82902e-05
-6.1082e-07
-1.45047e-05
1.45804e-05
8.17073e-08
1.09423e-05
-4.32807e-05
-1.76657e-05
-1.0872e-05
4.32678e-05
-1.78217e-05
2.23195e-07
-1.48089e-05
2.22262e-05
-2.16968e-05
-6.85471e-11
4.26511e-12
9.07948e-11
-7.91927e-13
3.46136e-11
2.49823e-11
-1.10411e-10
3.90314e-12
1.4846e-10
1.61011e-10
-7.37468e-11
-2.71696e-12
-5.31482e-11
4.67127e-10
4.40413e-11
-8.06311e-11
9.3237e-11
2.7301e-11
-2.71092e-11
-8.57455e-11
4.4243e-11
-4.47194e-11
-6.38453e-11
1.09368e-10
-1.06828e-10
-3.15349e-11
4.2634e-11
5.85891e-11
-2.42963e-10
6.19681e-11
-3.42676e-11
-2.66737e-11
3.30196e-11
-7.91344e-11
-1.85937e-12
-3.73041e-13
5.41686e-13
9.19446e-13
1.88263e-12
3.73292e-13
-5.78782e-12
-6.04883e-13
8.94654e-13
1.36677e-12
-1.00321e-12
-2.11631e-12
-3.1122e-13
1.75332e-12
6.26094e-13
-1.98919e-12
4.68267e-13
-2.34628e-12
-3.61238e-14
1.56658e-12
2.4329e-13
2.08186e-12
2.4823e-12
-7.09849e-12
1.78089e-12
3.658e-14
-2.72361e-12
-2.58127e-12
6.02245e-12
-5.72859e-12
1.98857e-12
2.51062e-12
-6.56699e-12
1.24615e-12
5.64363e-13
3.61722e-12
-4.86907e-12
2.39597e-12
-7.02877e-12
4.28366e-12
6.52535e-12
1.57157e-11
-3.01568e-11
-1.6028e-12
1.29973e-13
1.30728e-14
-3.78749e-13
2.62464e-17
-1.83097e-13
-6.84848e-14
3.20294e-13
-3.27855e-13
4.71479e-14
5.90141e-13
9.84878e-13
-2.36944e-12
2.10533e-13
5.27813e-14
-3.24422e-13
3.88366e-13
1.57405e-13
4.17037e-13
1.25097e-13
-8.68415e-13
-1.57387e-13
-1.01028e-12
5.08237e-13
3.30564e-13
-2.13098e-12
5.29186e-13
-4.14234e-14
-1.83931e-14
-3.73416e-14
7.18001e-14
-1.38772e-15
-9.76716e-14
1.77535e-14
1.20822e-13
-2.21411e-13
1.01011e-13
-5.46834e-19
1.24806e-20
8.75272e-19
-2.11066e-20
5.41713e-19
2.86787e-19
-1.237e-18
1.26152e-18
1.34379e-19
-4.20082e-19
-1.16416e-18
2.6318e-18
-3.08472e-19
-3.81278e-20
1.45112e-19
-1.12264e-19
5.23911e-19
6.24145e-15
1.09259e-12
-1.16431e-12
-2.00331e-12
2.56375e-13
-5.09671e-13
-3.66683e-14
-1.16898e-12
1.21556e-12
-7.65201e-12
1.56829e-12
3.7599e-14
6.82302e-12
-2.18013e-11
-3.89458e-13
1.8136e-13
1.71327e-12
1.37213e-12
-4.33846e-13
-9.62365e-13
5.79553e-13
-2.1888e-12
9.88839e-14
3.79551e-12
-7.25982e-13
-2.41379e-12
3.92371e-12
-2.51802e-14
-4.0208e-12
1.00765e-12
3.74338e-12
-1.16643e-12
2.09793e-12
-1.60447e-12
-1.1072e-12
-5.1993e-13
-6.30759e-13
2.32203e-12
8.06406e-13
-1.63146e-13
-1.40115e-12
-1.92868e-12
-2.97543e-13
3.366e-13
-2.49103e-13
1.837e-12
-3.3085e-12
6.66431e-13
-5.53996e-13
3.33664e-13
-6.1247e-10
-5.13806e-10
1.54462e-11
6.8713e-10
-2.62002e-10
-1.59433e-09
5.12635e-10
-3.93295e-10
-1.0547e-09
3.0369e-09
2.82053e-10
-6.30057e-09
2.85314e-10
2.32628e-09
8.12771e-10
-1.27557e-09
7.97358e-10
1.28557e-09
2.37877e-09
1.03777e-11
-3.6973e-09
9.64728e-10
1.06623e-09
-1.25771e-09
7.49594e-10
2.56625e-09
-3.23505e-09
2.74697e-10
4.00918e-09
-1.00279e-09
-3.51369e-09
-2.08056e-09
3.09321e-09
-3.08971e-09
2.8282e-08
1.21388e-08
-6.99465e-09
-7.55114e-09
-2.56326e-08
-3.6777e-08
1.37573e-07
-1.22478e-08
1.50003e-08
7.45855e-09
8.14731e-09
-2.27377e-08
2.42999e-08
-1.46071e-08
-5.53081e-09
9.02083e-09
-1.00322e-08
-1.36893e-08
-9.16018e-09
1.33711e-08
1.24424e-08
6.93458e-09
2.46023e-09
-2.27725e-08
-4.99353e-09
2.07221e-08
2.96732e-08
-6.89599e-09
-1.42968e-08
-3.58962e-09
7.56856e-08
8.03668e-09
-1.24518e-08
1.78388e-08
1.49016e-09
-3.58581e-08
1.93996e-10
3.43279e-08
-5.36383e-08
4.8469e-08
6.76245e-09
3.78523e-08
-1.2724e-07
3.7083e-08
-4.0554e-08
2.40476e-09
-2.46291e-08
9.83007e-08
-3.1505e-08
5.541e-08
-3.41383e-08
5.49403e-08
-5.95921e-08
2.83599e-09
-7.64033e-08
2.31606e-07
6.50616e-08
-1.62194e-07
6.49568e-08
3.04558e-09
4.41472e-08
-5.70983e-07
1.55793e-07
5.99484e-07
-2.53942e-07
9.7822e-07
2.65306e-06
-3.93722e-06
7.24358e-07
3.21095e-07
-5.01544e-07
-1.0049e-06
1.29616e-06
-2.38647e-06
1.31444e-06
1.32867e-06
-4.3033e-06
5.37994e-07
5.64343e-08
-9.70276e-07
-2.43063e-06
1.94982e-06
-9.00075e-07
-1.08921e-06
1.03501e-06
-9.12435e-07
-2.52559e-06
-2.78561e-07
1.05179e-06
-3.23171e-06
4.24669e-06
-1.24363e-05
-7.16286e-07
2.44409e-07
-2.14371e-06
-1.4478e-06
-2.04585e-06
1.67095e-07
3.53279e-06
3.99545e-07
-1.19929e-07
-1.91834e-06
-1.42999e-07
1.71319e-06
5.66224e-07
-1.46791e-07
-5.96486e-07
9.07985e-08
2.45581e-06
5.51433e-07
-7.23027e-07
9.00553e-07
3.07606e-08
-2.15399e-07
3.28499e-07
-1.33842e-07
-3.27211e-07
3.39241e-07
2.57159e-08
6.20746e-07
-1.1498e-06
-1.3046e-06
-5.74589e-07
2.15358e-06
-1.50365e-06
-4.74731e-08
-5.76726e-07
2.98668e-07
-1.63799e-06
-1.21145e-10
-1.21408e-10
1.58177e-10
2.81627e-10
4.39028e-11
2.56622e-11
-1.50863e-10
-3.93876e-11
1.94635e-10
1.09364e-10
-9.56253e-11
-4.96823e-11
-2.79405e-11
4.31397e-10
4.79631e-11
-8.97567e-11
2.75981e-10
-4.80892e-08
-6.1629e-08
-3.94153e-08
1.51e-07
-9.07338e-11
-4.07566e-08
-5.30235e-09
-5.79654e-08
-9.19448e-10
1.44814e-07
2.97006e-08
-2.2826e-07
1.61201e-07
-1.87826e-08
5.23525e-08
-5.99057e-08
1.74235e-07
4.87531e-08
2.14419e-09
-5.27299e-08
-1.03801e-09
-8.21289e-08
-4.91503e-08
1.81312e-07
-1.07421e-07
3.17797e-08
4.28833e-08
1.03197e-07
-2.02813e-07
4.58648e-08
-5.85473e-09
-2.84558e-08
2.5204e-08
-3.2771e-08
-6.90558e-10
-6.92509e-10
-3.15359e-10
2.08279e-09
7.18159e-11
-2.57906e-10
-1.49859e-10
-2.69796e-10
6.93883e-11
4.92328e-10
1.94878e-10
-8.85906e-10
4.53149e-10
5.5666e-11
1.46741e-10
-1.8675e-10
2.89761e-10
6.88292e-10
-1.54449e-09
-9.75945e-10
1.66914e-09
-3.58234e-09
1.16034e-09
2.42131e-09
1.80709e-10
-6.74434e-09
2.9555e-09
-1.49572e-09
-2.51943e-09
-5.73956e-10
5.13285e-09
-1.67766e-09
2.23822e-09
-3.03292e-09
-1.45072e-09
-1.21189e-11
6.38608e-10
1.32291e-10
1.10322e-09
1.63464e-09
-5.01225e-09
7.43946e-10
3.72197e-11
-5.38827e-10
-6.18968e-10
1.27374e-09
-1.56876e-09
3.9313e-10
7.12651e-10
-1.48411e-09
4.33012e-10
4.53453e-10
1.21026e-09
-3.82524e-09
5.99061e-10
-1.55164e-09
5.2551e-10
1.49986e-09
6.93069e-09
-2.20828e-08
-4.28187e-10
-3.74636e-13
5.84876e-13
3.48158e-13
-1.57813e-12
1.06278e-12
-1.16978e-12
-1.23734e-12
-1.01293e-13
1.14422e-12
-2.10394e-12
3.13244e-13
1.45926e-12
1.83068e-13
-5.26052e-12
1.8226e-12
-4.32009e-12
1.34552e-12
-7.16733e-15
-2.29289e-15
2.65723e-15
2.10632e-15
1.40839e-15
1.18974e-14
-2.80687e-14
4.76794e-15
-8.57122e-15
-7.48413e-16
-5.14067e-15
6.00293e-15
-9.17477e-15
6.97331e-15
-6.92694e-16
-6.56905e-18
-2.83237e-15
-8.01069e-18
-3.03696e-18
2.06001e-18
1.54191e-18
2.20945e-18
1.44113e-17
-4.19074e-17
7.49002e-18
-1.87755e-17
-6.85594e-19
-4.09978e-18
3.94326e-18
-8.93706e-18
5.25741e-18
4.2066e-19
-1.04916e-18
2.95249e-19
4.28379e-19
1.56804e-17
-1.85917e-17
-2.67868e-17
1.5402e-17
-2.86844e-17
6.42882e-19
-5.70385e-16
-5.09642e-16
7.71862e-18
-7.18466e-17
-3.54326e-16
-7.14049e-16
-1.08829e-15
-5.31125e-15
-1.67501e-15
-1.15244e-16
6.27757e-15
1.12677e-15
-1.79179e-15
-7.53026e-15
1.14649e-16
-2.71983e-15
4.14118e-15
-3.37596e-15
-4.36596e-15
-2.96172e-15
6.21217e-15
-5.46111e-15
-1.519e-14
-4.05984e-14
-3.38377e-14
-1.97287e-14
-4.95462e-14
-7.03326e-14
-1.23423e-05
-1.00765e-05
-1.03915e-05
3.28155e-05
-3.39538e-07
-1.28939e-05
8.92419e-07
-9.86591e-06
-5.45235e-07
9.59372e-06
7.57927e-06
-2.70429e-05
1.02352e-05
-1.20046e-06
5.48241e-06
-1.07961e-05
5.32472e-06
2.01602e-12
-7.00129e-12
-2.12169e-11
3.37054e-11
-1.69148e-11
-1.52154e-11
6.79136e-11
-2.17081e-12
-1.12042e-11
-3.02947e-12
1.10266e-11
-8.69666e-12
1.95955e-11
-2.6667e-11
-5.91643e-12
5.54741e-12
-7.33304e-12
2.10815e-14
1.7375e-14
-1.11112e-14
-1.38703e-14
-7.98347e-16
-4.12221e-14
6.81023e-14
-2.01051e-14
3.75907e-14
2.42176e-15
1.65355e-14
-2.54954e-14
3.88871e-14
-4.4085e-14
-2.54556e-15
4.70672e-15
-4.39474e-15
1.05148e-11
1.73236e-11
4.1446e-12
-3.827e-11
3.31039e-12
5.22787e-12
-1.02332e-12
2.01907e-12
1.58546e-11
-6.96813e-12
-1.38517e-12
1.02022e-11
-8.00913e-12
-1.81509e-12
-8.50026e-12
6.9992e-12
-1.64848e-11
-1.80559e-10
-5.94932e-10
-8.14852e-10
1.13627e-09
-2.57962e-10
-1.61272e-09
1.50022e-09
-9.2441e-10
-1.65726e-10
5.65246e-10
2.04143e-09
-4.41566e-09
7.40931e-10
-5.10362e-10
3.9188e-10
-3.67175e-10
2.75084e-10
1.49925e-09
5.1305e-09
-5.38758e-09
-7.04618e-09
3.7548e-09
-8.4915e-09
2.88979e-09
-5.12041e-09
9.70352e-09
-5.86098e-10
1.04291e-08
-2.54979e-08
1.14457e-08
-2.55866e-08
2.46342e-09
-4.21821e-09
4.52442e-09
3.82021e-08
4.0086e-08
4.20886e-08
-1.20129e-07
8.97323e-09
5.41691e-08
-2.46841e-08
3.93037e-08
1.019e-08
-3.7542e-08
-4.29061e-08
1.20001e-07
-6.11151e-08
3.40361e-08
-2.864e-08
4.0093e-08
-4.75149e-08
1.07774e-07
8.8078e-08
7.52586e-08
-2.70256e-07
6.48966e-09
1.11595e-07
-9.38937e-09
8.43186e-08
1.1661e-08
-9.85181e-08
-6.48188e-08
2.4851e-07
-1.15455e-07
2.95192e-08
-9.90562e-08
1.46545e-07
-1.32135e-07
-5.78941e-10
-4.08107e-11
2.32813e-10
1.78747e-10
5.30006e-10
2.40586e-10
-1.6512e-09
-1.57948e-11
2.80071e-10
1.85884e-10
-2.59872e-10
-7.71288e-11
-1.85044e-10
4.98405e-10
1.83334e-10
-3.35805e-10
1.29339e-10
3.01948e-07
-4.13365e-08
-2.69253e-07
1.57382e-08
-1.03075e-06
-5.09357e-07
1.79474e-06
-1.29279e-06
2.1097e-07
2.91378e-07
7.00745e-07
-1.2415e-06
3.19007e-07
-8.31664e-09
-4.2225e-07
2.09763e-07
-1.10809e-06
-9.17574e-06
3.54683e-09
9.01333e-06
1.48095e-07
1.99886e-05
5.95857e-06
-3.51289e-05
1.98421e-05
1.04959e-07
-3.30565e-05
-2.85897e-05
8.14419e-05
-3.22293e-05
-8.11443e-07
-5.52515e-06
-1.40573e-05
-3.18051e-05
9.04561e-06
-1.13922e-07
-9.10066e-06
1.80846e-07
-1.62304e-05
-5.62329e-06
3.09006e-05
-1.56699e-05
-6.18803e-07
5.89377e-06
-3.25209e-05
1.75423e-05
-3.03322e-05
3.06184e-05
3.00297e-05
-7.81711e-05
-1.09524e-06
1.36504e-05
3.17478e-05
-8.05467e-05
-2.82478e-07
5.26582e-09
-1.29941e-09
9.49742e-11
1.32076e-09
5.04165e-11
4.22844e-09
9.52706e-10
-6.3457e-09
7.47681e-09
-2.72985e-09
-8.96479e-10
-1.43512e-09
3.80193e-09
-8.47997e-10
1.43768e-10
1.38836e-09
-1.21996e-09
7.64963e-09
-1.25792e-05
-1.25636e-05
-8.08639e-06
3.32294e-05
-2.74953e-08
-1.26721e-05
1.20498e-07
-1.25077e-05
-8.33256e-08
1.67171e-05
1.25829e-05
-4.18068e-05
1.70237e-05
-3.81691e-07
9.02865e-06
-9.11729e-06
1.79666e-05
9.12409e-06
1.12085e-05
1.85176e-06
-2.29835e-05
5.8595e-07
8.06174e-06
-1.25163e-07
9.82107e-06
1.04145e-06
-1.18035e-06
-1.40377e-06
1.0418e-05
-1.29656e-06
-3.53065e-08
1.98446e-06
-1.49144e-06
1.07426e-05
6.09772e-08
9.64432e-08
1.47625e-08
-1.70728e-07
4.21176e-10
-4.96775e-10
6.65677e-08
8.66202e-08
1.36323e-08
2.8899e-08
-2.53465e-08
-3.13983e-09
-1.40966e-08
1.14318e-07
-4.11208e-08
1.13986e-07
-5.06866e-08
3.38463e-08
1.81186e-08
-2.26729e-08
-6.73182e-08
-1.2612e-08
-5.06767e-08
7.07466e-08
-3.3433e-08
1.88791e-08
-2.93622e-09
3.63943e-08
-8.12495e-08
1.34666e-07
-2.25428e-07
-1.17786e-08
3.70508e-08
-1.64742e-08
-4.40049e-09
-1.07961e-08
-1.5819e-09
1.50161e-08
1.61246e-10
-5.99124e-09
1.63449e-10
-1.77811e-08
1.2363e-09
-5.55918e-09
-1.27026e-08
1.35894e-08
-2.49984e-08
1.17599e-08
3.59705e-08
-7.66593e-08
1.09621e-08
5.88919e-09
9.69286e-10
-6.29555e-09
2.43789e-09
-1.09516e-16
-8.42271e-16
-2.05336e-15
1.90245e-15
-7.82134e-16
-3.41509e-15