/*--------------------------------*- C++ -*----------------------------------*\
| =========                 |                                                 |
| \\      /  F ield         | OpenFOAM: The Open Source CFD Toolbox           |
|  \\    /   O peration     | Version:  v2012                                 |
|   \\  /    A nd           | Website:  www.openfoam.com                      |
|    \\/     M anipulation  |                                                 |
\*---------------------------------------------------------------------------*/
FoamFile
{
    version     2.0;
    format      ascii;
    class       volScalarField;
    location    "0.25";
    object      p;
}
// * * * * * * * * * * * * * * * * * * * * * * * * * * * * * * * * * * * * * //

dimensions      [1 -1 -2 0 0 0 0];


internalField   nonuniform List<scalar> 
24700
(
-393.011
-433.494
-346.648
-408.262
-426.279
-308.64
-358.62
-418.061
-444.93
-454.16
-420.374
-446.808
-438.381
-375.918
-402.926
-426.862
-410.38
-216.896
-247.576
-253.672
-201.204
-182.892
-244.073
-232.246
-166.911
-207.447
-197.514
-203.693
-192.417
-2.94817
-2.9443
-2.9541
-2.9507
-2.93282
-2.96159
-2.93556
-2.55765
-2.59049
-2.59547
-2.63436
-2.6075
-2.61357
-2.5855
-3.88217
-3.94258
-3.89548
-3.83507
-3.86793
-3.91521
-3.84658
-4.20649
-4.16265
-4.1091
-4.12779
-4.11339
-4.16711
-4.09593
-5.27729
-2.79854
-4.45848
-5.21627
2.57941
-3.76632
-5.08397
-2.58458
-2.59178
-2.58044
-2.58583
-2.5846
-2.59032
-2.58267
-2.8744
-2.86873
-2.88734
-2.86569
-2.85662
-2.87276
-2.87347
-36.6329
-4.18742
-28.859
-18.5422
-5.14947
16.419
-46.1972
-2.94388
-2.95268
-2.92649
-2.95337
-2.99316
-2.98736
-2.94147
-2.57364
-2.55894
-2.56818
-2.56009
-2.57797
-2.55929
-2.57492
-2.3411
-2.34488
-2.35501
-2.33602
-2.3192
-2.3297
-2.34457
-2.61419
-2.5061
-2.51976
-2.47581
-2.53741
-2.502
-2.60087
-2.79263
-2.81515
-2.78575
-2.77056
-2.74033
-2.7515
-2.78699
-2.79047
-2.8034
-2.83025
-2.89768
-2.91949
-2.89247
-2.87577
-2.84846
-2.89123
-2.86696
-2.90438
-2.90534
-2.9335
-2.91172
-2.88208
-2.77418
-2.80229
-2.79727
-2.82831
-2.80735
-2.78998
-2.81247
-2.53856
-2.55086
-2.53287
-2.52841
-2.54359
-2.54708
-2.53072
-3.89424
-3.94611
-3.88092
-3.87503
-3.83377
-3.91594
-3.84359
-4.39351
-4.36425
-4.41523
-4.40494
-4.50573
-4.41377
-4.39192
-3.53273
-3.90613
-4.32999
-3.28202
-3.34062
-3.81036
-3.6841
60.8937
56.0329
61.4494
60.9071
51.9709
71.5828
66.1999
74.4012
75.5857
76.075
75.1467
76.2085
76.0103
74.5826
71.4722
84.4652
81.1897
62.6633
71.5625
68.1549
70.935
-4.43785
-4.44696
-4.40778
-4.34669
-4.31248
-4.3838
-4.35385
-4.19483
-4.20019
-4.20493
-4.23199
-4.20643
-4.19936
-4.22518
-4.49626
10.7004
19.3361
13.4889
-6.50638
7.58981
-3.19605
-3.20449
-3.18761
-3.22313
-3.274
-3.20976
-3.20803
-3.25976
-5.85999
-5.92586
-5.63978
-5.90526
-6.2559
-5.78858
-6.14329
-10.0292
-8.83427
-8.17824
-7.58593
-7.68478
-8.17689
-8.95758
-4.82284
-4.71321
-4.76393
-4.97544
-4.99034
-4.85218
-4.8806
59.7675
60.728
62.9654
52.3037
56.759
56.8443
61.2421
70.3753
87.6771
79.8786
110.134
74.5163
83.808
352.638
296.03
314.643
325.376
426.561
325.137
609.183
629.036
592.975
587.576
385.975
455.253
571.09
332.56
248.818
303.735
379.938
342.906
331.255
336.91
147.113
181.635
132.525
175.949
164.815
141.085
167.994
35.2991
19.8903
23.3037
16.1427
17.4734
17.3316
17.9877
4.52697
7.83942
15.7359
-0.33289
2.9678
8.10271
3.20091
4.09542
-1.46551
-2.3943
-5.41316
-2.47121
-1.98131
-1.82122
-4.22993
-3.19406
-2.79645
-2.09642
-3.10615
-2.29933
-2.69684
-4.24555
-4.27102
-4.24287
-3.7021
-4.23841
-4.16947
-4.05923
-3.40425
-3.32311
-3.32467
-3.29182
-3.34466
-3.2667
-3.37107
-2.70526
-2.71355
-2.72044
-2.73822
-2.72802
-2.7294
-2.71325
-2.39978
-2.37574
-2.38813
-2.37995
-2.40012
-2.38002
-2.40066
-2.09892
-2.12121
-2.0891
-2.11406
-2.06277
-2.11653
-2.07643
-2.15735
-2.15656
-2.18946
-2.16372
-2.11614
-2.1773
-2.14163
-2.44353
-2.47273
-2.47624
-2.51134
-2.48876
-2.49631
-2.46988
-2.59644
-2.62237
-2.58492
-2.58638
-2.55565
-2.61114
-2.58417
-2.69357
-2.68593
-2.71792
-2.64493
-2.6742
-2.69303
-2.66824
-2.6964
-2.70154
-2.67174
-2.71344
-2.73545
-2.7195
-2.69641
-2.80211
-2.7739
-2.79691
-2.80723
-2.82845
-2.78983
-2.81248
-2.6821
-2.66351
-2.68502
-2.70218
-2.67888
-2.6716
-2.69325
-2.56792
-2.55885
-2.57347
-2.57805
-2.55995
-2.55924
-2.5749
-2.59224
-2.58309
-2.58422
-2.59738
-2.60251
-2.59182
-2.59217
2.44226
-13.2963
2.17855
-13.1357
2.57844
-2.21458
10.0412
-12.5889
-13.4549
-13.1275
-12.5441
-13.4175
-13.3243
-12.5038
-11.7598
-11.1136
-11.1913
-10.231
-10.655
-10.6785
-11.357
30.9834
33.1491
33.5489
43.9108
31.695
34.8696
33.8479
51.2448
37.1795
51.4129
38.5595
29.0803
29.5325
33.6397
52.9547
48.3955
36.8619
33.56
34.2654
81.3352
67.8338
90.7685
66.8959
51.8175
64.28
61.1563
81.4277
79.7331
112.483
55.753
65.7919
85.6637
87.7448
86.8767
87.4906
84.6633
87.2577
85.2425
-3.13165
-3.06927
-2.84602
-3.40823
-3.26106
-3.1542
-3.07108
-3.22962
-3.15365
-3.26041
-3.27108
-3.2233
-3.18791
-3.27057
-3.40344
-3.30024
-3.39595
-3.44151
-3.40715
-3.35107
-3.41548
-3.37413
-3.35653
-3.32509
-3.37509
-3.44315
-3.39343
-3.3477
-2.72636
-2.71362
-2.73426
-2.72131
-2.76853
-2.71298
-2.74812
-2.44613
-2.4457
-2.42786
-2.44634
-2.45498
-2.44786
-2.43998
-1.92761
-1.88506
-1.91435
-1.89037
-1.94724
-1.88324
-1.93089
-1.86565
-1.84908
-1.82293
-1.69157
-1.80444
-1.83924
-1.80349
-2.37232
-2.3632
-2.39089
-2.33064
-2.35957
-2.34939
-2.37386
-2.87139
-2.85315
-2.84779
-2.82845
-2.84385
-2.84174
-2.85876
-2.81351
-2.79612
-2.79578
-2.77809
-2.79171
-2.78571
-2.80144
-2.89106
-2.9277
-2.88598
-2.85537
-2.87668
-2.8899
-2.87257
-7.54856
-8.44628
-8.15079
-8.76239
-9.09671
-7.9826
-8.5649
-5.04126
-4.83542
-4.90347
-4.64042
-5.00006
-4.55728
-5.00043
-4.76085
-4.58814
-4.54464
-4.3684
-4.6578
-4.94991
-4.66861
31.7579
32.1436
26.2232
28.9814
30.4362
28.3984
29.9204
36.4051
43.997
47.2905
66.0215
56.0869
47.4757
51.9345
310.024
231.916
297.173
334.461
185.727
153.764
299.127
581.064
627.982
664.757
489.653
647.689
678.946
602.643
-2.64784
-2.63428
-2.92062
-2.58077
-2.66952
-2.66354
-2.88808
-3.43319
-3.46135
-3.31082
-2.95116
-3.43245
-3.10421
-3.40041
0.587846
-2.18431
-9.94979
-5.97848
-0.307154
-7.71395
-5.33996
-3.97283
-3.95591
-3.97435
-3.98117
-4.00512
-3.95588
-3.97846
-2.99733
-2.955
-2.93633
-2.93092
-2.8866
-2.92227
-2.96675
-2.36123
-2.35644
-2.37686
-2.38905
-2.39708
-2.37099
-2.37776
-1.29406
-1.15261
-1.34311
-1.313
-1.29348
-1.27403
-1.33656
-1.32129
-1.4014
-1.36162
-1.0936
-1.25401
-1.71338
-1.70682
-1.66422
-1.59813
-1.71081
-1.68173
-1.60297
-1.6252
-1.66226
-1.67789
-1.58192
-1.68126
-1.87717
-1.88884
-1.86422
-1.83255
-1.86023
-2.80351
-2.7876
-2.79945
-2.8192
-2.8031
-2.7933
-2.80745
-2.87533
-2.85836
-2.87103
-2.8724
-2.88544
-2.8652
-2.87672
-2.72881
-2.73968
-2.72338
-2.73498
-2.72467
-2.73296
-2.72946
-2.73435
-2.72631
-2.7227
-2.72093
-2.72603
-2.72423
-2.72994
-3.14551
-3.25547
-3.14969
-3.31153
-3.35498
-3.20143
-3.25675
-3.89583
-3.85534
-3.91354
-3.80094
-3.81528
-3.84502
-3.83818
-4.7362
-4.12065
-4.73657
-4.78874
-4.64128
-4.12614
-4.83296
-6.3935
-5.75924
-5.87294
-5.86013
-5.45427
-5.88668
-5.88801
0.147968
0.334835
1.89581
0.45194
0.133025
0.65235
1.61397
0.852166
0.132705
1.76333
0.67737
0.613469
68.2032
65.8871
64.6447
60.8847
53.3464
64.9395
64.0695
70.9997
74.624
76.1436
73.1289
65.8896
74.5947
78.8276
28.6073
25.0096
33.9721
13.664
18.4866
18.8191
24.4662
-2.8619
-0.891182
-5.45665
-1.81039
1.85278
-1.8281
-6.09435
-2.191
-2.25527
-2.13361
-2.0989
-2.02853
-2.20145
-2.12597
-2.49278
-2.39637
-2.15641
-2.37417
-2.00131
-2.30488
-2.41937
-3.3938
-3.5154
-3.21362
-3.42611
-3.52896
-3.46418
-3.16799
-4.48028
-4.39282
-4.46581
-4.46123
-4.5503
-4.41921
-4.52774
-4.27097
-4.16443
-4.15324
-4.37099
-4.47716
-4.31303
-4.25916
-1.24172
-0.928602
-1.40161
-0.762853
-1.14234
-1.15996
-0.994551
-1.2337
-1.48538
-1.01247
-0.726769
-1.20979
-1.91396
-1.88556
-1.92674
-1.94776
-1.88725
-1.88283
-1.92922
-2.27772
-2.25832
-2.25864
-2.29546
-2.29266
-2.27946
-2.27596
-2.4861
-2.4667
-2.47058
-2.50194
-2.49502
-2.48022
-2.48389
-2.91314
-2.92275
-2.93859
-2.9075
-2.92003
-2.92466
-2.93666
-2.91797
-2.91675
-2.91975
-2.93451
-2.9198
-2.90819
-2.94091
-2.92169
-2.9282
-7.27584
3.59784
4.61219
-0.900945
9.00877
1.387
1.93269
-2.83403
-2.82841
-2.83736
-2.83731
-2.84438
-2.83335
-2.83494
-2.71341
-2.71757
-2.71256
-2.70926
-2.71739
-2.7186
-2.7111
-2.67321
-2.69037
-2.70724
-2.68236
-2.67941
-2.69382
-2.67211
-3.02066
-3.09464
-2.99775
-3.02255
-2.92293
-3.05189
-2.94346
-3.86425
-3.66532
-3.91202
-3.8468
-4.12914
-3.82436
-4.04685
-4.06311
-4.49872
-3.9121
-3.93957
-4.24035
-4.08723
-4.60804
-4.37268
-3.40232
-4.25175
-3.27931
-4.51328
-3.58919
-4.60435
-2.49003
-2.35734
-2.47803
-2.43877
-2.48329
-2.38523
-2.46626
2.17294
0.953962
4.17459
-1.56507
-1.09584
-1.99791
0.0918079
-41.8169
-140.7
-103.159
202.209
58.0323
10.8767
-79.1019
66.7499
7.91688
-25.0433
20.109
-13.0654
169.839
-2.23485
241.123
-1.24815
-53.3173
-1.70632
-1.78415
-1.73272
-1.62434
-1.75585
-1.79705
-1.69868
4.44338
9.9606
4.78033
5.45491
5.52365
8.16457
6.17276
-7.29664
24.6049
-1.74571
-6.11264
-5.2765
-4.2657
2.54848
-3.34032
-3.07095
-2.69368
-3.34478
-3.3478
-3.40286
-3.32675
-3.33198
-3.78262
-3.0788
-3.64768
-3.99831
-4.2564
-3.49328
-0.991921
-1.4829
-1.44895
-1.52427
-1.31357
-1.54804
-1.78618
-1.36537
-0.822974
-1.38547
-2.34834
-2.34876
-2.33528
-2.31659
-2.31233
-2.32979
-2.32592
-2.90917
-2.79563
-2.92528
-2.92318
-2.95473
-2.95149
-2.89998
-2.83231
-2.93178
-2.95729
-2.96928
-2.90225
-2.99818
-2.92297
-2.91238
-2.78383
-2.93486
-2.97027
-2.9315
-2.97369
-2.94182
-2.92326
-2.92483
-2.93299
-2.90119
-2.91309
-2.86358
-2.8972
-2.94232
-2.9201
-2.74621
-2.73373
-2.73905
-2.72899
-2.74654
-2.73136
-2.74631
-2.64987
-2.57776
-2.61725
-2.59141
-2.58901
-2.59501
-2.61612
-3.51544
-4.28452
-3.98941
-3.4948
-4.2679
-3.8211
-4.15693
-2.79188
-2.69587
-2.73897
-2.73096
-2.74108
-2.72629
-2.77369
-4.12837
-5.16479
-4.13727
-3.25865
-4.67871
-4.74947
-4.79772
64.1003
61.7012
65.125
59.5312
64.3347
68.6604
65.7611
-4.55214
9.21667
3.57901
-3.17647
-1.58842
1.22007
0.154074
-2.84515
-2.56674
-2.5933
-2.62684
-2.7547
-2.60017
-2.87207
90.8419
90.4799
277.918
29.5583
44.0945
52.3179
63.897
4.37445
12.3886
84.2727
38.5794
126.449
-28.4254
26.365
35.3893
-3.32004
-3.37665
-3.32702
-3.339
-3.26172
-3.35344
-3.29144
-3.76049
-3.82629
-3.79315
-3.71728
-3.71628
-3.77322
-3.76994
-5.15918
-5.3996
-4.88443
-5.39904
-5.62917
-5.26703
-5.25167
-9.88514
-9.95577
-10.4131
-10.7989
-11.0668
-10.4834
-10.5991
-7.72779
-8.77864
-8.02851
-8.9441
-7.9718
-9.04252
-8.01089
-4.42589
-4.60281
-4.06068
-4.30244
-4.97352
-4.73498
-4.7847
-3.79258
-3.76373
-3.90028
-4.03145
-4.16259
-3.89749
-4.02416
-4.18007
-4.58324
-4.60203
-4.83547
-4.52044
-4.81992
-4.60271
-3.40102
-3.2022
-3.03075
-3.59558
-3.97059
-3.82383
-3.37337
-4.73784
-4.54709
-4.76216
-4.65048
-5.14882
-4.68763
-5.44447
-3.58912
-3.53204
-3.61457
-3.36777
-3.75123
-3.87371
-3.57289
-2.92581
-2.88009
-2.94028
-2.94425
-2.99206
-2.90365
-2.96403
-2.60899
-2.67002
-2.59491
-2.59018
-2.60817
-2.63655
-2.59957
-2.99194
-2.9616
-2.73839
-2.98372
-3.12241
-3.02901
-2.9279
-2.93679
-2.92552
-2.92158
-2.92444
-2.93702
-2.91248
-2.92516
-2.92983
-2.9405
-2.92993
-2.85209
-2.84962
-2.86428
-2.82934
-2.83865
-2.84849
-2.83849
-2.38048
-2.44347
-2.43191
-2.35564
-2.3297
-2.39166
-2.3997
-2.729
-2.72966
-2.74992
-2.69259
-2.77833
-2.71658
-2.75622
-3.1953
-3.21824
-2.89671
-2.96422
-2.90187
-2.94594
-3.1102
-5.65072
-5.98697
-5.2366
-5.77389
-6.01782
-6.17394
-5.43409
-2.9172
-2.88108
-2.96013
-2.94769
-2.80693
-2.81086
-2.94058
-3.36241
-3.29271
-3.40465
-3.25488
-3.41576
-3.23476
-3.39535
-4.08169
-4.1192
-4.08418
-4.12035
-4.15134
-4.11806
-4.09055
-5.18386
-4.9976
-4.90098
-5.17314
-4.88367
-5.21284
-5.11906
-4.63013
-4.3432
-4.2994
-3.91367
-3.39895
-5.18117
-4.23618
-2.78559
-2.47977
-2.59459
-2.69225
-2.67032
-2.47658
-2.67716
-2.84471
-2.84078
-2.83689
-2.83477
-2.83993
-2.83716
-2.84238
-2.93319
-2.93333
-2.93912
-2.91734
-2.91547
-2.92153
-2.92278
-2.75401
-2.73697
-2.74276
-2.77591
-2.76581
-2.75312
-2.7581
-2.00783
-2.03246
-2.04308
-2.01986
-2.06656
-2.04033
-2.024
-2.50211
-2.42348
-2.42296
-2.37952
-2.38804
-2.44315
-2.42659
-3.6765
-3.69861
-3.76432
-4.34649
-3.75424
-3.85956
-4.12587
-8.23663
-8.59351
-7.61376
-9.01023
-9.24069
-8.15015
-8.65392
-7.74799
-7.73352
-8.6048
-8.91809
-10.2623
-8.15077
-8.78736
-4.46795
-4.39107
-4.43426
-4.51471
-4.57233
-4.47887
-4.47167
-4.01169
-4.13667
-4.1398
-4.20885
-4.20859
-4.19328
-4.12252
-4.17561
-4.03261
-4.15168
-4.20511
-4.17484
-4.08146
-4.20627
-3.54686
-3.55153
-3.51627
-3.57119
-3.52919
-3.54027
-3.55324
-1.67209
-1.74844
-1.60845
-1.73934
-1.78794
-1.77794
-1.68942
1020.01
846.356
873.05
1116.19
585.952
1164.95
627.134
742.929
1243.12
1321.89
1470.83
1041.51
359.547
368.588
553.325
173.322
946.802
1315.46
-1.27362
-1.37324
-1.07704
-2.39718
-2.36862
-0.983026
-1.64827
-3.84357
-3.93364
-3.92803
-3.95893
-3.86149
-3.83343
-4.13701
-4.51146
-4.02246
-3.57904
-3.96379
-3.88185
-3.85623
-3.64114
-2.16624
-4.40734
-3.59139
-4.0345
-2.3036
-3.22876
-2.91123
-7.44004
-6.06499
-6.90079
-6.35869
-6.95774
-6.04219
-7.37013
8.94689
-13.2761
-3.17594
0.63133
-2.05264
-1.48762
-0.247776
7.86196
-11.0282
0.6961
-4.4981
-4.41698
-4.60669
-4.78544
-4.97344
-4.65357
-4.6211
2.81838
0.901659
-17.5968
-7.23625
-7.97258
-1.33831
0.511623
-2.95606
-2.88673
-2.85164
-2.67849
-2.86067
-2.72247
-2.87354
-2.74226
-2.73782
-2.75584
-2.74233
-2.73278
-2.73902
-2.74698
-2.7282
-2.73594
-2.73233
-2.73936
-2.7274
-2.73794
-2.72852
-2.73395
-2.74633
-2.73916
-2.7465
-2.72897
-2.74633
-2.73141
-2.91181
-2.90216
-2.91944
-2.9087
-2.91965
-2.94893
-2.90295
-2.92358
-2.92377
-2.84402
-2.88572
-2.89706
-2.92312
-2.90597
-2.90558
-2.87121
-2.93784
-2.92064
-2.90805
-2.92333
-2.88686
-2.89586
-2.84301
-2.91496
-2.99079
-2.95799
-2.92675
-2.87923
-2.94504
-2.62999
-2.60641
-2.59789
-2.56216
-2.59035
-2.58562
-2.61161
-2.18113
-2.14406
-2.18427
-2.19442
-2.20597
-2.16947
-2.18999
-2.20161
-2.18538
-2.1953
-2.19774
-2.18905
-2.19239
-2.18396
-2.21316
-2.19611
-2.53511
-2.47064
-2.45468
-3.86034
-3.95392
-4.08851
-4.05454
-4.13874
-4.02206
-3.97453
-6.22424
-5.93792
-5.7529
-5.32683
-5.6854
-5.68085
-5.55829
-3.26352
-3.1584
-3.23887
-3.2251
-3.27733
-3.1905
-3.27427
-2.22265
-2.42714
-2.54766
-2.3664
-2.45477
-2.35449
-2.74273
-180.67
-32.8161
-140.831
7.07879
-68.6494
-24.153
-3.2009
-4.1015
-3.776
-4.03716
-3.83581
-3.53815
-3.40834
5.35922
18.6354
21.0916
24.719
29.3759
22.4879
23.2343
8.42548
29.3145
28.8449
18.4963
20.4812
8.91238
23.9139
-13.0741
12.1831
20.9585
-11.7264
-11.7143
-11.9024
-11.1971
-11.7377
-11.8008
-11.5567
-3.32526
-3.35701
-3.37576
-3.44456
-3.37333
-3.39234
-3.34837
-2.91497
-2.91211
-2.93188
-3.00381
-2.98071
-3.07388
-3.00364
8.2485
-6.22555
4.19848
-1.51523
17.1277
2.84114
-5.24401
-2.80156
-2.8356
-2.80806
-2.77871
-2.79058
-2.80113
-2.79009
-2.72927
-2.72937
-2.72634
-2.74148
-2.72366
-2.7258
-2.73061
-2.74816
-2.76157
-2.74698
-2.73961
-2.74509
-2.75469
-2.74573
-2.71356
-2.71733
-2.70783
-2.71202
-2.71782
-2.71822
-2.71065
-2.66372
-2.67355
-2.66433
-2.66864
-2.65447
-2.67089
-2.65993
-2.7933
-2.80553
-2.79176
-2.75255
-2.79889
-2.78892
-2.75099
-2.5966
-2.59186
-2.55868
-2.6078
-2.63387
-2.61387
-2.58475
-2.35322
-2.38304
-2.38424
-2.41414
-2.39152
-2.40315
-2.37486
-2.29685
-2.29801
-2.28198
-2.28266
-2.2605
-2.27363
-2.29692
-2.30724
-2.29173
-2.29897
-2.29856
-2.23533
-2.30663
-2.28089
-2.19712
-2.20519
-2.15836
-2.18985
-2.19928
-2.16926
-2.18288
-2.18648
-2.19173
-2.17947
-2.31995
-2.5271
-2.50036
-2.30563
-2.38137
-2.49165
-2.41886
-4.20374
-4.2084
-4.13242
-4.261
-4.10634
-4.15268
-4.12604
-4.19525
-3.75112
-4.53041
-3.89978
-4.28324
-4.4387
-4.21478
-5.12172
-4.96167
-4.66823
-4.68609
-4.57014
-4.8479
-5.16678
-10.4834
-11.3272
-10.4318
-9.66655
-10.8979
-11.3967
-10.1541
-7.91599
-7.35922
-7.45554
-6.97813
-7.4239
-7.15823
-7.73096
-3.2653
-3.37304
-3.47272
-3.49487
-2.69739
-2.92248
-3.36765
12.1365
-14.0633
11.2063
-5.25227
-6.72825
-5.39357
-2.26861
-13.6828
47.1428
21.4117
51.6615
17.7371
26.6176
31.3016
94.8991
160.266
98.0238
48.5397
42.7185
50.393
-94.8215
29.192
39.1738
11.967
20.5395
45.4129
-72.3356
15.0108
45.2842
33.587
10.4636
96.7869
92.2909
4.17977
-0.787961
-0.397136
-0.949928
-2.84953
-3.50521
-7.73245
-2.29625
-2.8846
-2.88
-2.01433
-2.74965
-2.75829
-2.34868
35.8719
30.6878
36.4869
33.6183
32.1863
32.6737
36.6479
25.0118
24.9924
20.3625
29.9161
22.7822
22.5634
23.8799
102.082
82.178
105.414
93.1009
100.418
86.9083
94.1585
5.75628
14.9609
12.6257
21.6802
19.8739
13.1882
12.237
-5.47162
-5.21855
-5.43377
-5.27641
-5.52822
-5.2382
-5.53287
-4.09434
-4.07051
-4.12779
-4.18657
-4.17603
-4.12183
-4.13528
-4.01923
-3.9822
-3.98177
-3.95584
-3.97338
-3.96301
-3.98673
-6.42158
-3.4488
-8.01002
22.7047
-39.8875
-3.66238
-4.06081
-2.88015
-2.84999
-2.86666
-2.92641
-2.88735
-2.87151
-2.88305
-2.58538
-2.59701
-2.59611
-2.57007
-2.57075
-2.5811
-2.58194
-2.80444
-2.83765
-2.83576
-2.85983
-2.83334
-2.84823
-2.81918
-2.24167
-2.26165
-2.27504
-2.25255
-2.22748
-4.84536
-4.93926
-4.94535
-5.12866
-4.85839
-5.08737
-4.84007
-5.64881
-5.94591
-5.85198
-5.92021
-6.32823
-5.7808
-6.18618
-2.80394
-2.89218
-2.80956
-2.68369
-2.80316
-2.83134
-2.73446
-2.49775
-2.41002
-2.53431
-2.5997
-2.6199
-2.52996
-2.58748
67.0238
41.2882
-15.9916
33.223
41.2598
35.9396
35.8808
37.9757
36.7347
35.609
29.3297
30.892
32.2228
30.8964
33.4518
37.1344
33.1029
34.5216
33.7394
43.8167
29.153
28.9242
31.0839
180.431
188.535
235.22
229.365
224.992
172.946
190.057
208.853
197.16
179.049
182.705
171.923
165.117
170.695
170.856
157.168
196.801
200.236
171.189
169.889
169.094
175.097
187.987
215.145
219.495
238.157
212.509
189.832
204.15
225.699
234.516
237.039
248.265
229.916
214.555
225.508
192.737
214.215
249.003
240.014
212.562
230.373
239.551
239.541
259.706
260.38
228.102
349.027
290.715
347.388
272.237
363.356
266.438
371.936
74.1405
66.0612
55.7094
68.5609
90.3035
70.7668
60.9814
-1.97634
-1.45776
17.4294
1.99585
8.98397
-2.2797
-0.855395
-2.73476
-3.959
-2.5775
-2.73303
-3.13391
-2.73207
-3.03528
-3.71488
-3.45643
-3.46801
-4.27695
-3.70093
-4.03135
-3.56718
-4.1282
-4.0775
-4.08439
-4.09203
-4.08259
-4.07197
-4.08505
-4.02647
-4.01239
-4.02266
-4.05601
-4.04632
-4.03966
-4.04167
-3.06968
-3.08366
-3.09449
-3.15389
-3.09162
-3.12068
-3.07689
-2.59726
-2.60537
-2.62898
-2.59166
-2.56254
-2.58549
-2.61124
-2.82162
-2.78295
-2.81688
-2.82865
-2.83674
-2.79863
-2.82866
-2.85678
-2.83346
-2.77503
-2.82494
-2.84277
-2.6236
-2.65979
-2.61346
-2.56502
-2.62276
-2.63104
-2.65753
-2.59892
-4.4756
-4.41378
-4.47736
-4.3822
-4.35393
-4.41611
-4.42789
-4.24447
-4.26534
-4.24393
-4.2789
-4.29521
-4.26595
-4.28238
-1.50351
2.84946
6.72927
-8.8741
-0.489299
0.00817067
-3.31134
-3.30108
-3.35674
-3.39646
-3.39447
-3.24264
-3.23519
-3.38419
-3.14277
-3.07882
-3.17925
-3.26408
-3.26011
-3.18618
-3.22159
-2.90455
-2.80689
-2.94252
-2.9511
-2.87993
-2.81495
-2.94076
379.055
652.419
363.374
536.261
513.493
622.364
425.754
723.72
856.575
781.654
758.478
853.366
942.672
797.134
888.99
500.922
612.592
375.026
245.485
339.964
272.299
354.885
276.971
386.316
108.079
103.068
98.4235
115.011
109.968
111.871
103.852
195.186
48.7045
79.6699
95.85
154.349
73.5171
71.3613
97.5128
69.5585
27.2965
123.732
152.387
123.811
245.776
206.353
215.068
56.2084
100.831
88.3946
79.4828
104.181
184.744
184.105
167.162
429.321
222.519
296.419
483.684
517.991
351.701
390.753
943.86
800.981
740.653
787.597
808.971
768.308
812.746
927.288
851.66
822.622
945.421
845.454
845.13
824.755
815.183
744.955
972.94
843.687
758.353
703.256
943.526
60.0274
110.861
33.4723
27.1443
51.4137
52.3621
26.7779
-2.113
-2.56805
-1.92258
-2.62059
-2.72873
-2.66631
-2.35927
-4.14866
-3.96552
-3.88168
-3.93271
-3.89258
-3.8276
-4.14468
-4.13818
-4.12215
-4.07829
-4.17457
-4.20949
-4.10486
-4.13398
-3.81281
-3.81774
-3.76646
-3.72658
-3.71241
-3.76828
-3.7729
-4.21957
-4.21105
-4.23589
-4.19938
-4.20776
-4.2115
-4.23563
-3.7632
-3.70575
-3.71216
-3.7841
-3.85402
-3.78003
-3.74015
-3.00762
-3.10467
-3.04036
-2.93515
-2.98562
-3.05061
-2.97699
-2.42956
-2.44621
-2.3885
-2.32191
-2.36596
-2.38485
-2.40078
-2.21451
-2.20293
-2.16933
-2.21311
-2.19209
-2.20589
-2.18445
-2.48875
-2.49787
-2.52867
-2.47156
-2.43495
-2.46816
-2.49715
-2.82709
-2.82761
-2.853
-2.81154
-2.79698
-2.81045
-2.82687
-2.9384
-2.92597
-2.95228
-2.94507
-2.92966
-2.92281
-2.9209
-2.88608
-2.92351
-2.95082
-2.95012
-2.91495
-2.92748
-2.8714
-2.92153
-2.91179
-2.87535
-2.86909
-2.9184
-2.86403
-2.91469
-2.92463
-2.94049
-2.95899
-2.93137
-142.544
-132.811
-124.114
-97.7941
-126.449
-142.889
-170.984
-121.095
-116.157
-2.98555
-2.6597
-3.03057
-1.51141
-3.97176
-2.24962
-3.27017
-3.31224
-3.05795
-3.01124
-2.86096
-2.7077
-162.708
-137.02
-146.489
-475.571
-495.842
-475.95
-471.681
-456.711
-458.29
-465.583
-477.279
-492.616
-488.122
-502.814
-480.616
-476.6
-465.726
-478.038
-488.038
-464.523
-478.668
-467.708
-496.78
-475.998
-476.147
-444.236
-467.484
-474.157
-457.262
-483.102
-506.607
-493.331
-497.298
-486.599
-481.089
-492.487
-482.94
-473.384
-486.571
-481.121
-473.715
73.2357
-13.175
5.68724
-13.7474
-18.5859
-10.7351
-38.0664
-2.87066
-2.8954
-2.89759
-2.92339
-2.90586
-2.89849
-2.93353
-2.94294
-2.90485
201.685
220.08
222.521
244.612
226.425
220.1
239.358
246.559
226.895
233.02
231.797
252.111
208.47
219.981
190.769
-2.90007
-2.84775
-2.88672
-2.93831
-2.91634
-2.9129
-4.19434
-4.24097
-4.17552
-5.5191
-5.27721
-5.37836
-14.1892
-14.5487
-14.5454
-14.1719
-4.21381
-4.18614
-4.1571
-2.67935
-2.68535
-2.67614
-5.57452
-5.39689
-5.28104
-2.65861
-2.79676
-2.46873
-4.1768
-4.21195
-4.22492
-4.27366
-2.37675
-2.35431
-2.37194
-2.67493
-2.67521
-2.69837
-2.70203
-3.18942
-3.10242
-3.63776
-3.05225
-5.48036
-5.62474
-5.62914
-5.88748
-3.42011
-3.42153
-3.21675
-3.29459
-3.164
-3.26577
-3.12607
-3.1861
-3.3125
-3.17745
-5.62736
-5.52245
-5.85434
-5.66429
-3.16876
-3.27623
-3.86535
-5.07558
-3.33516
-3.49789
-4.32238
-4.33355
-3.55085
-3.69084
-3.44982
-3.42987
-3.13016
-3.19521
-3.17396
-3.31615
-14.2865
-14.3212
-13.9464
-13.9604
-13.9764
-13.2697
-13.5896
-13.7086
-2.72934
-2.72877
-2.72467
-2.72629
126.301
123.195
126.03
125.014
-2.75874
-2.74599
-2.73277
-2.16376
-2.15448
-2.13254
-2.13243
1.74538
1.92701
-0.470798
0.32243
-3.79187
-4.13109
-3.58732
-3.65898
-2.5798
-2.54956
-2.53663
99.5987
110.217
9.48562
-1.4456
-4.34314
-4.42682
10.0281
-1.11092
0.0734356
17.9965
-2.47399
-2.50032
-2.91472
-2.88656
-2.87774
-2.86164
3437.98
2958.37
2786.84
2420.63
-2.76142
-2.69699
-2.7485
-2.69839
-4.20439
-3.794
-3.9787
-4.20216
-3.98764
-4.63097
-3.80093
-3.82098
-2.76206
-2.85965
-2.8621
-2.87536
-2.79872
-2.81282
-1.78344
-1.59839
-1.9598
-1.58709
-2.85865
-3.34321
-3.07433
-3.10719
-4.29603
-4.69704
-5.23731
-4.3817
-4.76362
-4.98952
-93.8754
-86.2241
-2.80486
-2.79155
-2.81559
-2.7742
-2.57587
-2.97655
-1.89197
-0.831579
-2.94109
-3.42917
-1.87503
-4.45985
-2.86658
-2.8797
-2.76688
-2.77887
-2.7618
-2.7826
0.155783
-2.22745
-2.45342
-3.29985
-2.76374
-2.78356
-2.87589
-2.84296
-2.70247
-2.78398
-2.21304
-2.64915
-1.46927
-2.09117
170.92
171.648
210.494
619.783
733.541
698.808
778.867
50.998
49.6693
61.0934
57.9187
158.405
170.421
161.258
21.922
9.84494
4.4484
3.37062
35.73
44.8264
-2.89388
-2.89943
-2.6019
-2.61504
-2.46237
-2.31072
-2.30456
-2.37191
-2.93792
-2.95149
-2.91263
-2.89724
-2.91337
-2.89156
-2.40036
-2.41523
-3.46107
-3.42257
-3.48662
-3.40742
-3.42755
-3.44675
-3.41502
-3.48023
1.79556
3.60386
0.827876
2.3836
-4.29656
-4.34616
-4.38614
-4.39756
-8.12121
-8.53353
-4.85723
-4.72396
-8.49768
-8.07617
25.477
23.2474
-2.8825
-2.86296
-7.83522
-10.5507
-3.61294
-3.65735
-3.75914
-3.75884
-6.45234
-7.45637
-2.66418
-4.39591
29.7272
-26.7334
-3.87673
-3.84006
-3.92826
-3.8828
-3.05054
-3.71714
-1.07147
-1.5458
-2.46741
-2.56417
-2.50837
-2.50731
-2.52183
-2.52394
-2.73649
-2.73945
-173.06
-170.816
-132.969
-135.733
-2.47401
-2.46734
-2.55464
-2.50994
48.1934
34.5439
168.565
52.2317
-5.0764
-2.03315
-5.46075
-4.73334
-2.34614
-2.33293
-3.88436
-3.92699
-6.43059
-7.33011
-6.84203
-7.92319
396.87
294.614
269.92
165.642
-2.55983
-2.54746
-2.58175
-2.56486
-2.14769
-2.12657
-2.38043
-0.889626
-2.71321
-2.69557
307.169
361.903
-385.074
-2.79646
1.54192
5.84097
1.00249
-2.46503
-2.529
-2.51993
-2.60391
-2.16791
-2.15169
-4.45813
-4.36663
-2.65558
-2.66491
-4.56811
-4.54617
-4.60985
-4.53197
-4.15334
-4.60163
81.4925
82.1085
80.348
82.6147
2357.24
2436.63
2927.04
-2.48629
-2.49554
-2.48076
-2.4939
-5.3513
-5.13085
-4.87392
-4.70728
-2.57043
-2.56362
-2.58653
-2.58508
-5.88711
-6.23357
-3.39656
-3.02069
-3.27579
-2.90955
-3.78788
-3.74005
-3.82652
-3.77242
-3.11169
-3.24716
-3.90009
-3.87433
-3.19782
-3.14438
-3.20036
-3.11531
-1.64304
-1.54716
-2.95096
-2.96473
-2.35512
-2.36768
-2.38349
-2.39328
-2.39652
-2.39653
-0.123272
11.6801
-9.30728
-10.1315
-2.86171
-2.81426
-2.9377
-2.88781
-2.76286
-2.75638
-2.78434
-2.78584
-2.56264
-2.56975
-2.58487
-2.58551
-6.25905
-5.87065
-4.34326
-4.88189
-4.74685
-4.7317
-4.81282
-4.8946
-4.71431
-4.72256
-4.90226
-4.81038
-4.27261
-4.39867
-4.18795
-4.33698
-4.3513
-4.20253
-4.26256
-4.04526
-2.86162
-4.27413
-4.23263
69.9673
69.4144
70.6756
69.9893
-2.13258
-2.11437
-2.05204
-2.04162
12.5424
-1.48763
-7.85797
-7.47915
82.4789
85.8931
79.3861
80.8177
69.3188
70.2145
70.2464
70.8944
165.502
221.567
77.6651
23.8846
-2.04778
-2.07107
-12.2753
-12.0173
-0.857612
21.0362
-2.99184
-2.92838
-3.10351
-2.97831
-3.25852
-3.2189
-3.38158
-3.37025
-2.12079
-9.52231
0.880166
2.67738
-72.3777
-77.9319
378.436
282.502
-3.26074
-2.57158
-7.03643
0.497826
-5.19993
-5.109
-2.31736
-2.30526
65.6524
65.6788
-7.6399
-8.19334
-7.7739
-8.87106
-67.4603
-58.9267
-8.02657
-7.71337
-8.63406
-7.86072
-4.35514
-4.39578
-2.82566
-2.83401
61.7438
64.8214
102.638
-3.81771
-3.5561
-2.10372
-2.11349
11.0061
11.4403
6.24544
9.70061
-4.1331
-4.10003
-4.29807
-4.36449
-4.211
-4.28208
-3.98771
-3.99775
-4.0396
-4.04093
-2.31214
-2.30091
-3.97224
-3.98955
-4.03429
-4.09097
-2.84591
-2.82976
-2.82986
-2.8461
-2.89552
-2.92244
-2.82432
-2.87455
-3.51692
-3.50338
-4.16029
-4.13279
-4.19316
-4.16816
-2.3568
-2.345
105.609
115.339
144.491
151.614
-4.13096
-4.0689
-3.11329
-3.02393
-3.11694
-3.02452
-3.09058
-3.14537
-2.96556
-3.08932
-4.19301
-4.27792
-2.9618
-2.93009
-2.50314
-1.88738
-1.83501
-0.85099
-4.06007
-4.02347
-4.03218
-3.97521
-4.13866
-4.06797
-2.92898
-2.90572
2.52141
0.564275
5.74571
7.18628
-3.87131
-3.86436
1.25126
9.97401
1.70089
12.1435
-4.56398
-4.61064
-4.59171
-4.66277
-4.24861
-4.24672
12.3058
10.1566
10.2828
6.32672
-2.83603
-2.86072
-2.8244
-2.85332
-5.9182
-5.39709
-5.75675
-4.74991
-2.47665
-2.49884
-2.58091
-2.59149
68.1304
66.0141
64.6653
64.0819
-2.5811
-2.59153
-1.73324
-1.72233
-1.67379
-1.48432
-4.24837
-4.24398
-1.67621
-1.82004
9.723
-11.3908
-9.57927
-9.7721
-2.58097
-2.61277
-45.1763
-34.617
-71.3735
-67.4089
-2.74188
151.625
130.93
118.073
-4.11417
-4.4718
-3.53616
-3.49157
-3.35724
-3.37788
2.34098
5.39137
2.46284
4.36502
-3.70503
-4.2609
-2.78553
-2.3834
-3.19585
-3.10193
-2.61873
-2.61286
-3.23576
-3.2299
73.0101
71.0189
68.5737
68.7176
72.6754
86.5471
55.6949
76.0837
-2.61877
-2.61289
-2.37403
-2.36568
-2.57996
-2.52928
-2.74394
-2.74381
-2.74807
-3.81343
-3.80706
-3.65256
-3.68533
-3.65352
-3.7517
-5.08951
-4.67463
-3.81466
-3.8894
-3.88155
-3.93834
-2.29185
-1.17723
-2.42378
-3.13249
-406.565
-394.712
-4.0604
-4.07137
-4.28266
-4.26751
-4.21195
-4.19031
-4.1097
-4.12789
23.256
-8.44695
-2.79725
-2.80634
-3.0251
-2.46346
-3.10581
-3.06557
-4.86449
-4.7318
-4.75513
-4.8609
-4.95448
-5.22602
-3.03091
-3.37205
-3.73895
-3.787
-2.38202
-2.40536
-2.38182
-2.40737
-335.36
-339.393
4.67698
1.97844
20.3943
8.1285
-2.79902
-2.80625
-1.94904
-1.97424
-3.72488
-3.01466
-2.11197
-3.29508
-4.8995
-4.72293
-6.31058
-6.39889
-6.89061
-7.34021
-3.17394
-3.13776
13.5975
-4.78625
-4.57173
5.41578
16.7097
16.8154
-5.13126
-5.17409
-5.54329
-5.41895
-2.13377
-2.10974
-2.61667
-2.61117
-2.62858
-2.61376
-1.94837
-1.97374
-2.57387
-2.58578
-379.703
615.534
561.751
653.02
-2.33366
-2.38822
-4.22233
-4.39668
-5.22639
-5.72449
-2.53582
-2.53181
-2.7462
-2.74214
-2.73327
-2.53586
-2.53176
-2.79666
-2.91127
-2.47122
-2.46218
-3.22955
-3.25466
-3.44403
-3.95683
-2.76689
-2.66246
-2.7857
-2.80409
-2.60452
-2.59094
-2.15565
-2.65404
-3.57303
-3.70846
-4.53644
-4.51004
-3.76903
-3.99729
-3.61183
-4.1992
-4.17448
-4.15755
-15.0913
-15.1412
-3.4065
-3.38599
-12.6842
-12.984
-1.88692
-1.91118
-1.88704
-1.90946
-2.15689
0.732312
-3.11267
-3.10233
-3.33944
-3.01996
-3.68919
-3.68726
-2.50763
-2.52931
-3.31039
-3.01035
-1.72899
1.04728
-4.15259
-4.17608
428.833
429.382
-2.36886
-2.42446
-4.35322
-3.76192
5.09252
-2.75921
-4.03587
-3.83753
5.43463
8.67486
5.24388
9.49855
-2.34608
-2.39278
9.83225
7.98571
11.1412
7.73911
-4.20084
-4.18922
-3.3114
-3.29574
-2.70289
-2.71146
-3.04717
-1.50274
-2.37747
-2.37828
-2.80365
-2.79197
-2.3774
-2.37813
-2.4682
-2.43605
-2.4717
-2.43324
-3.95724
-3.97441
-3.96706
-3.97446
-1.46723
-1.22911
-2.19518
-2.17596
-1.47618
-1.23839
-2.08082
-2.14715
-2.09419
-2.24514
-4.07971
-4.09313
-2.97541
-2.98827
-2.59831
-2.5801
-2.62126
-2.588
-4.84572
-4.9488
-2.71263
-2.70177
-2.68678
-2.69946
402.274
327.281
-2.81322
-3.13041
-2.89574
-3.11217
-3.31966
-4.14313
-2.49355
-2.48257
-4.08743
-4.1078
-1.96044
5.2899
-5.71602
-5.56088
-1.99062
-2.121
-2.59194
-2.59981
-2.34982
-2.33384
-2.33857
-2.32275
-2.43594
-2.40624
-2.6971
-2.72295
165.366
149.76
141.735
131.381
2.07892
-1.3497
77.0675
69.8694
-3.25783
-2.96571
-2.4404
-2.38876
-3.22809
-2.65695
-2.21169
-2.19925
-3.95915
-3.82363
-2.72783
-2.72336
-5.17425
-5.5004
-3.71448
-3.96937
-3.85871
-3.92657
-4.9902
-4.99555
-2.12921
-2.15622
-0.284711
-4.39956
-3.51044
-3.54742
89.3129
83.1844
-3.81487
-4.11584
2.89536
15.245
-3.08101
-0.249822
-2.48647
-2.49587
-3.2308
-3.16938
-2.65641
-2.66348
-7.41212
-7.48918