/*--------------------------------*- C++ -*----------------------------------*\
| =========                 |                                                 |
| \\      /  F ield         | OpenFOAM: The Open Source CFD Toolbox           |
|  \\    /   O peration     | Version:  v2012                                 |
|   \\  /    A nd           | Website:  www.openfoam.com                      |
|    \\/     M anipulation  |                                                 |
\*---------------------------------------------------------------------------*/
FoamFile
{
    version     2.0;
    format      ascii;
    class       volVectorField;
    location    "0.25";
    object      U;
}
// * * * * * * * * * * * * * * * * * * * * * * * * * * * * * * * * * * * * * //

dimensions      [0 1 -1 0 0 0 0];


internalField   nonuniform List<vector> 
24700
(
(0.0185608 -1.74951 0.019127)
(-0.00746684 -1.69553 0.0106294)
(-0.00546249 -1.64432 0.00283106)
(0.0723908 -1.44458 -0.0169885)
(0.0317909 -1.55902 -0.0378726)
(0.0793045 -1.51209 -0.0556181)
(0.0569344 -1.5632 -0.0480412)
(-0.0106073 -1.4897 0.00481794)
(0.0797416 -0.896132 -0.0190175)
(0.0252979 -1.39597 -0.0227233)
(-0.00257106 -1.46764 -0.0223304)
(-0.00357342 -1.49896 0.00433205)
(2.33345e-05 -1.48508 -0.0205867)
(0.00431486 -1.47098 -0.0193156)
(0.00601263 -1.48447 0.00353033)
(-0.00164119 -1.49523 0.000548005)
(-0.00202422 -1.48953 -0.0164025)
(-0.0045305 -1.57064 0.0175833)
(0.0329908 -1.54348 0.0209944)
(0.00229934 -1.67082 0.0941697)
(0.0433505 -1.45235 0.00417373)
(0.00907509 -1.49719 -0.000528546)
(0.0250983 -1.44452 0.00791763)
(0.00434803 -1.57378 0.0521033)
(0.0517478 -1.43818 -0.00180099)
(0.00789986 -1.51413 -0.00568908)
(0.0454994 -1.20793 -0.00197891)
(-0.0114355 -1.49949 0.00970209)
(-0.0263005 -1.50408 -0.0307933)
(0.0151733 0.827578 0.0607702)
(0.0139225 0.85817 0.108997)
(0.0065713 0.773323 0.0773901)
(0.0258884 0.816135 0.0283824)
(0.0130581 0.867636 0.076759)
(0.00846848 0.644332 0.067276)
(-0.00243141 0.738626 0.0835899)
(0.00462161 0.521414 -0.0225359)
(0.0061868 0.501465 -0.0391777)
(0.00209125 0.515527 -0.0695036)
(-0.00170123 0.506876 -0.0764372)
(-0.00809754 0.526439 -0.0763544)
(0.00428828 0.502532 -0.0515836)
(-0.00136547 0.539091 -0.046703)
(0.00309415 -1.35344 0.0957164)
(0.00427496 -1.40713 0.0622652)
(0.0102268 -1.46031 0.0469997)
(0.00283411 -1.29291 0.0955226)
(-0.00382349 -1.30186 0.113407)
(0.00250778 -1.34131 0.0802062)
(0.0117027 -1.38881 0.0639948)
(-0.0229424 -1.00529 -0.0131245)
(0.00157328 -0.994418 -0.097353)
(-0.00635884 -0.931765 -0.0108951)
(-0.0336051 -1.18394 -0.280613)
(0.0154888 -1.11981 -0.226922)
(-0.0124326 -1.14982 -0.165834)
(0.0149014 -1.09619 -0.164009)
(0.211888 -2.23502 0.502237)
(0.356951 -2.80506 2.36333)
(1.0731 -1.99312 -0.971341)
(0.335179 -1.76478 -0.99287)
(-1.00707 -1.43606 -0.341808)
(0.782118 -1.71605 -0.918668)
(-0.938341 -1.56213 -0.964874)
(-5.21726e-05 -0.186083 -0.288308)
(-0.0108566 -0.160713 -0.303495)
(-0.00234526 -0.129049 -0.312631)
(0.0129401 -0.133341 -0.288377)
(0.00285805 -0.160135 -0.285571)
(-0.00304092 -0.147008 -0.30609)
(0.00705864 -0.12221 -0.313775)
(-0.0372229 -0.00381209 -0.0167094)
(0.00613459 -0.175873 -0.0073882)
(-0.00208113 -0.0894797 -0.0020748)
(0.00305268 -0.138765 -0.0355669)
(0.0163198 -0.129707 -0.0380749)
(-0.00744091 -0.121533 -0.0282349)
(-0.0438099 -0.0794125 -0.0456136)
(0.00519758 -1.45082 -0.0753413)
(-0.0264478 -1.12097 0.029467)
(-0.00482751 -1.50239 -0.0710888)
(-0.056894 -1.57585 -0.0513563)
(0.0460004 -1.32522 -0.103468)
(-0.0198562 -1.53221 -0.114976)
(-0.0252669 -1.54673 -0.094949)
(0.00228811 -0.240299 -0.193429)
(-0.0808985 -0.0255195 -0.205853)
(-0.0131527 0.0113737 -0.12396)
(0.0486672 -0.250583 -0.0950344)
(-0.0429138 -0.244425 -0.136104)
(-0.154941 -0.108147 -0.166416)
(-0.068953 -0.119377 -0.0716047)
(0.00238255 0.0962085 -0.236297)
(0.000287349 0.0997361 -0.249728)
(0.000194169 0.0968083 -0.236336)
(-0.00197156 0.134611 -0.239585)
(0.00460595 0.12643 -0.229365)
(0.00126574 0.116036 -0.245607)
(0.00649119 0.114002 -0.232263)
(-0.00098321 0.294299 -0.456905)
(0.000677661 0.309735 -0.469392)
(0.00259507 0.296137 -0.490121)
(0.00282514 0.318576 -0.514617)
(-0.00352311 0.350906 -0.487578)
(-0.000515338 0.340927 -0.496115)
(0.00421153 0.313258 -0.524673)
(0.0163385 0.824388 -1.0349)
(-0.0018621 0.850042 -0.994328)
(-0.0019056 0.78499 -0.980621)
(0.00769233 0.826593 -0.989561)
(0.00450631 0.807712 -1.00308)
(0.0166506 0.85119 -0.996906)
(0.0259475 0.823773 -1.02927)
(0.00811412 0.37506 0.0171954)
(0.00554425 0.431951 0.0164916)
(-0.00185805 0.451035 0.0163137)
(0.00804637 0.429335 -0.0170799)
(-0.00334402 0.411667 -0.0115142)
(-0.00657071 0.39132 -0.0151026)
(0.0122304 0.428063 -0.0265392)
(-0.0189568 0.234556 -0.00226717)
(0.00666869 0.401401 -0.0325711)
(-0.000576786 0.38782 0.00167841)
(-0.00420903 0.462601 -0.00876462)
(-0.000695585 0.457331 -0.00514811)
(-7.42753e-05 0.456705 -0.00278538)
(0.00620253 0.467581 -0.0186884)
(-0.00215283 0.466361 -0.0209683)
(0.00429947 0.46794 -0.0212865)
(-0.0060731 0.471345 -0.0227495)
(0.000105446 0.457685 -0.0151233)
(0.00487651 0.457879 -0.0186811)
(0.00179292 0.457021 -0.00890473)
(-0.00497126 0.469165 -0.00670345)
(-0.00151013 0.471509 -0.0164607)
(-0.000791315 0.428924 -0.0596535)
(5.5933e-05 0.426949 -0.0506179)
(-0.00170924 0.428439 -0.0517617)
(0.00120384 0.424991 -0.0507122)
(-0.000707598 0.427011 -0.0562332)
(-0.00161718 0.429719 -0.0612875)
(-0.000235062 0.426355 -0.0530013)
(-0.000360766 0.15032 -0.257714)
(-0.00301238 0.178304 -0.251508)
(0.00132264 0.19076 -0.260045)
(-0.0024397 0.154814 -0.273298)
(-0.00220652 0.149667 -0.26044)
(-0.00576254 0.171229 -0.25533)
(-0.00496691 0.173515 -0.267767)
(0.00311412 -1.46321 0.0744724)
(0.000598805 -1.37664 0.093337)
(-0.00736291 -1.28498 0.119733)
(-0.00509071 -1.2588 0.147995)
(-0.00668208 -1.24871 0.127998)
(-0.00677775 -1.31241 0.115217)
(-0.00192045 -1.38077 0.0895898)
(0.00139427 0.120222 -0.597082)
(-0.00140186 0.246743 -0.722911)
(-0.00763638 0.19893 -0.812906)
(0.0266801 0.0750972 -0.729478)
(-0.00903381 0.147826 -0.795538)
(0.0047664 0.198843 -0.704868)
(0.0483859 0.031974 -0.561192)
(-0.015455 0.74389 -1.15769)
(0.0561514 0.657718 -1.12039)
(0.0138379 0.659986 -1.1296)
(-0.0225678 0.669828 -1.13517)
(-0.0128076 0.663671 -1.14154)
(0.0184387 0.65597 -1.15003)
(-0.0159009 0.688791 -1.14741)
(0.00159129 0.807966 -0.959103)
(-0.00488074 0.771232 -0.905857)
(-0.00468 0.820128 -0.902474)
(-0.0259335 0.87178 -1.00786)
(-0.0146035 0.836131 -0.994474)
(-0.0152419 0.805036 -0.991784)
(-0.0341433 0.840239 -0.968939)
(0.0232293 1.2388 -0.907747)
(0.00854543 1.1035 -0.956858)
(0.00822753 1.30992 -0.891096)
(-0.013518 1.1686 -0.892866)
(0.015231 1.26642 -0.815677)
(-0.00615548 1.14579 -0.95253)
(0.000508199 1.25498 -0.888608)
(0.0100766 0.886987 -0.975742)
(0.00603025 0.870313 -0.970804)
(-0.00310991 0.918288 -0.995692)
(-0.0006528 0.868261 -0.951131)
(0.00347756 0.900947 -0.949407)
(0.003122 0.854288 -0.935956)
(0.0131798 0.894025 -0.947038)
(0.00131678 -1.5825 -0.225)
(0.0208933 -1.64825 -0.200981)
(0.00234176 -1.52189 -0.257579)
(0.0145985 -1.60692 -0.19635)
(-0.00602775 -1.56316 -0.217271)
(0.027871 -1.63373 -0.17667)
(-0.00527065 -1.61353 -0.201372)
(-0.012219 -1.47594 0.0642871)
(-0.0100649 -1.51238 0.0822444)
(-0.00970784 -1.49772 0.071892)
(0.012301 -1.51739 0.060077)
(0.0219858 -1.55248 0.0472681)
(0.00202018 -1.49374 0.0554212)
(-0.00147324 -1.48919 0.0607407)
(0.000634606 -2.00225 -0.00847355)
(-0.00219846 -1.98145 0.00836943)
(0.000812227 -2.0076 -0.0207051)
(-6.03387e-05 -1.97759 0.0185832)
(-0.00499258 -1.9542 0.0108483)
(-0.00444457 -1.98173 -0.00629461)
(-0.00141784 -1.98004 0.00605877)
(-0.00649474 -1.00508 0.138242)
(-0.0350546 -0.883482 0.137192)
(-0.000151631 -0.930376 0.106416)
(0.0102049 -1.00891 0.171023)
(-0.0073293 -0.989218 0.185958)
(-0.0400803 -0.929893 0.167431)
(-0.00616542 -0.92231 0.143777)
(-0.0124459 -2.2398 -0.0143653)
(0.0129124 -2.21601 -0.0775821)
(-0.0452969 -2.24072 0.0848266)
(0.0100148 -2.28695 0.224813)
(0.0193051 -2.34093 0.0621327)
(-0.0144965 -2.28516 0.163792)
(0.0165129 -2.3352 0.0763929)
(0.153328 1.22206 -2.15826)
(-0.00355657 0.678071 -2.27651)
(0.0251305 1.70927 -1.87242)
(-0.264304 0.846426 -2.09017)
(-0.103465 1.35453 -1.91248)
(-0.27125 0.792716 -2.24469)
(-0.125276 1.17168 -2.13576)
(-0.00852486 0.836075 -1.21526)
(-0.0180932 0.758717 -1.2148)
(-0.0116446 0.768803 -1.22309)
(0.0456034 0.74014 -1.22542)
(0.023303 0.687212 -1.25224)
(0.0197657 0.712885 -1.23244)
(0.0353237 0.738322 -1.2388)
(-0.0066248 0.946203 -2.03539)
(-0.040416 0.655155 -1.98143)
(-0.0712015 0.550987 -1.84452)
(-0.0294014 0.803661 -1.95538)
(0.0597459 0.767272 -1.9814)
(-0.0206204 0.595253 -1.84819)
(-0.145911 0.532878 -1.78005)
(-0.292167 -1.26416 0.141009)
(-0.521584 -0.586553 -0.203751)
(-0.704418 -0.805308 -0.512244)
(0.678237 -1.41769 0.51659)
(0.409829 -0.711877 -0.352318)
(-1.28014 -0.0395126 -1.00982)
(-0.0453365 -0.00287475 -0.106484)
(-0.025563 -0.00716175 0.00731569)
(-0.00604704 0.0502779 -0.0127087)
(0.0048138 0.0914648 -0.127475)
(-0.0717105 0.0746549 -0.260124)
(0.0199702 0.187936 -0.239412)
(-0.0687325 0.363788 -0.964795)
(-0.0243197 0.555698 -0.863416)
(0.001501 0.799862 -0.903467)
(0.0196471 0.679675 -1.15154)
(0.0224865 0.791738 -1.04788)
(-0.0339539 0.618703 -1.01087)
(-0.0419886 0.471233 -1.15641)
(-0.0226459 0.933896 -1.02)
(-0.0197469 0.934448 -1.04565)
(0.00675875 0.957 -1.14693)
(0.00860042 0.835527 -1.0701)
(0.0230901 0.866872 -1.06349)
(-0.0123508 0.864298 -1.02035)
(-0.0357022 0.842937 -0.963393)
(-0.00867719 1.03719 -1.02198)
(-0.00719653 1.07342 -1.06775)
(0.00399839 1.05278 -1.02868)
(-0.0368512 1.02666 -1.05747)
(-0.0157779 1.03978 -1.05554)
(-0.0158007 1.04568 -1.04226)
(-0.0221484 1.04266 -1.05792)
(-0.00212934 0.953828 -1.07793)
(0.0602204 1.20923 -1.16444)
(0.0410566 1.00774 -1.15557)
(-0.00377026 0.988989 -1.1044)
(-0.0449222 1.11989 -1.00505)
(0.118211 1.26177 -0.931889)
(0.041537 1.03892 -1.11481)
(0.0288145 1.24762 -0.682651)
(0.0528653 0.973087 -0.855892)
(-0.00570579 0.855132 -0.928081)
(-0.0872132 1.02483 -0.522021)
(-0.0441417 0.870111 -0.824017)
(0.0647113 1.03839 -0.69133)
(0.11387 1.25229 -0.566273)
(-0.0143851 0.708758 -0.946184)
(0.0426105 0.924583 -0.376049)
(0.0363425 0.751959 -0.856889)
(-0.100648 0.766997 -0.817892)
(-0.0774085 0.876546 -0.49265)
(-0.14394 0.754137 -0.224636)
(-0.202969 0.795522 -0.548846)
(0.018285 0.759581 -0.757469)
(-0.000369587 0.710735 -0.881985)
(-0.0256466 0.753906 -0.827734)
(0.0375747 0.973944 -0.910445)
(0.0130008 0.903222 -0.928095)
(0.00491306 0.86375 -0.876288)
(0.0354544 0.879151 -0.868842)
(-0.0120154 -2.14435 -0.00719966)
(-0.0352909 -2.0488 0.00530304)
(0.00339628 -2.17508 -0.0192375)
(0.0325427 -2.3119 -0.0283698)
(0.00695702 -2.29 -0.0403381)
(-0.00323386 -2.2351 -0.0318942)
(0.0239652 -2.28835 -0.0428446)
(-0.0263932 -0.948422 -0.306936)
(-0.0621171 -1.0169 -0.331853)
(0.00339322 -0.845133 -0.288331)
(-0.0289659 -0.754362 -0.335555)
(-0.000250206 -0.770059 -0.346425)
(-0.0610085 -0.924126 -0.326498)
(-0.0311989 -0.841526 -0.332636)
(-0.00556845 -0.287296 -0.394064)
(-0.00329363 -0.296268 -0.404514)
(-0.000411588 -0.326856 -0.404105)
(0.00548767 -0.310142 -0.380317)
(0.0015645 -0.303887 -0.380007)
(-0.00699093 -0.300656 -0.387446)
(-0.00659863 -0.286758 -0.37843)
(-0.00454685 0.33237 -0.336434)
(-0.00144484 0.350107 -0.345189)
(-0.000446033 0.303421 -0.340042)
(0.00171084 0.315535 -0.364155)
(0.00150064 0.304479 -0.349342)
(0.000377719 0.33922 -0.358125)
(-0.00133642 0.325885 -0.346395)
(0.00099437 0.61734 -0.249053)
(-0.00466061 0.619853 -0.233489)
(-0.00492819 0.639247 -0.230009)
(0.000487827 0.638755 -0.270268)
(0.00973811 0.65077 -0.279253)
(0.00234581 0.63479 -0.254413)
(0.00829322 0.647268 -0.257046)
(-0.00857399 0.642275 -0.119646)
(0.0013135 0.609149 -0.146385)
(-0.00413087 0.618664 -0.131331)
(0.00241974 0.627751 -0.161899)
(0.00533221 0.649927 -0.157066)
(0.00123671 0.631182 -0.145514)
(-0.00242299 0.659241 -0.13644)
(-0.00233642 0.551452 -0.0439959)
(0.00206587 0.546372 -0.035391)
(-0.000508898 0.542645 -0.0442259)
(-0.000917891 0.531982 -0.0427412)
(-0.0010169 0.527972 -0.0498714)
(0.000753659 0.541542 -0.0365738)
(-0.000449074 0.542306 -0.0467806)
(-0.00355136 0.50538 -0.0272195)
(0.000212004 0.499942 -0.0306058)
(-0.000262984 0.502481 -0.029392)
(0.0021266 0.512341 -0.044354)
(-0.00235357 0.520228 -0.0435565)
(0.0012324 0.509491 -0.0399499)
(-0.000772837 0.514938 -0.0346772)
(-0.0046279 0.483267 -0.0303546)
(-0.000253265 0.482074 -0.0309414)
(-0.000322755 0.482002 -0.0267837)
(-0.00161706 0.494574 -0.0274398)
(0.00344109 0.496744 -0.021352)
(0.00285383 0.490941 -0.0217454)
(-0.0035531 0.4932 -0.0301466)
(0.00100807 0.458158 -0.0552589)
(2.42004e-05 0.454746 -0.0596286)
(-0.00128816 0.460524 -0.0625383)
(-0.00329727 0.449774 -0.0584621)
(-0.00157413 0.448252 -0.0550263)
(-0.000140382 0.451751 -0.0530174)
(-0.00213625 0.456003 -0.0608213)
(8.61839e-05 0.425079 -0.0495929)
(0.00117014 0.425199 -0.0576162)
(0.00116757 0.42506 -0.0508433)
(0.0009383 0.425779 -0.0538651)
(-0.00131567 0.423406 -0.0489379)
(0.00221748 0.427367 -0.0594657)
(-6.93093e-06 0.423582 -0.0516967)
(-0.000324672 0.33206 -0.113976)
(-0.000697642 0.327367 -0.135674)
(-0.0016238 0.324809 -0.123001)
(0.000132295 0.338375 -0.117601)
(0.001263 0.343288 -0.125226)
(0.000693611 0.337815 -0.135155)
(-0.00163711 0.331832 -0.12653)
(-0.000143554 0.0973507 -0.237069)
(0.000234488 0.100091 -0.249476)
(-0.00194408 0.0963745 -0.235991)
(-0.00447748 0.127866 -0.231435)
(0.000432081 0.135251 -0.241188)
(-0.000631823 0.117129 -0.245706)
(-0.00547888 0.115115 -0.232597)
(0.00133542 -0.0383319 -0.212152)
(0.00526469 0.00614428 -0.24938)
(0.00388798 -0.0185679 -0.239532)
(0.000383779 -0.0191538 -0.215245)
(-0.00773304 0.00401353 -0.22899)
(0.00219597 0.0123025 -0.250921)
(0.00646059 -0.00970232 -0.238798)
(-0.00259275 -1.91205 0.00448831)
(-0.00112495 -1.92504 -0.0128491)
(-0.00485381 -1.94416 -0.00604217)
(-0.00120262 -1.8899 -0.00340785)
(0.000677973 -1.88965 -0.018271)
(0.0046657 -1.90791 -0.0169113)
(0.00798252 -1.92675 0.00413163)
(-0.0210057 -0.627917 0.963564)
(0.0167793 -0.477995 0.608412)
(-0.0241324 -0.546802 1.41946)
(-0.115157 0.120149 1.19396)
(0.0228384 0.518768 1.09957)
(0.111481 0.158726 0.783638)
(-0.0793151 -0.11079 0.877892)
(0.104247 2.25128 0.237848)
(-0.0212332 2.57176 0.607894)
(-0.0151827 2.37055 0.429903)
(-0.067875 2.4438 0.0551444)
(0.0626489 2.44397 -0.153317)
(-0.0667296 2.31408 0.0612672)
(0.090608 2.30989 -0.0556884)
(-0.0815085 2.20205 -2.05095)
(0.231863 1.79438 -1.77708)
(-0.0242096 1.8409 -1.86382)
(0.4007 1.35997 -1.2559)
(-0.00779755 1.92921 -1.55422)
(0.548411 1.3927 -1.45893)
(0.154983 2.15698 -2.01068)
(0.0784961 0.695859 -0.237228)
(-0.237262 1.87008 -2.6731)
(0.0581583 0.570336 -0.78557)
(0.459638 2.25617 -0.869884)
(0.202668 2.27175 -1.62865)
(0.600693 1.36345 0.845469)
(0.396241 1.49097 0.238879)
(-0.446287 1.20196 -0.169303)
(0.308485 1.08061 0.506342)
(0.191626 0.0464005 -0.183021)
(-0.123695 1.48264 -0.609397)
(-0.101232 1.06445 0.628127)
(-0.0480069 -0.494539 0.988905)
(-0.0280614 0.515736 0.765409)
(0.260972 0.282036 0.525686)
(0.337328 0.608066 0.955227)
(0.179793 0.332594 1.14931)
(0.769968 1.18931 0.612123)
(0.661383 1.05097 0.454736)
(0.271948 0.861128 -0.791639)
(0.503053 0.706139 -0.0491681)
(0.135688 -0.0611073 -0.29946)
(0.543123 0.973429 0.940229)
(1.08839 1.9774 0.356954)
(-0.00599271 0.24021 0.11007)
(0.007342 0.220522 0.0801906)
(0.00268152 0.17258 0.192237)
(-0.0661816 0.609657 -0.00910856)
(0.137841 0.421976 0.00360707)
(0.0571581 0.307323 0.0782167)
(0.0615772 0.253099 0.161673)
(-0.00332685 0.608943 -0.92161)
(0.0787974 0.162938 -1.61448)
(-0.0164652 0.420729 -1.17144)
(-0.0232529 0.4745 -1.19373)
(0.0314522 0.253699 -1.4656)
(0.108017 0.279864 -1.7211)
(0.0163749 0.424854 -1.4259)
(0.000885571 -1.0699 -0.218939)
(0.00128283 -1.05595 -0.257085)
(0.0101728 -1.07201 -0.287919)
(0.00755249 -1.16701 -0.22279)
(-0.00990052 -1.11867 -0.18429)
(-0.00327353 -1.10539 -0.227452)
(0.0171864 -1.14603 -0.280524)
(0.00376918 -1.18903 -0.0689973)
(-0.000644358 -1.20556 -0.0970947)
(0.00139572 -1.24393 -0.129254)
(0.0176849 -1.29278 -0.0840172)
(-0.00650788 -1.25096 -0.0604055)
(0.000237054 -1.25317 -0.0779139)
(0.0162996 -1.30843 -0.108671)
(-0.00198845 -0.906296 -0.337782)
(-0.012762 -0.853708 -0.356574)
(-0.00737345 -0.844133 -0.383741)
(0.0163724 -0.904931 -0.406082)
(0.00516755 -0.914333 -0.382155)
(-0.0140651 -0.880307 -0.392319)
(-0.00656692 -0.875693 -0.413305)
(-0.00814803 -0.284048 -0.626533)
(-0.0143245 -0.240534 -0.634529)
(0.00137169 -0.320653 -0.626117)
(0.0145063 -0.24015 -0.682188)
(0.00689573 -0.290131 -0.656246)
(0.0113222 -0.238062 -0.682368)
(0.00677858 -0.27436 -0.662945)
(-0.000554579 0.142229 -0.458052)
(-0.00661747 0.181977 -0.453012)
(0.0026898 0.199817 -0.473722)
(0.00213688 0.151661 -0.491866)
(-0.000198725 0.141658 -0.469775)
(-0.000763696 0.167281 -0.465254)
(0.00493177 0.178451 -0.496962)
(-0.00675845 0.741643 -0.363375)
(-0.00632997 0.77968 -0.360626)
(-0.00117403 0.71483 -0.391032)
(-0.00127117 0.755059 -0.437678)
(-0.000952541 0.731953 -0.422868)
(-0.00826341 0.775001 -0.397107)
(-0.00804026 0.749015 -0.39701)
(-0.0384023 0.701173 0.00825435)
(0.014894 0.852815 -0.0239647)
(-0.0399574 0.452481 0.008181)
(-0.0600002 0.757896 0.00379802)
(-0.0984447 0.752736 0.0357278)
(-0.101533 0.820656 0.0468878)
(-0.0459173 0.878497 -0.0169555)
(-0.000702386 0.558064 -0.071104)
(-0.000347757 0.575542 -0.0604495)
(-0.00158483 0.559459 -0.0650193)
(-0.000670969 0.583537 -0.0615337)
(0.00464194 0.575963 -0.0486847)
(-0.000887267 0.570326 -0.0701473)
(0.00251416 0.569923 -0.0558359)
(-0.000788586 0.279138 -0.0369554)
(0.00160169 0.280201 -0.0443667)
(-0.000784943 0.272746 -0.0323312)
(-0.00132387 0.262671 -0.0477621)
(-0.000749699 0.26586 -0.0365666)
(-0.000716204 0.267801 -0.0471867)
(-0.00190712 0.271625 -0.0379554)
(-0.000713391 0.235108 -0.0385403)
(0.00291518 0.232599 -0.0512945)
(-0.0012172 0.232355 -0.0334605)
(-0.00243045 0.215047 -0.0549997)
(-0.00146576 0.21758 -0.0394983)
(-0.00213124 0.222603 -0.0551951)
(-0.00273145 0.226365 -0.0409434)
(0.00148153 -0.597374 0.205893)
(-0.00454632 -0.647701 0.269853)
(0.021009 -0.634407 0.298197)
(0.00271991 -0.581109 0.26861)
(-0.0230999 -0.627376 0.249088)
(-0.0227533 -0.657955 0.275327)
(0.00931182 -0.59001 0.280782)
(-0.029998 2.42904 -0.0816794)
(-0.0127237 2.60036 0.322303)
(0.00447955 2.40969 -0.276579)
(0.00680413 2.46237 0.0995834)
(0.0123646 2.42023 -0.0412799)
(-0.0243712 2.36765 -0.150814)
(-0.00617561 2.38259 -0.227166)
(0.05026 2.43293 -0.325272)
(0.0232196 2.33993 -0.31765)
(0.0457337 2.69486 -0.068579)
(-0.292015 2.62904 -0.254095)
(-0.0754948 2.70301 -0.232188)
(-0.195211 2.46441 -0.279701)
(0.00909451 2.53345 -0.333952)
(-0.0396686 2.62933 -0.381478)
(-0.0723052 2.60762 -0.356539)
(0.0150086 2.49589 -0.370694)
(0.0532735 2.6296 -0.474945)
(-0.0217085 2.64892 -0.563278)
(-0.171818 2.63912 -0.355742)
(-0.0506642 2.73778 -0.424451)
(1.27725 1.40682 -0.133241)
(0.334465 1.46124 0.519028)
(-0.480141 1.34985 -0.028941)
(0.663819 0.191634 0.202804)
(-0.819891 0.940385 -0.786059)
(-0.800708 0.560875 -1.09841)
(1.67158 0.540626 -0.259466)
(-0.0526321 2.79465 -1.57229)
(-0.541075 3.44963 -0.936271)
(0.164185 2.97536 -2.28342)
(2.86488e-05 1.44317 -1.44412)
(-0.306547 2.59818 -0.906542)
(-0.717694 2.57106 -0.455944)
(-0.250256 1.67498 -1.05649)
(-0.000256568 1.05194 -1.38843)
(-0.0237296 1.02423 -1.37333)
(-0.0114259 1.04967 -1.44782)
(0.0135716 1.04349 -1.54621)
(0.0535178 1.0606 -1.44111)
(0.0437848 1.018 -1.39484)
(0.0159336 1.01813 -1.52746)
(-0.00504347 0.622577 -1.2223)
(0.00935977 0.352722 -1.23184)
(-0.0391277 0.476013 -1.38689)
(-0.0137992 0.650284 -1.16526)
(0.0319072 0.580049 -1.10275)
(0.0146162 0.361337 -1.13175)
(-0.0478709 0.533263 -1.29316)
(0.0111365 0.167306 -1.79128)
(-0.195708 0.141479 -1.8997)
(-0.0456661 0.19977 -1.89209)
(0.126787 0.0845619 -1.70822)
(0.00269735 0.0324026 -1.66399)
(-0.138235 0.100998 -1.80657)
(0.0500265 0.144812 -1.83608)
(0.0317267 -2.07207 0.0145687)
(-0.0143103 -2.1809 -0.0109047)
(-0.0052999 -2.24143 -0.115751)
(-0.0269671 -2.35659 -0.0566275)
(-0.034533 -2.36015 -0.0633818)
(-0.0292747 -2.30265 -0.0316263)
(-0.00805894 -2.25616 -0.0221887)
(0.00724934 -2.44852 -0.0365888)
(-0.00124794 -2.46688 -0.023133)
(-0.00102189 -2.44363 -0.0356883)
(-0.00150897 -2.46816 -0.0160714)
(-0.00480387 -2.4696 -0.0148636)
(0.0023693 -2.45207 -0.0299185)
(-0.00185603 -2.45606 -0.0282162)
(-0.0178279 -0.834844 -0.00161946)
(-0.00444573 -0.85542 -0.0347399)
(-0.0082753 -0.90483 0.0324557)
(0.028581 -0.935058 -0.0252467)
(0.00275985 -0.909823 0.00224981)
(0.00495135 -0.904325 -0.036349)
(-0.0167328 -0.867032 -0.0164449)
(0.00534322 -0.268119 -0.971177)
(0.00341361 -0.272766 -0.98365)
(-0.00303878 -0.272017 -1.02743)
(-0.0106885 -0.166194 -1.01384)
(-0.0112802 -0.194408 -0.986325)
(-0.0136452 -0.214968 -0.972739)
(-0.0157538 -0.214575 -0.979536)
(-0.00563349 0.33156 -0.641708)
(-0.00541823 0.359723 -0.648617)
(-0.00116886 0.278204 -0.664455)
(-0.00186084 0.302726 -0.675047)
(0.00282216 0.287332 -0.660768)
(-0.0155588 0.330867 -0.663056)
(-0.0110199 0.317363 -0.649456)
(0.012258 0.896845 -0.000725416)
(0.0306319 1.46341 -0.0651487)
(-0.0320638 1.36717 0.0284741)
(-0.0106546 1.21322 -0.0353186)
(0.03819 1.22923 -0.106668)
(0.0154633 1.43743 -0.130075)
(-0.0424027 1.36993 -0.030551)
(0.0174882 1.36384 -0.0994253)
(-0.019462 1.18623 -0.184367)
(-0.0129753 1.2474 -0.124809)
(0.0359118 1.44654 -0.102344)
(0.0107463 1.3553 -0.150555)
(-0.11737 0.450015 0.028338)
(-0.0546558 0.772164 0.0345136)
(0.0676748 1.02274 -0.0606168)
(-0.0043681 0.929457 -0.0482109)
(-0.0658951 0.782158 0.0443091)
(-0.0467109 0.918761 0.0311796)
(0.0453948 1.07069 -0.106522)
(-0.00362271 0.919134 -0.134575)
(-0.0741049 0.80538 0.00539469)
(-0.00920351 0.932184 -0.193355)
(-0.0167271 0.959715 -0.154156)
(-0.0559762 0.893203 -0.0365364)
(0.030495 0.732718 -0.0403981)
(0.0492596 0.76112 -0.0582669)
(-0.0127523 0.802436 -0.0681192)
(-0.015425 0.788975 -0.0174649)
(-0.003641 0.72352 0.0123678)
(-0.00168474 0.210181 -0.00210297)
(-0.00386357 0.18395 -0.0283403)
(-0.000564231 0.187542 -0.00964092)
(-0.0011153 0.211657 -0.00876885)
(0.00188865 0.207016 -0.0258812)
(-0.00482963 0.190842 -0.0295112)
(-0.0026123 0.196627 -0.0108175)
(-0.0109046 -0.170967 0.0640481)
(-0.0126245 -0.125422 -0.0073051)
(0.0174528 -0.143895 -0.00142921)
(-0.00919339 0.0189422 0.108545)
(0.0828994 0.102952 0.181659)
(0.0340894 -0.0897314 0.0372398)
(0.118957 -0.0621975 0.0481992)
(-0.00109297 -0.422118 0.2152)
(0.011052 -0.432449 0.270767)
(0.00610281 -0.411835 0.272128)
(-0.0120123 -0.359454 0.201561)
(-0.00301746 -0.383652 0.187193)
(0.00990245 -0.400663 0.238322)
(-0.00249297 -0.38388 0.251207)
(0.00711093 -0.388751 0.287135)
(-0.00159684 -0.402393 0.319537)
(-0.0048925 -0.390195 0.279132)
(0.00678475 -0.33986 0.309591)
(-0.00980923 -0.336054 0.281436)
(-0.00959823 -0.350026 0.263933)
(0.0085841 -0.342589 0.290167)
(-0.0225063 -0.859811 1.32198)
(0.00266658 -0.898921 1.24481)
(-0.016257 -0.780451 1.41246)
(0.0260439 -0.676775 1.39017)
(0.0283608 -0.809569 1.33677)
(0.00295789 -0.747783 1.42723)
(0.00941768 -0.828275 1.3861)
(0.0207059 -0.535578 0.916847)
(-0.00175294 -0.885171 0.891227)
(0.0236886 -0.707192 0.889727)
(-0.0224258 -0.884901 0.979533)
(-0.0218317 -0.800059 1.04425)
(0.0105838 -0.766585 0.968469)
(0.0258391 -0.684016 0.994491)
(0.0177316 1.95842 0.642144)
(-0.0284755 1.96591 0.670592)
(0.0342889 1.97997 0.848508)
(0.076941 2.39095 0.776034)
(-0.0520673 2.20072 0.508967)
(-0.0536431 2.12709 0.571066)
(0.102082 2.24824 0.904224)
(0.0731566 3.16004 1.12632)
(0.0726888 3.15611 1.13967)
(0.0191519 2.88788 0.996624)
(-0.0951162 2.74718 0.884017)
(-0.0362996 2.81654 0.939041)
(-0.06981 2.89057 1.02854)
(0.0168006 3.04329 1.09728)
(0.0172678 1.98628 0.10879)
(-0.0313204 2.21222 0.0992506)
(0.0887629 2.22037 0.0500857)
(-0.000468493 2.20102 -0.0739569)
(-0.0378122 2.10124 0.00790406)
(-0.0311445 2.18689 0.0446217)
(0.0596264 2.24317 -0.0141513)
(0.0655315 1.64358 0.0166068)
(-0.0360136 2.05408 0.0149147)
(-0.0229316 2.17668 0.0136967)
(-0.013 2.18138 0.0428708)
(-0.0598974 2.20468 0.0171867)
(-0.00784936 0.586124 -1.78334)
(-0.00639522 0.50177 -1.77539)
(0.000442811 0.735717 -1.89386)
(0.0242038 0.610651 -1.7228)
(-0.0445089 0.567599 -1.67424)
(-0.0405144 0.439278 -1.65858)
(-0.0243569 0.477234 -1.67799)
(-0.0101635 0.968996 -0.946235)
(-0.012161 1.02158 -0.964333)
(0.00356965 0.973577 -1.02764)
(0.00169959 0.958256 -0.982417)
(0.00437231 0.927012 -0.983826)
(0.00179148 0.96261 -0.956247)
(0.00472503 0.941968 -0.95657)
(-0.0213765 1.02484 -1.05568)
(0.00128678 1.09471 -1.07085)
(0.00363586 0.971569 -1.03749)
(0.0770334 1.03017 -0.745202)
(0.0450524 0.986665 -0.900577)
(0.0868433 1.09636 -0.872174)
(0.0478165 1.04406 -0.853791)
(-0.00563168 0.253881 -2.69073)
(0.0743138 0.221021 -2.8581)
(0.0487116 0.154458 -2.92088)
(-0.017182 0.121575 -2.76824)
(-0.0399991 0.0916143 -2.75683)
(0.0641877 0.00644251 -2.83789)
(-0.0216989 -0.0401887 -2.80493)
(0.0528021 -0.512182 -0.167592)
(0.0108527 -0.547101 -0.108731)
(0.00135865 -0.445558 -0.178336)
(-0.0866456 -0.46134 -0.00870472)
(-0.0173538 -0.427988 -0.0811087)
(-0.0597578 -0.509383 -0.00828985)
(0.0396299 -0.476183 -0.088885)
(0.0332971 -2.36257 0.0298568)
(0.0349645 -2.09179 0.0660707)
(-0.0100244 -2.6017 0.0035965)
(-0.0197295 -2.4026 -0.0164709)
(-1.53033e-05 -2.53844 -0.0301701)
(0.00616698 -2.14451 0.0128398)
(0.0176693 -2.39989 -0.0182426)
(-0.000828034 -2.17493 -0.0768192)
(-0.0145161 -2.1811 -0.111322)
(-0.0236588 -2.18829 -0.134559)
(-0.00516176 -2.12017 -0.127705)
(0.0173094 -2.06177 -0.127033)
(-0.00667519 -2.11832 -0.124717)
(-0.0229179 -2.14267 -0.124823)
(0.00218379 -1.34651 0.152068)
(-0.0224791 -1.29863 0.139177)
(0.00330979 -1.394 0.141131)
(-0.00228635 -1.3502 0.0702515)
(0.0100804 -1.39089 0.11833)
(-0.0195442 -1.32932 0.0963124)
(0.0119767 -1.35753 0.12141)
(-0.00394954 -1.32702 -0.470955)
(-0.0156097 -1.18514 -0.585738)
(-0.0340674 -1.13935 -0.68591)
(-0.0136321 -1.28315 -0.588179)
(-0.014993 -1.30761 -0.519438)
(-0.0812245 -1.2296 -0.632167)
(-0.0839774 -1.19235 -0.71009)
(0.0592227 1.99088 0.00435875)
(0.046597 3.23087 -0.142449)
(-0.0719649 3.01113 0.0684115)
(0.0160526 2.57806 -0.0782925)
(0.121181 2.56696 -0.244761)
(0.0416157 3.14423 -0.296371)
(-0.0979587 2.98261 -0.0704799)
(0.00764639 2.87808 -0.241657)
(0.0416432 2.34276 -0.394238)
(-0.00374516 2.58921 -0.292297)
(0.0368479 3.12496 -0.209274)
(0.0161187 2.8718 -0.34382)
(0.00115727 0.71575 -0.388356)
(0.00351565 0.783456 -0.360802)
(0.00560283 0.742777 -0.362922)
(0.00313357 0.733562 -0.419224)
(0.000359713 0.759896 -0.431567)
(-0.00171549 0.783007 -0.398178)
(0.00463348 0.752286 -0.397176)
(-0.000414835 0.452822 -0.333561)
(0.000468604 0.480301 -0.365529)
(0.00246786 0.485426 -0.331778)
(-9.66377e-05 0.460111 -0.320314)
(-0.00548783 0.456689 -0.33623)
(0.00087454 0.47215 -0.358255)
(0.00325509 0.477941 -0.327179)
(-0.00011804 0.314872 -0.234309)
(-0.0008132 0.328024 -0.263243)
(-0.000501615 0.341627 -0.245334)
(0.00128207 0.323722 -0.230851)
(-0.000933887 0.316565 -0.240896)
(-0.000631575 0.325773 -0.261989)
(0.000277696 0.338187 -0.243455)
(0.000672225 0.284505 0.0105758)
(-0.000717242 0.282616 0.00609465)
(-0.00649378 0.290696 0.0232755)
(0.00118272 0.273753 0.0174756)
(-0.00419129 0.288823 0.034574)
(-0.000324349 0.280578 0.0309204)
(-0.00655773 0.310121 0.0719918)
(-0.038332 0.323671 0.107483)
(0.00782247 0.281039 0.042811)
(-0.0202405 0.291489 0.0825009)
(0.00282333 0.286097 0.0454458)
(0.0121376 0.276439 0.0319737)
(0.00216498 0.268045 0.0551176)
(-0.0173327 0.308941 0.0693387)
(-0.0370467 0.32755 0.0945921)
(-0.0184542 0.305504 0.0859445)
(0.00103188 -1.66661 -0.0361932)
(0.00249311 -1.65598 -0.0174797)
(-0.00187019 -1.66815 -0.0536344)
(-0.00306707 -1.63224 -0.0338816)
(-0.00103802 -1.65742 -0.0481092)
(-0.00215674 -1.63841 -0.023728)
(-0.000619273 -1.6591 -0.0390038)
(-0.0875487 -0.233457 0.165983)
(-0.0236192 -0.203297 0.141217)
(0.00727672 -0.238486 0.147112)
(0.0161287 -0.163329 0.125778)
(0.0442013 -0.16256 0.130357)
(-0.0116787 -0.169798 0.0836069)
(-0.0151563 -0.207981 0.0972069)
(-0.00176125 -0.262191 0.270719)
(-0.0012431 -0.244697 0.23571)
(0.00570372 -0.245729 0.249274)
(-0.00240193 -0.218437 0.251082)
(-0.00528446 -0.21319 0.222697)
(-0.0104723 -0.209545 0.209145)
(-0.00119622 -0.219078 0.240372)
(0.0249424 -0.196891 0.570712)
(0.00284331 -0.283202 0.505463)
(0.00858307 -0.240107 0.549193)
(-0.00970228 -0.251689 0.505885)
(-0.00732698 -0.214507 0.516381)
(0.0150923 -0.238424 0.553686)
(0.0272833 -0.207886 0.560972)
(-0.00283469 -0.57758 1.45615)
(0.0253763 -0.508347 1.43335)
(-0.0110252 -0.563607 1.44722)
(-0.0168117 -0.342715 1.40716)
(-0.0248822 -0.455566 1.43512)
(-0.000345711 -0.370538 1.40837)
(-0.0357996 -0.474453 1.43555)
(0.00644663 0.444674 0.879629)
(-0.0756323 0.383392 0.941671)
(0.0319094 0.34291 0.959929)
(0.0607842 0.678308 0.791029)
(-0.0543614 0.850408 0.702674)
(-0.0960655 0.639982 0.79494)
(0.0535525 0.587519 0.876388)
(-0.0450515 1.95321 0.598268)
(-0.0663907 1.93885 0.382893)
(-0.00818975 1.85548 0.376333)
(-0.0112884 1.89813 0.426984)
(-0.00804826 1.921 0.549014)
(-0.1098 1.94321 0.453049)
(-0.109376 1.95479 0.636784)
(0.0540429 2.14157 0.177528)
(0.00759337 2.02885 0.108398)
(-0.00206931 1.95771 0.183909)
(0.0222811 1.87423 0.165152)
(0.0661598 1.8894 0.198116)
(0.0394918 1.99583 0.121301)
(0.0613931 2.05163 0.241506)
(0.0117077 1.82715 0.240087)
(0.0187992 1.81187 0.241878)
(0.00747814 1.74244 0.179945)
(-0.0227708 1.71053 0.14447)
(-0.0197098 1.70976 0.151472)
(-0.0141877 1.73753 0.193889)
(-0.00908645 1.76637 0.196926)
(0.0175812 0.160259 -2.76457)
(-0.000363124 -0.0436511 -2.82108)
(0.0459907 -0.0804287 -2.84377)
(0.0381076 -0.138412 -2.84728)
(-0.0901804 -0.0620827 -2.74987)
(-0.0765951 -0.184103 -2.81341)
(0.0190949 -0.208568 -2.86843)