/*--------------------------------*- C++ -*----------------------------------*\
| =========                 |                                                 |
| \\      /  F ield         | OpenFOAM: The Open Source CFD Toolbox           |
|  \\    /   O peration     | Version:  v2012                                 |
|   \\  /    A nd           | Website:  www.openfoam.com                      |
|    \\/     M anipulation  |                                                 |
\*---------------------------------------------------------------------------*/
FoamFile
{
    version     2.0;
    format      ascii;
    class       volScalarField;
    location    "0.2";
    object      alpha.water;
}
// * * * * * * * * * * * * * * * * * * * * * * * * * * * * * * * * * * * * * //

dimensions      [0 0 0 0 0 0 0];


internalField   nonuniform List<scalar> 
6576
(
1
1
1
1
1
1
1
1
1
1
1
1
1
1
1
1
1
1
1
1
1
1
1
1
1
1
1
1
1
1
1
1
1
1
1
1
1
1
1
1
1
1
1
0.948608
0.559695
0.996396
0.459543
0.987765
0.999988
0.995493
0.999985
0.999986
1.16128e-58
6.95622e-57
1.60158e-57
1.16128e-58
1.16082e-58
1.07467e-59
6.51755e-59
4.28036e-49
2.94687e-49
4.28082e-49
1.10515e-54
1.15518e-54
9.52227e-55
8.78374e-55
9.74253e-45
9.74253e-45
1.77725e-44
9.74253e-45
1.88121e-44
1.64966e-44
3.07965e-44
7.09188e-05
0.000203886
7.73427e-05
0.000156033
6.2216e-05
7.02546e-05
8.4739e-05
0.000521364
0.000767906
0.000524721
0.00094105
0.000499582
0.000961231
0.000221283
1.44208e-08
1.14714e-08
1.99547e-06
4.6529e-08
3.66392e-05
1.44656e-08
1.44656e-08
0.978924
0.978142
0.977321
0.970079
0.978693
0.999996
0.971248
1
1
1
1
1
1
0.999992
1
1
1
1
1
0.999999
3.05864e-13
-1.41009e-66
-1.68486e-25
-7.57421e-63
-2.03065e-63
0
3.04674e-16
0.267763
0.8577
0.973606
0.974775
0.921105
0.999979
0.999466
-3.02706e-65
-2.00081e-63
1.2543e-119
-4.5552e-20
-3.44608e-31
3.26128e-17
1.45206e-17
3.99587e-18
1.07068e-18
1.76179e-18
1.33564e-17
7.26609e-19
3.23854e-19
7.26609e-19
6.81529e-12
3.07675e-11
8.12366e-12
5.37996e-10
4.36362e-11
1.03911e-13
4.26888e-11
6.9597e-10
4.90451e-10
6.9597e-10
1.24244e-09
4.34998e-10
1.0196e-09
8.10378e-09
1.60125e-07
2.31295e-07
1.9144e-07
1.90123e-07
3.69392e-07
3.18963e-07
3.18963e-07
2.52328e-07
3.18963e-07
6.04035e-07
6.38533e-07
1.45464e-06
5.38583e-07
1.13696e-06
1.12172e-06
1.63478e-06
6.62463e-07
1.8114e-06
3.21513e-07
1.0883e-06
1.80551e-06
2.92031e-07
1.10206e-06
1.28977e-06
9.17764e-08
3.44877e-07
3.44248e-07
6.41452e-07
3.44345e-07
3.44345e-07
9.87713e-07
9.81329e-07
9.79455e-07
1.00815e-06
7.40543e-07
4.44938e-07
1.21428e-06
1.01716e-06
3.86918e-07
7.50288e-07
3.5785e-07
1.11931e-06
6.38756e-07
1.07369e-06
1.11931e-06
1.11931e-06
9.58936e-07
5.898e-07
7.8961e-08
8.22317e-07
1.12825e-10
2.64055e-07
4.31855e-07
9.04183e-07
6.51211e-07
3.25918e-13
5.34348e-13
5.51716e-13
4.03504e-13
3.58313e-13
2.85033e-13
3.31324e-13
3.82927e-07
4.70588e-08
2.64425e-07
2.52918e-07
3.82927e-07
1.65046e-07
1.67708e-07
1.06716e-06
2.69018e-07
1.38794e-06
8.76956e-07
1.5453e-06
1.36e-06
1.34323e-06
1.20503e-06
1.392e-06
1.23723e-06
1.57442e-06
1.57563e-06
1.57577e-06
1.57576e-06
1.70337e-06
1.6072e-06
1.80868e-06
1.79361e-06
1.78551e-06
1.80744e-06
1.79977e-06
1.23055e-06
1.51615e-06
1.42961e-06
1.74532e-06
1.80836e-06
1.49928e-06
1.80943e-06
1.80927e-06
1.80738e-06
1.56058e-07
1.24433e-09
8.39057e-08
1.03443e-06
8.76292e-07
1.35756e-07
2.42865e-07
-4.61917e-29
2.49103e-28
6.67724e-24
4.90791e-31
2.31111e-27
3.51891e-29
4.90892e-31
1
1
1
1
1
1
1
1
1
0.991854
0.991867
0.99187
0.988821
0.991864
0.982933
0.901997
0.000934225
0.00381788
0.00377101
0.00190952
0.00167909
0.00674418
0.00281076
0.00520056
0.00167884
0.986218
0.991864
0.968555
0.00931192
0.00194201
0.00386775
0.0019436
0.0019397
0.00222718
0.00194432
1.25804e-14
4.6605e-13
2.24383e-14
2.15455e-14
1.73494e-14
3.00419e-14
2.36394e-14
0.0803754
0.0133361
8.98949e-05
0.0826795
0.00482501
0.000173479
8.85874e-05
8.9885e-05
9.62738e-05
1.25568e-13
1.26692e-13
1.26692e-13
1.25568e-13
1.34027e-13
2.08386e-13
5.31815e-13
0.00279816
0.00131573
0.00124423
0.000857665
0.00165263
0.000862633
0.000861589
0.00215466
0.00152251
0.00280448
0.00263286
0.0015217
0.00368547
0.00104359
0.00174291
0.00383249
0.0020117
0.0046383
0.0020117
0.00579772
0.00264144
0.00591713
0.00261503
0.0026244
0.00687116
1
1
1
1
1
1
1
1
1
1
1
1
1
1
1
1
0.917084
0.919308
0.963311
0.992192
0.961635
0.973485
0.956268
0.00721758
0.0138938
0.0123826
0.0199963
0.171671
0.0123419
0.0263393
3.27518e-07
1.51707e-06
5.903e-07
1.23018e-05
0.000272759
1.01034e-06
1.15415e-07
1.07994e-07
1.03513e-07
3.18476e-11
7.30117e-09
7.60757e-09
2.22561e-08
2.13251e-08
2.22544e-08
3.49547e-09
1.37366e-06
5.00279e-06
1.03741e-08
5.13007e-06
2.71796e-05
2.00141e-06
1.0467e-08
1.03846e-08
5.58663e-07
0.0501549
0.135301
0.495796
0.206916
0.0470533
2.66933e-06
0.0806708
0.982816
0.982811
0.982816
0.966722
0.982811
0.976719
0.982792
5.59109e-13
5.09683e-11
1.16803e-12
4.96927e-13
4.97333e-14
1.25162e-09
2.87729e-10
3.31156e-16
2.88449e-12
1.06433e-16
1.7747e-15
1.06433e-16
3.59718e-18
5.13638e-15
1.11462e-19
4.05333e-16
1.11546e-18
5.2709e-22
1.11462e-19
2.02087e-18
3.8164e-19
8.68826e-24
1.61942e-25
1.0327e-26
1.53725e-26
1.31545e-26
8.80051e-27
1.0724e-25
1.01225e-26
1.07633e-25
4.38949e-31
4.17755e-34
6.83221e-35
9.41509e-37
6.83221e-35
5.70445e-32
6.02377e-31
1.29157e-39
1.4065e-37
9.41508e-39
4.66587e-40
2.48047e-40
8.14037e-40
1.78487e-39
1.32862e-38
2.29233e-35
1.16485e-36
1.14485e-38
1.32862e-38
9.38847e-35
6.95697e-40
1.8766e-46
3.07617e-46
2.94725e-44
2.05771e-46
1.46541e-46
1.52416e-46
2.18647e-46
4.05777e-43
3.9279e-43
2.98028e-43
4.55109e-43
2.78767e-43
1.57387e-43
2.50379e-43
1.4361e-46
2.05574e-46
1.46541e-46
1.13767e-42
4.55109e-43
4.91543e-41
7.94302e-35
1.04295e-34
1.0185e-34
4.3905e-34
3.78751e-35
1.07657e-33
1.03866e-33
1.85165e-38
9.74751e-39
1.52378e-38
3.53248e-38
3.79816e-36
5.42432e-39
2.22392e-38
1.8987e-40
3.28178e-35
9.62439e-41
1.03119e-32
1.66192e-32
1.46612e-33
1.08631e-32
1.08631e-32
8.70296e-33
2.55016e-32
2.6414e-32
2.49844e-33
3.32248e-31
2.91815e-32
2.78866e-30
1.24712e-29
3.02589e-31
2.00721e-30
2.26983e-30
2.77059e-30
1.00809e-31
5.72526e-28
4.94401e-28
1.14375e-26
5.72526e-28
5.89086e-28
7.73696e-25
5.50735e-26
3.08533e-18
4.37454e-19
1.04883e-18
3.74073e-18
1.27375e-16
3.96259e-15
6.96706e-16
9.03198e-19
3.53806e-15
1.78882e-12
1.69923e-12
4.8689e-13
3.26707e-13
4.24462e-13
3.26204e-13
1.26299e-12
8.5235e-10
8.5235e-10
5.99898e-10
2.19587e-10
4.20817e-10
7.43509e-10
8.83046e-10
4.86714e-11
8.28278e-11
3.00631e-12
4.73326e-10
1.29115e-10
5.32299e-10
7.71789e-10
1.46839e-06
1.80868e-06
1.80941e-06
1.47001e-06
1.7733e-06
1.80998e-06
1.80774e-06
1.77183e-06
4.71331e-07
1.58281e-06
1.80883e-06
1.80926e-06
9.06093e-07
9.40202e-07
8.02231e-07
8.87973e-07
9.05237e-07
7.17596e-07
1.73231e-06
3.66872e-07
8.13238e-07
1.18453e-06
2.83309e-07
1.15445e-06
2.26993e-07
2.99956e-07
1.73435e-05
4.9949e-07
3.73971e-08
5.75932e-08
1.51434e-07
2.51321e-08
5.1422e-08
1.18575e-12
5.45495e-12
1.3217e-11
5.86416e-14
2.22536e-13
5.85829e-14
5.97261e-14
4.3923e-14
4.37051e-14
1.38243e-12
8.05628e-12
6.64173e-13
2.30741e-12
1.32466e-12
7.68515e-13
4.75733e-13
5.38303e-15
1.47399e-15
1.45037e-15
2.19615e-15
1.37816e-15
1.40035e-15
1.47399e-15
3.72307e-16
1.37058e-15
1.2808e-14
4.31451e-16
2.2467e-15
9.89995e-13
2.30638e-15
3.2973e-16
7.01752e-17
1.06633e-16
7.58357e-17
1.95545e-16
6.04489e-16
7.01752e-17
2.14961e-11
2.13236e-11
2.14409e-11
2.32743e-11
2.91533e-11
3.73659e-11
2.55288e-11
2.38686e-06
2.66783e-06
9.64109e-07
4.51419e-05
1.05802e-05
2.55083e-07
2.46349e-07
8.3698e-05
1.34863e-06
4.6165e-06
2.39534e-05
1.05688e-05
7.40013e-05
1.06618e-05
1.62193e-05
1.60996e-05
5.56102e-05
2.04287e-05
0.000117041
8.11872e-05
8.11872e-05
0.000503457
9.96811e-05
0.000101633
8.12051e-05
0.000718671
0.00124878
0.000373383
0.000382338
0.0012617
0.000443942
0.0012617
0.00073817
0.000685274
0.000376012
0.000750061
0.000376012
0.0011396
0.00090753
0.000393046
0.00167758
0.00235952
0.00167758
0.00428619
0.00167758
0.00420998
0.00555307
0.0062815
0.00159482
0.00159565
0.00562439
0.00160534
0.00167758
0.00458082
0.00674661
0.0067416
0.00167936
0.0019397
0.0931334
0.00463031
0.00390004
0.0029013
0.00282209
0.00419334
0.00334701
0.0244232
0.00282209
0.00264144
0.0430221
0.00446427
0.00687654
0.00687681
0.99496
0.962413
0.943837
0.853126
0.672854
0.92794
0.94975
1
1
1
1
1
1
1
1
1
1
0.999999
1
0.999995
0.99977
0.999966
1
0.999624
0.999807
0.996059
1
1
1
1
1
1
1
1
1
1
0.999999
1
1
1
1
1
1
0.999999
0.999775
1
1
1
1
1
1
1
1
1
1
0.993545
0.967339
1
1
1
0.99924
0.999385
0.97798
0.906656
0.910645
0.949402
0.961515
0.95628
0.996006
0.945134
0.706153
0.971661
0.999985
0.971419
0.807351
0.938994
0.316499
0.334499
0.118192
0.647244
0.527772
0.64863
0.104652
0.00902681
0.0042689
0.00419746
0.0208278
0.00465241
0.00560893
0.0146872
0.0507439
0.0248753
0.0509184
0.118108
0.0286767
0.0725469
0.461086
0.0013422
0.00180764
0.00183958
0.0195565
0.00261644
0.00700026
0.00340813
0.00781849
0.000960613
0.000656712
0.000179864
0.00229651
0.000280162
0.000717662
0.000182958
0.000186734
0.000181264
0.000206477
0.000120667
0.00113916
0.000120784
7.44299e-05
0.00149329
0.00025597
0.000587548
2.27783e-10
2.3271e-10
1.74466e-10
2.16671e-08
2.77106e-11
1.01706e-09
1.19582e-08
7.26248e-08
4.92152e-08
7.4144e-08
1.45119e-07
2.94598e-08
1.01992e-07
1.94904e-07
8.47788e-08
7.54278e-07
8.47788e-08
2.07486e-07
1.68373e-07
3.45828e-18
1.36401e-15
1.27426e-17
2.51139e-19
4.24145e-18
1.00789e-17
1.59039e-18
5.37784e-23
2.12055e-24
8.99988e-21
5.99268e-26
2.12055e-24
1.02759e-20
6.69857e-22
2.86624e-36
1.71345e-32
6.59403e-34
1.70099e-34
2.08989e-36
7.42002e-34
6.50711e-34
3.27799e-43
1.27945e-41
9.12728e-42
3.02329e-43
3.27792e-43
3.02325e-43
3.27798e-43
6.79136e-39
1.72874e-32
5.59027e-34
5.99787e-38
1.06514e-39
2.08838e-37
1.23825e-39
4.82613e-44
4.82613e-44
1.20399e-36
4.82613e-44
4.79429e-44
-1.92704e-39
5.33004e-44
9.14505e-38
5.28336e-44
5.32813e-44
5.83012e-44
1.53725e-32
2.55715e-37
3.97455e-37
3.24785e-37
3.59311e-37
1.94577e-36
1.94577e-36
3.5891e-37
3.95758e-36
5.61157e-37
5.07891e-40
6.53263e-40
2.32961e-40
1.31369e-32
1.60275e-30
3.23302e-29
1.47304e-30
4.50585e-30
4.9194e-31
5.53016e-33
3.90427e-31
3.21907e-31
4.12365e-31
6.355e-31
6.355e-31
3.73896e-31
3.65637e-31
8.83277e-26
5.9184e-26
9.15449e-26
8.87628e-26
2.26234e-25
2.14151e-25
2.93569e-25
5.37759e-28
3.83013e-28
6.10272e-28
3.08802e-21
1.37218e-21
6.92693e-21
7.61224e-22
9.3059e-22
3.14823e-21
7.43807e-22
1.53789e-24
1.40926e-24
8.27092e-23
8.28828e-24
1.23687e-24
2.84562e-24
7.72054e-19
2.9955e-19
5.22088e-19
1.38266e-20
1.38266e-20
1.38266e-20
7.39466e-16
7.24383e-16
7.39466e-16
7.39466e-16
8.41484e-16
7.75767e-15
2.71942e-15
1.50674e-14
3.37185e-14
1.43692e-14
3.21925e-14
7.96154e-14
7.48351e-14
1.13167e-14
2.35741e-11
3.51976e-10
6.69919e-12
4.95705e-12
2.71031e-12
6.2304e-13
4.69947e-11
8.59532e-12
4.8114e-12
2.85254e-09
4.20383e-09
5.17762e-09
2.27045e-09
3.2584e-10
2.70709e-10
3.22463e-09
1.57575e-06
1.57574e-06
1.57574e-06
1.5487e-06
1.57566e-06
1.57574e-06
1.57554e-06
1.01499e-06
3.48407e-07
6.16119e-07
3.47847e-07
1.04787e-06
1.09062e-06
2.64594e-07
5.42465e-08
1.30401e-08
5.07012e-07
7.30492e-07
1.11455e-06
2.77663e-07
2.7203e-07
2.75724e-07
6.79633e-07
2.89469e-07
2.75277e-07
2.71907e-07
2.70509e-07
2.7203e-07
0.000617446
0.000337635
0.000617122
0.000672126
0.000402949
0.000253448
0.000397112
0.000293204
0.000244483
5.5201e-20
8.69469e-21
4.07378e-20
9.3418e-20
1.63748e-19
1.04097e-20
1.21977e-20
1.75065e-21
2.8512e-19
2.48823e-21
2.64812e-21
2.64812e-21
1.08063e-19
1.22008e-18
7.9357e-19
3.68681e-22
8.48142e-21
2.72305e-20
3.59836e-22
2.92585e-21
3.45631e-25
3.60687e-22
3.85471e-22
1.96275e-21
7.15037e-22
1.06514e-20
2.15174e-22
1.38524e-22
1.73564e-21
2.42576e-22
5.78419e-18
4.47731e-18
1.10035e-17
4.27509e-18
4.43144e-18
4.29977e-18
7.11996e-18
6.00415e-14
1.02081e-13
6.70346e-13
5.88282e-14
1.08676e-13
1.22151e-13
3.09253e-13
1.23709e-13
1.34811e-13
3.09269e-14
4.19712e-14
4.70478e-14
4.92093e-14
7.32568e-13
6.39493e-14
6.24889e-14
2.44205e-09
2.62816e-09
2.62816e-09
8.52535e-10
2.02129e-09
1.20939e-07
5.1801e-06
6.93924e-10
2.57445e-09
7.02892e-10
1.50121e-05
0.000304725
9.91305e-05
0.000562638
0.00126168
0.00124507
0.00220044
0.00239252
0.00238548
0.000866843
0.00153849
0.00844092
0.00279499
1
1
0.999961
0.999999
0.999996
1
0.999996
0.999919
1
1
0.999999
0.999999
0.999999
1
1
1
1
1
1
1
1
1
1
1
1
1
1
1
1
1
1
1
1
1
1
0.999994
0.993763
0.993787
0.975519
0.978624
0.976662
0.995803
0.991073
0.98003
0.997742
0.989175
0.997309
0.999844
0.997742
0.997512
0.720671
0.811628
0.671496
0.988705
0.993284
0.964433
0.993328
0.959447
0.953397
0.919148
0.986666
0.965125
0.958946
0.965052
0.165292
0.00368348
0.568021
0.0382049
0.790108
0.0444946
0.101659
0.742966
0.849304
0.857187
0.585692
0.85716
0.856561
0.767309
0.000132106
6.44144e-05
6.60438e-05
0.0121161
0.000399115
0.000388748
6.60438e-05
6.11685e-05
6.11682e-05
6.11682e-05
6.11682e-05
6.11845e-05
0.000837655
6.11716e-05
5.25856e-05
0.000213013
1.24997e-05
6.61729e-06
3.24998e-05
0.000353096
0.000939064
2.65326e-17
4.09806e-18
6.74908e-16
6.29485e-18
5.02408e-18
3.06381e-18
5.07063e-18
5.97309e-23
3.14566e-21
7.38237e-22
1.10032e-23
1.27413e-23
7.52635e-22
6.32826e-23
3.49286e-27
2.06673e-27
1.6479e-29
3.08873e-31
1.66147e-29
1.66432e-29
4.936e-29
3.24314e-33
8.38151e-36
1.62644e-33
6.91724e-36
8.38151e-36
6.48323e-32
8.38151e-36
6.9626e-37
2.85252e-39
6.81854e-36
3.82547e-40
9.39419e-40
2.56024e-36
3.66297e-35
9.48687e-32
5.06994e-36
1.19911e-31
1.81486e-31
3.30256e-37
-6.38678e-37
6.79226e-38
6.79473e-38
-1.33021e-33
2.84401e-43
1.90605e-40
6.36242e-42
1.74211e-43
6.45958e-44
3.81847e-43
5.09003e-43
7.63661e-42
3.17284e-40
3.95404e-42
6.54902e-42
3.90732e-41
1.36525e-41
2.22962e-43
1.57843e-46
7.3381e-46
7.33825e-46
-3.34113e-42
1.11425e-43
1.90445e-41
1.00614e-38
6.75857e-43
5.4621e-43
6.75857e-43
3.57889e-42
8.642e-39
5.4621e-43
3.57889e-42
-9.88601e-46
8.65976e-46
-3.24064e-45
2.01609e-41
5.4621e-43
2.2801e-39
1.51997e-43
2.32912e-40
3.02329e-43
2.41715e-30
3.69006e-30
4.05213e-30
1.53095e-30
1.24889e-31
3.71172e-30
1.09586e-30
1.07246e-25
2.61297e-27
2.46669e-26
2.74319e-25
3.9986e-24
9.29657e-29
9.65405e-29
1.43944e-28
3.67669e-29
6.7176e-27
2.17738e-29
6.03112e-31
2.59446e-24
1.58797e-23
3.70903e-25
4.83226e-23
4.603e-23
4.93706e-23
2.59446e-24
3.21754e-23
5.95492e-23
3.24287e-23
6.4936e-23
8.00617e-23
2.23333e-22
4.20913e-23
1.91632e-15
1.39642e-19
6.57671e-16
5.68266e-15
1.06327e-14
3.25959e-18
3.39999e-18
7.99146e-18
1.41984e-17
2.42815e-17
1.48323e-17
1.13079e-16
1.40933e-14
7.48861e-15
1.74258e-14
3.83615e-14
2.08877e-14
1.40933e-14
3.20541e-13
1.83061e-12
1.3268e-12
6.22773e-13
3.53785e-12
2.56374e-12
6.22773e-13
8.55703e-13
7.11875e-16
3.47387e-14
6.03397e-16
1.97489e-14
3.0053e-14
9.34027e-14
3.34926e-13
1.13328e-13
6.22424e-13
3.45931e-12
1.88949e-14
1.53332e-14
1.9669e-13
1.41829e-12
1.43085e-12
1.43162e-12
5.92992e-15
6.27111e-15
1.07709e-12
9.33152e-15
5.49641e-15
5.49593e-15
3.57972e-13
5.49593e-15
5.49593e-15
7.40442e-13
5.49593e-15
6.60949e-15
8.66362e-15
6.00521e-15
5.06439e-10
7.46462e-13
3.04341e-10
8.04114e-10
9.97611e-13
2.81029e-10
8.17586e-12
5.57275e-15
5.64957e-15
4.90796e-12
4.87321e-09
2.51021e-09
2.8247e-10
5.00366e-09
9.08807e-10
1.45411e-09
9.08807e-10
1.71017e-09
7.87926e-10
2.5511e-08
2.55695e-08
3.98964e-08
5.33831e-08
1.63942e-08
2.02657e-09
1.41913e-08
1.23307e-08
2.55953e-08
9.69635e-07
1.73443e-05
5.93962e-05
1.04007e-06
9.54257e-07
3.20416e-05
5.92957e-05
3.65234e-05
3.69195e-05
3.68465e-05
6.15339e-05
6.14715e-05
3.83045e-05
3.68775e-05
5.0468e-06
3.97752e-08
3.57426e-07
3.7917e-08
5.01208e-07
1.55885e-05
2.51593e-06
3.05456e-05
7.84162e-10
5.89593e-06
7.11728e-10
1.84569e-07
1.26392e-09
3.4034e-08
7.45898e-07
1.65695e-09
7.94882e-05
0.000585959
8.85699e-05
4.99872e-05
7.38075e-05
0.000160508
4.2291e-06
1.17206e-08
1.15801e-08
1.04125e-08
1.14726e-08
1.16225e-08
1.40178e-08
1.02655e-08
8.15793e-18
1.49392e-17
6.58017e-20
4.46385e-20
6.46049e-18
6.58017e-20
2.02097e-19
2.51997e-19
7.83992e-18
7.91603e-26
1.02732e-20
4.46309e-20
7.91603e-26
2.21725e-27
1.34057e-19
8.02009e-21
9.15529e-21
3.86775e-20
1.42916e-23
3.68757e-22
1.53203e-22
1.94988e-24
3.51358e-22
2.57585e-24
1.42916e-23
4.77055e-32
4.60875e-32
1.45376e-31
3.63437e-32
3.68118e-32
4.3088e-32
3.85913e-32
1.70901e-30
6.46222e-31
6.4292e-31
1.22737e-30
6.51483e-31
6.44362e-31
2.15525e-30
3.40487e-25
1.32206e-25
6.4051e-25
3.00424e-26
1.22333e-25
1.23611e-25
4.34257e-26
2.70516e-27
2.66118e-26
3.72827e-28
6.34132e-27
8.18832e-27
3.32889e-28
2.73903e-28
1.19242e-25
4.4293e-25
1.19242e-25
1.5178e-23
2.15808e-25
1.19242e-25
8.85459e-24
9.96935e-21
9.96937e-21
9.92201e-21
1.89424e-20
5.93056e-20
3.03537e-21
5.13156e-19
9.24419e-23
1.14152e-24
4.70131e-24
8.76236e-25
8.87487e-25
1.16669e-24
8.71659e-25
2.80981e-19
1.0003e-20
9.22746e-19
2.7151e-21
3.94412e-17
2.53643e-20
9.98039e-15
7.67096e-16
4.43144e-18
3.33373e-15
3.6535e-14
1.66898e-15
3.35875e-16
3.40836e-16
3.99491e-15
5.55621e-17
1.67838e-10
1.05545e-11
6.38705e-14
0.0129326
0.0099778
0.241309
7.77704e-05
0.00683099
0.0252956
0.0291077
0.999999
0.999836
0.999964
0.997469
0.999245
0.999847
0.999758
1
1
1
1
1
1
1
1
1
1
1
1
1
0.353338
0.169919
0.252223
0.158505
0.011086
0.0111993
0.0526485
0.968509
0.989846
0.985907
0.460506
0.990187
0.993124
0.945899
0.000340211
0.000165388
3.87249e-05
0.000340211
0.000340185
2.13016e-05
4.93199e-05
0.27188
0.232498
0.271532
0.797934
0.029611
3.11965e-05
0.0843784
0.0073689
0.18173
6.38652e-05
0.00161048
6.38652e-05
0.342668
0.0724527
0.758583
0.203041
0.000127966
0.000138149
0.000170691
0.000126662
0.000137215
0.000337469
0.000259955
0.000260507
0.000124739
1.04029e-05
3.08288e-06
1.65961e-05
3.0705e-05
3.06887e-06
1.4048e-05
1.57696e-05
1.30301e-05
2.56353e-05
8.71124e-07
1.8747e-05
1.21726e-07
2.89441e-07
1.91226e-06
1.41519e-08
7.5296e-08
4.06995e-28
4.55515e-30
4.0749e-32
1.77776e-29
6.19321e-29
7.97903e-33
9.81952e-32
7.24299e-33
1.13313e-33
1.05252e-33
1.39268e-32
4.61168e-32
8.15864e-34
9.66868e-34
7.55571e-39
5.0397e-38
8.19809e-39
5.44116e-38
5.65128e-37
7.27468e-38
1.37796e-39
8.9161e-42
8.1766e-42
2.68279e-41
8.1766e-42
3.33069e-41
2.31775e-38
7.14037e-40
1.25885e-40
1.25871e-40
1.25871e-40
1.01204e-37
8.29732e-40
1.35176e-41
2.1683e-39
8.1766e-42
1.16667e-38
1.8997e-39
8.29732e-40
1.33062e-40
9.03063e-39
3.00729e-35
1.34715e-38
6.19794e-40
2.5313e-39
1.33714e-38
1.23915e-39
5.39328e-40
3.85607e-43
5.78186e-44
1.62039e-43
2.34813e-37
6.76709e-32
4.94606e-32
2.19253e-37
3.04815e-34
1.68068e-33
6.42197e-33
1.13162e-33
3.26689e-34
1.92583e-28
3.33606e-35
3.25669e-34
7.06069e-28
7.85505e-27
2.89233e-28
3.30005e-28
2.37143e-28
4.08818e-28
2.90104e-28
2.59353e-24
1.88161e-22
3.36592e-25
2.93989e-21
3.14889e-22
1.49771e-25
2.64648e-25
3.17558e-22
6.53751e-22
3.08463e-24
3.08463e-24
1.78467e-26
5.15784e-23
3.08463e-24
3.0777e-11
2.74238e-11
4.34105e-11
1.06555e-10
3.01306e-11
2.9048e-10
9.9553e-11
7.41817e-08
4.61787e-08
3.39535e-09
2.90193e-07
4.60698e-08
1.49053e-07
8.20686e-07
7.43105e-13
8.71079e-10
8.5905e-10
2.86255e-10
2.50846e-09
4.99875e-10
2.57838e-09
7.82389e-10
5.0302e-10
2.3653e-09
2.84525e-10
3.92038e-09
4.99124e-09
4.64726e-14
4.82496e-14
5.67602e-13
1.85134e-08
2.65691e-09
2.54764e-13
1.63031e-09
2.12341e-08
2.10483e-08
7.45195e-09
1.36576e-08
4.74279e-247
2.18961e-07
1.06834e-11
8.43798e-08
0
-1.85234e-28
9.9312e-10
1.06671e-11
2.55636e-09
2.10392e-09
4.81261e-08
2.19207e-10
7.92681e-11
9.38636e-11
2.03987e-08
0.122664
0.699852
0.999977
0.999977
0.999979
0.987086
0.962185
0.000114109
0.000340435
4.09707e-05
0.000389812
0.00122725
4.10928e-05
0.113559
0.00162043
0.0145752
5.00834e-05
9.05906e-05
8.57907e-05
0.165973
0.000127281
9.34072e-13
2.44929e-10
8.13308e-15
5.24842e-15
1.09989e-08
9.34073e-13
5.84042e-15
0.00014984
8.26145e-06
0.000405432
2.94121e-05
8.26145e-06
0.000310872
0.00113436
1.64184e-07
2.13387e-12
1.35652e-07
7.9284e-08
2.14302e-12
7.91266e-09
5.00546e-08
1.22321e-12
1.2247e-12
4.11752e-12
5.24428e-12
1.53702e-13
1.02572e-12
2.81051e-12
3.59443e-12
7.3256e-17
2.85213e-11
2.15443e-15
3.7206e-12
1.09398e-12
1.2368e-12
2.15443e-15
2.15443e-15
2.86114e-15
7.20911e-16
8.30354e-15
1.08586e-15
7.18345e-16
4.29849e-15
1.12142e-18
2.21933e-21
2.71408e-20
4.01273e-20
4.81071e-20
5.64993e-20
9.35131e-20
2.58861e-19
3.86366e-24
1.27743e-22
7.51066e-24
9.02991e-29
1.25059e-24
6.36511e-27
3.16389e-28
1.43101e-36
6.77073e-36
1.33936e-35
7.29428e-36
3.1807e-35
2.20394e-36
6.74256e-36
1.71534e-36
1.59118e-36
1.73613e-36
1.99276e-35
1.53167e-36
1.52989e-36
4.61895e-36
2.23365e-30
5.38458e-29
1.19917e-34
1.79636e-36
2.02807e-32
2.36248e-31
2.68305e-31
2.64629e-34
4.64636e-36
3.22493e-33
1.79549e-36
5.8446e-36
1.79462e-36
1.79462e-36
1.79462e-36
4.45725e-34
9.47817e-34
1.4832e-33
1.2324e-33
1.0766e-33
1.84414e-33
5.18473e-30
1.73337e-32
2.31961e-33
9.45831e-34
9.45998e-34
5.84785e-29
4.27932e-29
1.27238e-28
2.57383e-29
2.57817e-29
2.58125e-29
2.56139e-29
2.10454e-22
4.16582e-22
1.89833e-22
8.98584e-22
2.4171e-21
9.75486e-22
5.95006e-22
3.49916e-29
2.34089e-25
1.67847e-28
1.59365e-23
2.25629e-21
3.22333e-22
6.4485e-21
2.49769e-21
9.78719e-21
3.34399e-21
2.7293e-21
2.39667e-21
2.83581e-21
0.224766
0.918435
0.0666396
0.0277473
0.0283347
0.19663
0.030731
0.358761
0.354892
0.394948
0.877869
0.964625
0.685056
0.672918
0.999993
0.995888
0.998791
0.9985
0.998549
0.999348
0.99774
0.976616
0.993617
0.993699
0.973159
0.37696
0.947523
0.995942
0.966687
0.966615
0.966615
0.966687
0.835232
0.941355
0.527894
0.996523
0.996175
0.996749
0.953272
0.996676
0.975891
1.13754e-25
9.69187e-27
4.98477e-28
1.45907e-26
1.22703e-27
4.07485e-28
2.84212e-28
2.02398e-28
1.88183e-29
6.6249e-29
2.20049e-28
1.69691e-28
2.17754e-27
1.52208e-28
7.66653e-33
3.58123e-34
8.46046e-30
3.39382e-36
3.58123e-34
7.34724e-29
7.99658e-30
9.76497e-37
9.76497e-37
9.76497e-37
1.05652e-36
1.05652e-36
1.44467e-36
9.76497e-37
6.77024e-39
6.45812e-39
6.76768e-39
3.06295e-38
3.07558e-38
6.43483e-39
1.34336e-38
6.45845e-39
3.99602e-39
9.49896e-36
2.47406e-33
2.80038e-33
3.6686e-32
1.28346e-33
1.96064e-33
5.52198e-32
3.6826e-31
8.53192e-32
5.79099e-32
7.54598e-31
6.71474e-32
3.77363e-32
1.28909e-30
7.24429e-30
1.63515e-30
1.63515e-30
1.50072e-30
3.60888e-30
1.00193e-30
2.31327e-30
1.4504e-30
4.21755e-27
5.34646e-27
5.87551e-27
3.76082e-27
1.8975e-27
7.67146e-27
6.58865e-27
3.68513e-07
9.76825e-08
8.93412e-08
2.0448e-07
1.04028e-07
2.87141e-07
6.07536e-07
3.13873e-07
3.16268e-07
3.08483e-07
3.22668e-07
3.08365e-07
3.08259e-07
5.20209e-07
2.71063e-07
2.70224e-07
2.71063e-07
2.70546e-07
2.70224e-07
2.55519e-08
2.09291e-06
1.44564e-06
5.02277e-07
5.61984e-07
5.0396e-07
9.92258e-07
0.565113
0.566217
0.997302
0.751922
0.570156
0.0618032
0.841631
6.90814e-05
4.7613e-05
0.000815169
0.000436921
0.000157636
4.72544e-05
0.000195308
0.000283147
0.000174841
0.000190818
0.000399891
0.000437489
0.000248514
0.00043551
1.8912e-11
6.25573e-11
7.91192e-21
6.37794e-10
2.783e-14
6.41594e-10
1.25888e-10
1.925e-10
1.26252e-10
1.72834e-10
1.12089e-10
0
0
1.71674e-07
1.9349e-07
2.97898e-06
4.49105e-06
1.21509e-05
4.95588e-06
1.35554e-10
3.2315e-10
2.69626e-10
3.64107e-10
3.64128e-10
4.31649e-10
1.35554e-10
2.82412e-13
6.49167e-13
2.24609e-13
1.69984e-13
1.55858e-13
6.70765e-14
1.29232e-13
1.27059e-25
9.96262e-25
1.27059e-25
1.29498e-27
6.04801e-25
2.27825e-25
4.53668e-25
1.55643e-28
2.66642e-29
2.66641e-29
3.45244e-30
1.39061e-28
4.19513e-29
1.61491e-28
2.9637e-32
7.00918e-33
2.64834e-30
4.57084e-33
9.61598e-32
7.00918e-33
7.34986e-33
7.25064e-37
6.42902e-36
1.24806e-35
3.58032e-40
4.90345e-36
1.0912e-36
7.96399e-38
1.97787e-36
2.24201e-37
1.54286e-45
1.39765e-45
4.29404e-45
4.82633e-45
4.59109e-45
2.46967e-44
8.32073e-45
3.32501e-41
6.34161e-39
1.44022e-39
1.68722e-40
3.09128e-41
1.77437e-39
1.19313e-40
2.15032e-39
2.45635e-38
5.83923e-36
1.81572e-40
1.09267e-40
3.96887e-40
6.54309e-41
5.62629e-40
6.56269e-41
7.15357e-41
9.73841e-35
1.40555e-35
2.85018e-35
2.49817e-38
2.49817e-38
1.76789e-36
7.00998e-35
1.57685e-36
9.20283e-34
1.41782e-33
2.32235e-34
2.12497e-36
2.12497e-36
2.26288e-35
2.41464e-33
2.1944e-36
9.50898e-35
1.8198e-36
4.27017e-34
4.82093e-31
4.78223e-31
1.48305e-30
1.26479e-29
2.73657e-30
5.77766e-31
1.28292e-30
8.06977e-20
1.19207e-18
4.64022e-20
9.06772e-22
6.70347e-21
6.85529e-20
6.70035e-21
0.00260873
0.000186326
0.000411298
0.000184381
0.000186317
0.0247539
0.00228045
0.00168266
0.00168266
0.00169751
0.00185541
0.00311103
0.00773535
0.0102922
0.00708545
0.135062
0.00646551
0.0165778
0.00430574
0.000917101
0.016767
0.084912
0.00533959
0.00081322
0.213223
0.346942
0.000728185
0.000728185
0.000688427
0.795754
0.326201
0.991945
0.992023
0.944828
0.985312
0.957594
0.991947
0.992056
0.945962
0.690722
0.945445
0.606021
0.0941095
0.582438
0.901361
0.966687
0.903795
0.656746
0.978535
0.98034
0.98034
0.98034
0.98034
0.980142
0.961818
0.980219
0.833561
0.980219
0.515312
0.980213
0.909509
0.972811
0.970013
0.972627
0.977724
0.9775
0.924568
0.766656
0.978708
0.979484
0.906256
3.05672e-33
3.05672e-33
3.05672e-33
3.05672e-33
3.70122e-33
3.12303e-33
4.17354e-33
3.12303e-33
9.11723e-33
4.82703e-31
1.376e-26
3.92942e-27
2.07395e-26
1.26992e-25
2.6747e-25
2.79968e-26
6.13081e-25
1.30694e-15
5.81599e-15
2.83938e-15
3.27905e-15
5.70984e-15
2.99646e-15
2.0968e-15
3.40442e-19
3.26801e-19
3.40442e-19
3.47769e-19
3.18223e-19
1.50224e-19
2.53206e-19
5.38126e-09
5.38126e-09
5.38126e-09
5.38126e-09
5.38126e-09
5.81315e-09
2.29352e-08
6.21599e-07
7.53819e-08
9.4454e-07
2.9094e-07
2.71875e-07
1.30255e-05
1.14592e-06
7.15268e-06
1.99849e-06
2.07591e-05
1.99849e-06
2.0014e-06
2.17101e-05
1.19456e-05
8.79231e-06
9.40695e-05
2.34051e-05
0.000175827
0.00138749
2.89243e-05
2.89243e-05
9.71355e-07
4.00288e-05
6.71982e-05
6.61243e-06
6.67228e-06
5.33643e-06
9.54257e-07
4.95302e-06
3.8883e-06
1.35565e-05
2.29208e-06
1.9713e-06
4.814e-07
1.98157e-06
6.76468e-07
3.93564e-07
0.000148426
0.000371644
0.000184766
0.000438242
0.000281273
0.000367128
0.00019875
2.53896e-10
2.44708e-10
2.6903e-10
2.37915e-10
1.47337e-09
2.53896e-10
2.42538e-10
1.4273e-10
1.39888e-10
1.35554e-10
3.38756e-14
3.38757e-14
3.3681e-14
2.31224e-14
2.85976e-14
5.56824e-15
2.31734e-14
2.2908e-14
2.62723e-14
2.2908e-14
9.07215e-18
6.60428e-18
6.43652e-18
6.80825e-17
6.3758e-18
1.5722e-17
2.92344e-24
2.7815e-22
6.68321e-22
3.92971e-22
3.07299e-23
3.23652e-22
2.92344e-24
7.06114e-34
4.59577e-35
1.20012e-33
1.00397e-33
4.40731e-35
3.44956e-34
9.62653e-34
5.43715e-34
1.2999e-33
1.02125e-46
3.12784e-46
6.57259e-47
1.75965e-47
1.67097e-46
9.87388e-47
2.07673e-46
1.3059e-47
5.63857e-51
1.15624e-49
2.57867e-52
5.63857e-51
3.49944e-52
4.03871e-50
1.24933e-53
8.80693e-54
2.97039e-53
5.57295e-54
5.72425e-54
5.59221e-54
5.54797e-54
1.78308e-49
3.5505e-49
2.73833e-49
4.99638e-49
1.86661e-49
5.79599e-47
2.0924e-45
1.78463e-49
1.00627e-48
1.7994e-49
5.1378e-44
9.92066e-42
7.55968e-44
1.18232e-44
1.13254e-44
1.55803e-44
2.92428e-38
9.69782e-41
5.94873e-37
9.69588e-36
1.62109e-34
1.65509e-35
5.01502e-35
5.79526e-35
1.85041e-35
2.79643e-35
2.60618e-19
4.96896e-20
4.96896e-20
4.96896e-20
5.39945e-18
6.79737e-20
6.79737e-20
1.29973e-17
3.25951e-18
4.48234e-18
1.69089e-18
2.92672e-18
2.95808e-18
1.43122e-18
1.00277e-12
3.75609e-13
9.56877e-14
7.31984e-12
2.38764e-12
1.29917e-12
1.79261e-12
7.32122e-12
7.34438e-12
6.07234e-12
8.80817e-12
7.30902e-12
6.07234e-12
6.07234e-12
2.50983e-07
1.9255e-06
0.000242403
2.66229e-06
1.74641e-06
4.04594e-06
9.34931e-06
3.77463e-07
3.77463e-07
3.81084e-07
6.33211e-07
3.77463e-07
1.68542e-06
8.14484e-06
1.15415e-07
0.000220926
5.16065e-07
2.35583e-07
1.0087e-07
3.79851e-05
3.57817e-05
1.80071e-05
1.80622e-05
1.78163e-05
1.74689e-05
1.78152e-05
0.000338194
0.000338966
0.00295681
0.000535709
0.000372458
0.00221174
0.000258044
0.000307055
0.000308925
0.00102011
0.000459237
0.000347575
0.00102646
0.00106052
0.97782
0.927571
0.978158
0.999001
0.9977
0.998894
0.967272
0.987699
0.999004
0.999008
0.965692
0.965692
0.965692
0.954342
0.85945
0.932323
1
0.999999
0.999999
1
1
1
1
0.99901
0.999013
0.999013
3.1066e-17
2.98177e-17
3.14517e-17
2.25251e-17
5.56258e-16
1.47703e-17
4.99412e-16
5.38215e-25
5.07386e-25
4.74369e-25
6.55221e-25
3.36749e-25
1.62166e-25
1.94822e-25
7.18535e-30
5.6437e-30
3.5768e-30
2.47471e-26
2.85623e-28
1.14703e-29
6.12129e-30
6.57707e-25
5.57861e-22
5.80017e-22
3.38628e-30
3.87394e-29
1.63719e-29
9.03906e-27
2.91826e-23
2.94213e-27
2.94213e-27
2.94213e-27
5.2738e-23
6.74448e-24
2.33992e-21
3.65086e-21
2.85479e-22
8.77403e-22
2.67989e-22
7.9544e-21
2.85479e-22
3.13598e-20
1.54435e-21
0.00029357
0.000243223
0.000585225
0.000343319
0.000338534
0.000627598
0.000168363
0.000214557
0.000220261
0.000214875
0.000214557
0.000225764
0.000217667
0.00048972
1.90401e-16
5.84015e-16
1.4052e-16
7.32306e-17
7.32306e-17
8.22388e-16
1.875e-15
6.68361e-22
3.52936e-24
2.92344e-24
4.14528e-26
4.16277e-26
4.14528e-26
3.80612e-25
7.51448e-25
1.75679e-24
7.16022e-25
3.64661e-26
3.58798e-26
9.08919e-26
1.09423e-25
2.00263e-25
1.18505e-25
3.55901e-26
3.53898e-26
1.28875e-25
3.86953e-22
2.08773e-23
1.52392e-26
1.54358e-30
4.43427e-34
8.24238e-30
2.09317e-34
2.88551e-34
4.05606e-34
2.95546e-31
4.81787e-34
8.24444e-30
2.29388e-33
9.48223e-39
5.58545e-35
2.07657e-34
1.2677e-38
2.09861e-34
1.07541e-38
9.41288e-39
1.37775e-38
9.41068e-39
1.66486e-38
1.87036e-38
1.87036e-38
8.89618e-39
2.73627e-45
1.44529e-45
5.97131e-46
5.97131e-46
2.66144e-45
5.69846e-45
3.5653e-45
1.56583e-53
1.72011e-53
1.2732e-53
2.25375e-53
1.48497e-53
1.27581e-53
7.33532e-56
6.67089e-55
7.33532e-56
7.37358e-56
2.86628e-54
7.33532e-56
7.50815e-56
3.96892e-54
1.70262e-51
7.35437e-54
4.64776e-50
1.99674e-43
3.68685e-41
5.96088e-41
1.99674e-43
1.99674e-43
4.40161e-41
8.0679e-41
1.54966e-44
1.53879e-44
4.64272e-44
8.49412e-44
9.60954e-43
4.05981e-44
1.76663e-44
7.01577e-41
1.33046e-40
7.32684e-41
3.80093e-41
4.58651e-41
8.08181e-41
4.96905e-41
3.54047e-41
3.73114e-41
2.38858e-41
2.1412e-42
1.92318e-42
4.132e-41
6.69349e-42
3.98013e-38
1.48501e-37
1.63984e-37