/*--------------------------------*- C++ -*----------------------------------*\
| =========                 |                                                 |
| \\      /  F ield         | OpenFOAM: The Open Source CFD Toolbox           |
|  \\    /   O peration     | Version:  v2012                                 |
|   \\  /    A nd           | Website:  www.openfoam.com                      |
|    \\/     M anipulation  |                                                 |
\*---------------------------------------------------------------------------*/
FoamFile
{
    version     2.0;
    format      ascii;
    class       surfaceScalarField;
    location    "0.2";
    object      alphaPhi0.water;
}
// * * * * * * * * * * * * * * * * * * * * * * * * * * * * * * * * * * * * * //

dimensions      [0 3 -1 0 0 0 0];
oriented        oriented;


internalField   nonuniform List<scalar> 
13152
(
1.00165e-06
2.02994e-05
-1.66028e-06
-1.96408e-05
1.87257e-05
-1.70954e-05
-6.28686e-07
-3.46794e-06
4.24931e-05
-3.46509e-05
3.54182e-05
-2.42759e-06
2.12089e-05
-7.55006e-05
2.85263e-05
-2.44127e-05
6.04765e-05
-1.61024e-05
-2.95584e-05
-2.84369e-05
7.40977e-05
3.87119e-07
-1.67824e-05
2.9288e-07
-2.99192e-05
7.479e-07
7.8462e-06
5.15797e-06
-2.97865e-05
7.81594e-06
3.23139e-07
-5.08267e-06
-1.55383e-05
-2.98439e-05
-8.65108e-06
-1.46314e-05
-5.13628e-06
2.84188e-05
-7.66053e-08
-8.66263e-06
8.81556e-08
-1.41548e-05
-5.53177e-07
5.66597e-06
-3.05669e-05
1.62383e-05
-2.93342e-05
2.98638e-05
2.93759e-05
-5.11431e-07
3.42208e-08
-1.52494e-05
-2.99123e-05
1.02597e-07
-7.49482e-05
3.2841e-07
1.59981e-05
3.02323e-05
-4.0065e-08
7.46492e-05
3.5787e-05
1.26599e-05
2.54063e-05
-7.38533e-05
3.73917e-07
-7.2621e-07
3.61393e-05
1.24052e-05
2.67363e-07
-1.87449e-05
7.36432e-05
7.78709e-05
2.9144e-05
-7.35393e-07
-2.93784e-05
9.69852e-07
-1.6406e-05
-2.68737e-05
7.24237e-05
1.74141e-07
-1.73156e-05
-8.08089e-06
8.00955e-06
2.45476e-07
5.30175e-06
-3.06982e-05
-4.96438e-06
-1.38998e-05
-2.9041e-05
-1.3791e-05
1.36674e-07
2.9154e-05
2.49615e-07
-1.612e-06
1.41602e-08
-4.1495e-06
5.81504e-06
-1.41279e-08
-1.94498e-07
-4.19896e-07
3.59001e-07
-3.57896e-07
1.31236e-06
-1.37187e-06
-2.76013e-07
-6.24536e-07
-2.21476e-06
3.29511e-07
-3.49064e-08
6.41909e-08
-5.46083e-07
5.13307e-07
-5.40063e-07
-1.37825e-06
-1.19971e-06
-1.75921e-63
3.85229e-63
-2.85809e-64
-1.8057e-63
4.66183e-62
-4.48109e-64
-4.93939e-62
-9.20854e-63
-7.16526e-63
2.80627e-64
6.79761e-64
-1.4064e-63
-8.11823e-66
5.27239e-66
-9.21992e-63
-4.68511e-66
-1.57213e-62
-7.62468e-55
-1.80076e-54
-6.04766e-59
2.95329e-54
2.48085e-56
-2.25693e-59
-2.26727e-59
-4.66888e-60
4.35846e-56
9.21177e-60
6.30797e-60
-6.06565e-59
3.74482e-58
4.31759e-56
-3.46916e-60
3.12527e-58
-2.41693e-59
6.29799e-50
7.00282e-50
5.92688e-50
-1.97983e-49
-8.17119e-51
5.62374e-50
1.11098e-50
1.04397e-49
-1.06305e-50
-1.30589e-50
5.10554e-50
1.4437e-50
1.49199e-49
-1.05709e-49
-1.46797e-49
2.91833e-49
-7.24899e-50
-3.66489e-09
-3.8582e-09
-1.73829e-09
9.57194e-09
-1.85739e-09
-1.08354e-08
1.17677e-08
-1.3898e-09
-3.67725e-09
4.47827e-09
-2.55567e-09
-1.20082e-08
-1.11453e-09
3.85274e-09
-4.13341e-09
1.81157e-09
-1.03084e-08
1.90005e-08
6.54063e-09
-9.30647e-09
-2.93334e-09
-1.74735e-08
-1.39101e-08
3.96028e-08
-8.11802e-09
3.97618e-09
1.18488e-08
1.55431e-08
-3.1342e-08
5.4837e-08
-2.59251e-08
-2.36094e-08
6.5315e-08
-1.44831e-08
-6.96662e-14
-1.776e-12
-8.39332e-14
8.77162e-13
-6.29212e-13
6.59111e-14
-9.88438e-13
5.49135e-12
1.47339e-11
2.19388e-11
-2.15529e-13
-1.61771e-11
1.67876e-10
-1.75647e-09
8.87403e-13
-2.05088e-12
1.67665e-10
-8.37645e-07
3.92771e-08
2.80711e-07
5.13333e-07
2.90938e-07
-1.48988e-08
-1.12696e-06
-1.34568e-06
1.66016e-06
-1.49858e-06
-6.32321e-07
1.65816e-06
-6.73627e-07
-1.99752e-06
-4.26148e-08
-1.97668e-06
-3.95883e-07
1.35516e-07
-6.47749e-08
-1.15362e-07
4.46211e-08
-4.06797e-07
-8.04935e-08
6.22806e-07
-1.14437e-07
-3.57135e-07
-6.02493e-08
-4.12491e-07
3.92246e-07
-4.50466e-07
2.74855e-07
-3.77612e-07
-1.49315e-07
-1.18514e-06
8.87007e-08
2.7893e-07
-1.86873e-07
-1.80758e-07
1.47528e-07
-5.71269e-08
-1.7003e-09
2.4345e-07
1.83008e-07
-2.51617e-07
7.61782e-09
6.02733e-07
-6.10901e-07
7.84041e-07
4.41031e-71
9.65267e-19
-1.55563e-20
-1.50933e-18
-6.68709e-71
-3.84473e-71
-6.07649e-71
4.33606e-20
9.21906e-19
-2.02859e-68
-7.49079e-68
-1.11324e-67
-3.11774e-68
-6.17679e-68
-4.29629e-21
4.76568e-20
5.03194e-21
1.84818e-05
-2.4148e-07
-1.82625e-05
-3.37614e-08
-2.35771e-05
-2.76594e-05
6.95208e-05
-6.68987e-07
-2.33645e-05
-2.58993e-05
2.56963e-05
-5.76769e-07
2.2078e-05
-7.13279e-05
-3.6779e-06
1.71477e-06
1.35772e-07
3.58351e-68
1.22978e-122
-5.69202e-69
4.94826e-69
0
-2.43927e-67
-8.07518e-67
0
0
5.38522e-19
1.18252e-20
-5.50347e-19
-2.6319e-22
5.38785e-19
1.21396e-20
1.42274e-22
1.19718e-20
1.76775e-22
1.73494e-22
-9.67016e-22
-1.35121e-22
-4.79129e-24
-2.97332e-23
4.02187e-23
-1.03699e-22
1.00029e-22
5.36527e-22
2.27595e-21
-5.63659e-21
1.90587e-22
-3.18864e-22
1.56043e-22
-2.446e-23
8.63621e-22
-2.80676e-16
1.46078e-16
-4.59742e-16
2.11114e-16
9.61163e-16
-4.02299e-15
-2.68037e-16
-2.24392e-16
5.39503e-16
2.39585e-15
1.96179e-15
-5.59546e-14
3.6898e-16
-1.30762e-17
1.58728e-16
-2.27516e-17
1.08086e-16
1.16321e-13
3.08629e-13
5.441e-14
-5.24255e-13
4.23741e-14
-2.4521e-14
2.71851e-14
1.27395e-14
2.65788e-13
3.80562e-14
-2.13787e-13
-4.18213e-15
-2.39986e-15
3.65376e-14
-1.84892e-13
1.1819e-13
-7.13869e-13
-2.30929e-12
-1.10718e-11
-6.4789e-12
1.31014e-11
3.77492e-14
-2.22281e-11
1.95322e-11
-1.89371e-11
2.55723e-12
-2.94256e-12
-8.73897e-12
3.57208e-12
-5.87314e-12
-1.62012e-11
3.46379e-11
4.25005e-12
-5.40449e-11
2.94368e-11
1.15381e-11
9.66445e-12
-9.15031e-12
3.14422e-11
4.49129e-11
-7.14752e-11
-1.7547e-11
4.64215e-11
-9.20028e-11
-4.38338e-12
1.43263e-10
2.90178e-11
-2.05495e-10
1.20675e-10
-1.15823e-10
-3.11123e-12
1.54349e-10
-1.11018e-10
7.91439e-11
-2.21002e-10
-1.68738e-10
-3.83684e-11
-6.2212e-11
2.60169e-10
-1.65891e-12
-1.8647e-10
1.93948e-11
1.54541e-13
-5.20181e-11
-2.81396e-10
-7.69139e-11
2.99854e-10
-1.34078e-10
-3.33889e-10
-7.34375e-11
4.99003e-11
7.91742e-12
1.09561e-10
-2.78369e-10
2.89038e-11
-7.89038e-11
1.40826e-12
-4.47784e-11
-2.15412e-11
3.89417e-11
2.59832e-11
3.01209e-11
1.25568e-12
-7.75716e-11
-4.19478e-11
6.60918e-11
-1.32295e-11
9.00989e-12
4.27471e-11
8.92823e-12
-2.13154e-11
1.80903e-10
-1.12995e-10
-1.03191e-10
1.50425e-11
2.37401e-10
-3.69873e-11
6.297e-11
-1.38866e-10
-3.67586e-12
-7.58879e-11
3.39566e-11
6.61221e-12
-6.05381e-11
-8.90102e-13
3.88355e-11
7.83397e-11
-1.80052e-10
1.66709e-11
-7.03535e-11
-1.68555e-12
-3.8279e-11
-2.20185e-12
-6.41376e-12
-7.31163e-12
8.44304e-12
-8.07833e-11
-1.67027e-11
1.04403e-10
-7.69748e-11
8.45329e-11
-1.55374e-12
6.01543e-11
-1.77037e-10
1.27674e-10
-7.05049e-11
-6.61889e-11
-8.02067e-11
3.23793e-10
2.64655e-13
8.3504e-12
2.17461e-13
-3.0478e-11
-9.02554e-13
2.90234e-11
2.22629e-12
5.83164e-11
2.50526e-11
-1.01987e-10
5.77643e-11
-3.41252e-13
-1.03209e-10
-2.41876e-11
-6.74893e-11
-1.1966e-11
1.17159e-10
-1.48745e-10
1.50427e-10
6.83699e-17
6.64984e-17
6.20364e-17
-1.63952e-16
1.588e-19
7.13259e-17
4.1861e-18
7.80891e-17
9.68867e-19
-6.42936e-17
-4.11406e-17
1.95797e-16
-6.76772e-17
1.4786e-17
4.07131e-18
8.09076e-18
4.88119e-17
-1.51091e-12
1.49932e-11
8.74925e-12
-1.27543e-11
1.16507e-11
-4.97485e-12
-7.91197e-12
2.66123e-12
2.53059e-11
-1.71337e-11
5.53427e-12
1.86219e-11
1.53836e-11
-3.81643e-11
1.16598e-11
-4.14062e-12
1.69693e-11
4.02615e-11
4.62457e-11
3.81945e-11
-1.26522e-10
1.30561e-11
4.17183e-11
3.22112e-11
5.01237e-11
-7.92542e-11
6.69998e-11
5.42479e-11
8.38196e-11
-1.23073e-10
3.14353e-11
1.03788e-10
1.62435e-10
6.03406e-11
2.49389e-11
-9.11193e-11
-2.02638e-11
-3.03482e-11
-2.40218e-11
9.60623e-11
-2.29645e-11
-8.75851e-12
1.33061e-10
1.26741e-11
-2.37031e-10
1.11116e-10
-9.78006e-11
1.84909e-10
-1.08081e-10
-2.07199e-11
-8.08919e-11
-3.29467e-12
1.02847e-10
-3.63647e-11
-1.8449e-11
2.82238e-11
-8.10704e-11
-3.63008e-11
3.42446e-11
-2.26444e-12
-4.97519e-11
-3.50183e-11
9.71078e-11
5.15533e-11
-1.34962e-10
1.00454e-11
-7.31337e-11
5.31354e-11
5.85385e-11
-7.56553e-11
2.40447e-10
-1.1636e-10
1.14814e-10
1.14834e-10
-1.76798e-10
5.18491e-11
1.99913e-10
-2.38218e-11
-2.28956e-10
-4.38254e-11
1.1543e-12
9.15183e-11
1.54382e-11
-8.31383e-11
6.75191e-11
-1.6848e-10
1.82911e-10
-1.00492e-12
1.30282e-11
-2.79598e-11
2.72789e-11
2.6316e-12
-3.44209e-12
3.5947e-12
6.41649e-12
1.03056e-10
1.19641e-11
2.22757e-11
1.01501e-10
2.05324e-11
-8.79244e-12
3.37216e-11
3.21429e-29
-3.27661e-29
-9.40981e-36
6.34605e-31
1.58283e-29
2.42264e-32
1.58852e-29
-1.27003e-32
-1.24776e-27
1.8563e-35
2.26127e-37
-5.70809e-35
3.6303e-32
3.7828e-32
-7.21602e-34
2.00187e-32
-1.34506e-32
1.23371e-07
-1.26558e-07
-3.66596e-08
3.98472e-08
-1.38555e-07
3.82898e-08
2.23636e-07
-7.52497e-09
-2.57589e-07
8.5885e-08
-8.75048e-08
-3.50398e-08
1.53645e-08
1.0881e-07
-9.66968e-07
-3.09912e-07
1.26936e-06
-5.61908e-08
-1.16837e-06
-1.63987e-07
-1.30561e-07
-3.07682e-07
-9.08291e-08
6.62126e-07
-1.02274e-07
-4.66907e-07
-7.67437e-07
-6.09996e-07
1.28942e-06
2.61567e-07
-3.57016e-07
9.18226e-07
8.76115e-07
-2.40295e-06
1.43944e-06
-6.20661e-07
-1.06463e-06
2.16266e-06
1.33554e-09
2.50897e-08
3.76549e-09
-2.79142e-08
-9.67688e-09
-1.44827e-09
-5.18259e-08
6.76933e-08
3.89579e-09
-8.7357e-09
2.80298e-09
-3.51142e-10
3.25625e-09
1.51402e-09
-7.46347e-09
8.4934e-10
-4.38154e-09
-4.49789e-08
-2.02648e-08
-7.4192e-09
7.69023e-09
-2.01731e-08
-1.10771e-08
2.5862e-07
-1.34886e-06
2.38963e-06
-8.20481e-07
-4.55373e-06
4.03286e-08
6.63834e-08
-3.86433e-08
-8.15468e-08
-3.36664e-08
5.237e-08
1.72511e-08
3.20917e-08
-6.14839e-09
4.27714e-09
5.2437e-10
4.63172e-08
-8.11429e-09
2.87049e-08
-2.80425e-10
2.26642e-08
-3.96487e-08
-8.58047e-20
-1.62769e-19
-7.06599e-20
2.79347e-19
-3.48269e-20
-2.5197e-18
2.48938e-18
-8.98253e-22
-5.14383e-19
3.87452e-19
-1.73574e-18
-1.48786e-18
-2.5658e-19
3.15083e-19
-8.34227e-19
1.56142e-21
-3.25957e-18
1.4054e-06
1.17256e-07
-2.01045e-06
-1.88426e-08
-1.24507e-07
-2.20798e-07
1.5452e-06
-6.15942e-09
2.01967e-10
2.89198e-07
-6.13009e-08
-2.36536e-06
-6.52392e-09
6.6262e-08
5.50951e-09
2.72553e-09
-1.5097e-08
6.36625e-09
2.18569e-10
-4.00709e-09
4.09187e-09
-6.23295e-08
2.53742e-19
-9.45517e-19
4.69936e-19
-2.17856e-19
-2.92626e-18
5.04593e-19
2.43727e-18
5.22964e-19
-4.75197e-18
-7.14254e-19
-6.83617e-19
1.53804e-18
-1.82924e-18
-7.72008e-20
-4.22685e-19
5.79927e-19
-1.42733e-17
2.96911e-08
2.36527e-08
1.07529e-09
-4.96522e-08
1.10748e-09
9.31341e-09
1.2929e-08
-9.45738e-10
2.19635e-08
-3.95962e-09
1.06228e-08
2.42057e-09
2.63352e-09
-2.33564e-09
2.06572e-08
-1.91493e-08
3.21963e-08
5.33939e-09
1.4609e-08
-6.66544e-08
4.41483e-08
-2.37656e-08
2.73773e-08
-1.43357e-09
-5.12444e-08
1.20656e-08
-1.78416e-08
1.97953e-08
-4.2226e-08
4.85401e-08
2.42424e-08
2.75739e-08
-6.66399e-08
9.13362e-09
-2.11519e-08
2.23533e-08
-4.9359e-08
-6.30249e-09
-4.04135e-09
2.33619e-08
-1.23928e-08
-8.93503e-09
4.69254e-09
-6.01171e-09
-2.43782e-07
-9.84469e-11
2.50942e-08
-1.7808e-10
7.52e-09
-2.38949e-08
6.88444e-09
-1.08283e-08
4.72023e-08
-4.75977e-08
1.1106e-08
-1.35366e-08
9.39451e-08
8.96193e-10
-5.25517e-09
-3.74487e-08
-2.82042e-08
2.79e-08
-8.13743e-08
8.16785e-08
-2.24452e-08
9.44893e-08
-1.00248e-07
1.10467e-07
-1.05012e-07
-1.20294e-07
-2.37836e-08
2.38567e-07
-3.65079e-07
1.6341e-07
-5.40095e-07
6.26779e-07
-1.01019e-06
1.43674e-07
1.688e-07
-3.47514e-07
-2.96216e-08
1.30999e-07
4.22959e-08
1.79026e-07
-1.38934e-08
4.16555e-07
2.25916e-07
2.67985e-07
-1.37247e-07
-2.61299e-07
-1.56282e-07
6.50183e-07
-2.51233e-07
-9.06428e-07
4.73095e-08
1.2893e-06
-7.62178e-07
-5.2621e-07
1.04701e-06
-8.11242e-07
-1.00259e-07
8.05104e-07
1.51487e-06
1.69172e-06
-2.78107e-07
-6.31156e-07
8.18016e-08
3.10151e-06
2.31911e-06
-3.39395e-06
1.51565e-06
-1.23873e-08
-3.06144e-08
-7.14828e-09
1.69563e-08
-4.12906e-08
-1.2818e-07
2.70655e-07
-1.30911e-08
-8.64957e-08
-3.97968e-08
-5.22935e-08
7.64156e-08
-2.52901e-07
-7.35799e-08
9.65714e-08
-1.22571e-07
-8.4206e-08
-5.84561e-12
-2.2491e-12
1.58609e-12
2.21248e-12
8.3318e-12
1.8578e-10
-2.91736e-10
4.53601e-13
-4.0263e-11
-9.36628e-10
-4.53283e-12
2.69788e-10
-2.16675e-10
-1.33794e-08
-8.42888e-12
-7.28687e-13
5.30173e-12
-2.60861e-12
-2.22098e-10
6.21236e-13
-2.79328e-12
1.52538e-12
2.12306e-15
2.01533e-15
-3.90899e-15
-2.74519e-16
-1.84383e-14
-6.4963e-16
4.04163e-14
5.63849e-14
-2.75857e-14
-7.29551e-14
1.72012e-14
1.43507e-13
-5.02672e-14
-1.63997e-14
-1.2709e-14
4.53352e-14
-1.45063e-15
-6.0059e-12
-1.32534e-13
7.3855e-13
2.85177e-12
-5.80855e-14
1.2794e-11
-3.52105e-11
-8.17128e-14
-9.56356e-14
-8.69379e-11
1.0771e-11
9.40068e-12
-2.3673e-15
-3.68377e-10
-7.58771e-14
3.55067e-13
5.9663e-12
1.47798e-14
-8.90556e-14
1.15982e-13
-1.79105e-13
1.28046e-12
3.09571e-06
2.35319e-07
-3.38788e-06
-5.39627e-08
-4.25682e-06
-1.06611e-06
7.97698e-06
-7.46692e-06
2.81147e-06
1.28289e-06
8.60614e-06
-1.33314e-05
1.16661e-06
-3.52382e-10
1.00499e-07
-9.64366e-12
1.37041e-06
1.26054e-06
-3.93961e-05
-1.60841e-06
3.97562e-05
-4.09231e-05
3.86866e-05
3.50315e-06
3.72071e-05
-0.000117517
4.26408e-05
-3.89704e-05
-5.32387e-06
-3.80788e-05
0.000120485
-2.97782e-06
3.56455e-06
-4.73496e-06
-2.45274e-16
4.9768e-16
-3.6581e-16
5.85447e-18
6.09317e-16
-5.88097e-14
3.66064e-14
-3.95714e-15
4.96027e-15
1.03869e-15
4.15887e-15
-5.60683e-15
9.34623e-16
5.17111e-18
6.0602e-14
-1.88109e-13
4.4375e-14
5.99977e-18
2.78807e-19
1.39719e-19
-6.33385e-18
5.69894e-20
1.23696e-17
2.96848e-17
9.6231e-22
2.71106e-19
-1.4366e-18
4.73286e-19
1.32066e-17
1.85589e-19
-1.5192e-18
1.80287e-19
6.51976e-22
8.57669e-19
-7.78196e-22
8.27043e-22
5.1905e-24
-7.77382e-23
1.51549e-21
-1.15083e-21
-6.11641e-20
-4.3412e-23
1.89058e-21
-5.7972e-23
6.08331e-23
1.93503e-24
1.47248e-22
-2.94808e-22
3.70814e-22
-1.61277e-21
1.74102e-22
5.74039e-29
1.01154e-29
-1.93679e-29
-1.21917e-27
-9.43079e-30
-1.37309e-31
3.17874e-29
3.1428e-32
-2.19537e-30
8.97378e-31
-5.00854e-30
-1.59188e-29
-2.46899e-31
3.42766e-31
-1.99675e-30
8.17864e-31
3.25937e-33
6.77118e-31
-2.07114e-29
-4.98884e-31
6.39801e-31
-7.27863e-30
1.02811e-35
6.22739e-37
-2.7097e-35
-4.27445e-35
-3.66938e-37
-7.60997e-37
1.13954e-36
8.27739e-40
-6.93489e-38
-1.38014e-37
1.3855e-37
1.65603e-40
1.12124e-36
-1.33432e-36
-1.3146e-35
5.33585e-36
-1.11239e-34
-1.98389e-43
-1.48029e-44
7.25072e-46
6.67598e-45
1.34986e-42
2.72843e-43
-2.0819e-41
9.7037e-44
-3.14041e-44
7.81635e-45
-2.28724e-44
2.86666e-46
-1.02054e-44
1.2562e-44
6.85916e-44
1.01473e-43
7.17903e-44
1.07196e-44
4.13655e-43
-3.472e-45
-3.05585e-42
2.94695e-40
-3.37463e-39
2.82373e-41
-3.47799e-41
7.08661e-41
-1.76509e-42
5.80924e-43
9.05364e-41
-9.73336e-41
4.23004e-41
-1.57695e-38
1.27149e-44
-1.97338e-52
-1.81305e-50
-8.62877e-54
4.95042e-51
-1.4626e-48
-1.02326e-51
1.43336e-48
1.88164e-49
-6.22133e-48
2.71713e-51
-6.45414e-51
6.89375e-53
-2.30041e-51
6.87714e-51
-2.84577e-50
1.71434e-50
2.18802e-50
2.12747e-47
6.20633e-47
4.32857e-47
-1.45991e-46
1.68137e-49
5.88729e-48
9.17409e-50
9.87882e-48
3.18229e-49
7.37187e-48
1.53123e-46
-1.46636e-46
1.50776e-47
-1.68556e-47
-7.54739e-48
8.04407e-47
-4.32693e-51
-5.82773e-51
1.44838e-50
4.31189e-52
8.4847e-51
2.76547e-48
-2.50456e-45
2.18733e-45
-8.49107e-47
-9.58416e-45
-2.09219e-39
-2.70022e-39
-3.55132e-40
3.70924e-39
-1.68625e-40
-5.15133e-39
-5.56655e-42
-4.56369e-41
-1.11134e-38
1.19367e-38
-2.36638e-38
-1.2255e-40
3.85275e-39
7.13404e-39
-4.29066e-38
-1.21817e-38
-1.18308e-37
3.90613e-44
1.45844e-42
-1.78861e-42
-2.19638e-43
2.0589e-43
-2.71714e-43
2.60617e-44
-7.48204e-42
8.96437e-42
3.07831e-41
4.85178e-42
-3.80634e-41
1.31437e-40
-8.23232e-41
-1.35406e-42
5.91018e-42
3.73473e-43
-3.48887e-43
4.52854e-46
-2.47665e-45
-7.6842e-37
-1.77701e-39
3.67476e-37
-9.07587e-41
7.79361e-37
2.56459e-35
-2.76311e-35
7.37763e-37
-1.00879e-40
-6.32493e-37
-6.09098e-38
9.48104e-37
-3.06958e-36
2.35173e-36
-2.5786e-37
-3.81914e-37
5.41067e-37
-7.16921e-36
3.75876e-36
3.49989e-36
1.47173e-35
3.82851e-36
-3.81045e-36
-1.13299e-34
-6.13219e-37
2.71713e-37
-4.14922e-36
-3.14564e-35
-1.19454e-34
-2.56862e-34
-2.6025e-34
-2.81867e-34
-2.33034e-34
-3.04114e-36
3.84916e-36
5.28366e-33
-5.52876e-33
4.9358e-33
-1.71454e-33
2.07875e-32
-8.63898e-33
-1.65113e-32
5.48833e-32
-3.18005e-32
-3.16513e-32
-9.03647e-30
-9.73873e-31
-2.23791e-32
6.55723e-33
-9.20193e-34
2.2634e-31
-2.86442e-31
1.33723e-29
-1.57802e-28
-1.43956e-32
-5.28018e-24
-1.77171e-22
5.38384e-22
1.99304e-21
-7.03135e-22
7.16499e-22
-7.30515e-24
1.61342e-20
-1.69973e-20
2.94022e-21
-2.47284e-19
2.46401e-19
-1.56525e-20
1.35952e-20
2.3355e-20
-7.5321e-20
-2.08317e-19
-5.4313e-21
7.14429e-21
-1.14123e-20
6.70073e-21
-1.04995e-19
-5.62741e-17
9.59208e-18
9.41338e-17
-1.40172e-16
4.81493e-17
1.08565e-16
-2.59256e-16
7.64505e-18
2.06149e-17
5.00738e-18
-2.17471e-17
1.51613e-17
-4.67261e-17
4.37983e-17
-3.11135e-17
1.08552e-16
-5.85604e-17
2.88307e-14
-1.24113e-14
-8.96414e-15
2.35276e-14
-4.5449e-14
-2.33167e-16
9.00024e-14
-3.92748e-14
1.93907e-14
1.33226e-16
-3.38744e-14
1.48957e-14
3.94011e-14
-6.34587e-14
1.02198e-13
-1.01106e-13
2.42779e-14
2.71631e-14
1.78737e-13
-2.32757e-13
-8.95824e-16
7.39611e-15
1.11517e-14
2.45472e-14
-5.07712e-17
-1.43897e-15
-4.85591e-13
4.62518e-13
-2.53877e-14
3.05164e-14
-1.90621e-13
1.74247e-13
-5.28467e-13
-5.07023e-11
-6.96428e-11
5.45505e-11
4.76748e-11
-7.60286e-11
-1.4352e-10
-2.28976e-10
-3.84939e-11
1.70894e-10
1.77707e-10
-1.14547e-10
-5.48658e-11
-5.87292e-11
2.28149e-10
4.65228e-12
-2.14717e-10
9.56852e-11
-4.69181e-11
1.09246e-11
3.73413e-11
3.42234e-11
-1.1488e-10
1.04385e-10
-1.7129e-11
2.01548e-10
-3.81432e-10
2.47144e-10
-3.48091e-11
-8.45995e-11
-1.60408e-10
3.15907e-10
-5.08135e-11
-8.99947e-11
1.32817e-10
-5.09334e-11
-7.2915e-11
3.89799e-12
1.3119e-10
-1.82542e-10
5.66567e-11
-1.13647e-10
-9.00936e-11
6.43747e-11
-1.17508e-10
5.33118e-11
-4.68556e-11
-9.13733e-11
8.2994e-11
-5.55309e-11
-4.40511e-11
1.53364e-10
-3.4456e-11
-5.93642e-11
2.91381e-11
2.9381e-11
-9.33748e-11
4.69241e-11
-7.12084e-11
-1.97193e-11
2.16647e-11
-8.21898e-11
3.55237e-11
2.57325e-10
-6.85887e-12
-8.73559e-10
7.308e-12
-1.38556e-14
3.93086e-12
-2.90182e-13
2.64097e-10
3.65974e-13
-6.51347e-13
-1.31171e-12
1.87001e-13
7.41685e-13
-6.20232e-13
1.30279e-13
-1.40091e-11
3.1959e-17
-3.44942e-17
-1.33712e-18
3.00231e-18
-1.41696e-16
3.5298e-19
4.47234e-16
-2.72363e-19
7.79915e-16
1.53188e-18
-1.53323e-19
-2.40976e-18
6.38317e-19
1.3754e-18
2.20663e-19
3.37622e-20
-3.18313e-19
5.98585e-20
4.86215e-19
-1.64569e-19
5.93204e-19
-3.8329e-19
-1.83882e-17
2.19393e-18
1.22975e-17
-3.44098e-17
2.05539e-17
3.82082e-17
-1.54739e-16
2.1379e-18
3.69095e-18
2.23303e-17
1.84892e-17
-1.909e-17
4.37963e-18
1.45746e-17
3.91979e-18
3.71366e-18
6.14113e-18
1.22654e-19
1.12585e-19
8.67116e-20
-4.26975e-19
-6.92156e-21
3.2798e-20
4.85389e-20
-4.74753e-22
3.54128e-20
1.01521e-20
-1.35131e-20
-1.54505e-20
-9.13999e-21
1.84526e-20
-1.84346e-21
1.26849e-21
2.65127e-20
6.77509e-21
-1.26717e-20
-3.50467e-21
3.78866e-22
-4.78633e-20
-1.20141e-20
1.63317e-20
-7.61557e-19
-5.95866e-21
3.79693e-22
-1.79923e-20
3.99594e-21
-1.62756e-20
-3.25844e-20
5.2317e-19
-2.82416e-17
4.62477e-19
2.34339e-21
1.50492e-21
1.91317e-21
-5.80118e-21
-3.78596e-23
4.45174e-22
1.38798e-21
6.6404e-22
-4.99403e-23
-1.03327e-21
-4.15578e-22
9.95803e-22
-3.5858e-21
-3.65586e-23
6.05838e-22
-7.89614e-21
8.73664e-23
6.22227e-17
-1.61175e-17
-1.96978e-16
5.78979e-17
-2.004e-16
-1.29204e-16
2.61374e-16
-3.72921e-16
-1.83959e-17
4.48035e-18
-6.19882e-15
5.86795e-15
-1.26278e-16
-2.25065e-16
2.12209e-15
-8.91606e-15
1.81927e-15
-6.33327e-13
1.37573e-12
4.10547e-12
-2.15338e-11
5.43449e-12
9.82392e-12
-3.84383e-11
-1.19643e-11
2.71279e-12
2.88692e-10
-7.70482e-10
-1.32632e-10
-2.39137e-11
9.78111e-11
9.5625e-13
3.57082e-12
1.13288e-12
1.03505e-12
1.16493e-12
3.38367e-11
-1.34426e-09
2.54169e-12
-3.11628e-11
-8.54972e-11
-3.03139e-11
5.24265e-11
3.38401e-12
-2.87218e-10
-2.98893e-10
2.32609e-12
6.29498e-11
2.66036e-11
-4.62263e-10
3.31416e-11
-3.79875e-12
2.11645e-11
2.07398e-11
-8.63681e-11
5.66084e-11
-9.77341e-11
1.83488e-10
1.00842e-10
1.31181e-10
5.55824e-10
-2.18416e-11
1.22785e-09
-1.88481e-09
4.54939e-11
4.82403e-10
-1.00136e-09
-8.75699e-10
1.64567e-10
1.71509e-09
-7.17336e-09
-2.2333e-10
-5.21496e-10
1.65257e-09
3.85588e-10
2.94083e-09
-8.1674e-10
1.39956e-09
-1.27841e-09
-1.00449e-08
6.30146e-09
-1.54797e-08
-2.96037e-09
-1.18126e-09
3.47631e-09
-6.1576e-09
9.78678e-10
5.44373e-09
3.38842e-09
-1.47917e-08
4.25667e-09
1.96712e-10
5.4398e-09
-1.73331e-08
1.85672e-08
-1.10214e-08
1.14212e-08
5.26922e-09
2.91532e-09
-1.13574e-10
-8.56867e-09
1.78353e-09
3.73636e-09
1.21071e-09
2.49275e-09
1.30188e-08
-1.23885e-09
-1.91205e-08
4.12661e-08
-2.15778e-08
2.33684e-09
8.91363e-09
-3.23723e-09
-8.02659e-09
9.68697e-09
1.89764e-09
-8.43886e-09
-1.65443e-09
-1.36234e-08
-1.64876e-09
1.27171e-08
1.46598e-08
-2.36491e-08
6.44151e-09
-6.85436e-10
-4.9083e-08
3.36887e-08
-3.16446e-09
-1.24218e-08
-9.06424e-10
-1.30343e-08
-4.92592e-08
-4.0257e-08
8.41144e-08
-5.73682e-08
4.3762e-09
-1.85912e-08
2.14153e-08
-3.60819e-08
-3.43406e-08
1.79193e-08
-2.33611e-09
2.40028e-08
2.36161e-08
1.60535e-07
1.45367e-07
-3.34582e-10
3.06201e-08
-3.48107e-08
-3.5674e-09
-3.44111e-09
-1.59985e-09
1.84273e-08
1.68221e-10
8.47566e-09
-1.56776e-08
-1.71342e-08
1.59802e-08
8.73399e-10
-3.95917e-07
-1.88646e-08
5.41012e-08
1.39217e-09
-5.28877e-08
1.31993e-08
-7.85839e-08
1.17544e-08
3.27156e-08
-7.72543e-09
1.14139e-06
-1.24695e-06
1.38001e-06
-1.51091e-06
2.31646e-07
2.45588e-06
-1.60555e-06
-1.02991e-06
1.09102e-06
4.62092e-07
-3.24349e-06
1.6624e-07
3.13489e-06
-2.65081e-06
5.02141e-06
1.86464e-07
5.8625e-08
-3.74932e-07
7.99963e-07
5.94508e-07
-1.89742e-07
-1.46624e-06
1.06147e-06
-3.50601e-07
-6.80657e-07
1.62577e-06
-1.48683e-07
-3.91659e-07
-3.97605e-07
2.05799e-07
4.31234e-08
1.25526e-08
-8.01817e-07
-9.7586e-07
5.01002e-07
-2.42954e-06
-8.62923e-08
-2.19877e-07
-7.54492e-08
3.81621e-07
-4.7491e-08
-9.55485e-08
5.67479e-08
-1.15016e-07
-1.52297e-07
-3.75242e-08
-1.03481e-07
6.59455e-08
-3.76249e-07
2.43283e-07
7.79279e-07
-4.42715e-07
-4.51579e-07
-1.65566e-06
2.28425e-06
-3.42906e-07
-4.7574e-07
-2.09543e-06
-1.74406e-07
-4.54157e-07
1.25627e-07
-2.62584e-07
1.66567e-07
-8.29856e-08
-1.34965e-07
5.13832e-08
-4.2237e-07
-7.00715e-08
6.59009e-07
-4.1664e-08
-4.6369e-07
2.10071e-07
-7.47865e-07
4.0283e-07
-4.63677e-07
6.03677e-07
-5.5702e-07
1.8145e-07
3.33906e-07
6.73639e-08
-1.08807e-06
1.02104e-06
-1.70155e-06
7.38818e-07
-1.36264e-07
-2.61251e-07
-3.99972e-08
4.37512e-07
-2.69137e-08
-2.62854e-07
1.53503e-07
-2.4504e-07
3.05778e-07
-8.98485e-07
3.29853e-07
7.66782e-07
3.22193e-07
-1.36904e-06
-3.00349e-06
-2.37881e-07
1.99654e-07
2.45476e-07
1.21191e-06
2.94856e-07
2.71132e-08
-4.43268e-07
1.21299e-07
-8.17268e-07
-1.04029e-07
1.21615e-06
1.04444e-07
-8.94598e-07
4.04948e-07
-1.84212e-06
9.93904e-07
-9.3074e-07
1.23166e-06
-2.49011e-06
1.66381e-06
-5.22683e-06
-1.81821e-06
-7.4896e-07
-4.1589e-07
-1.5956e-07
-8.65337e-07
-7.83477e-07
-5.74613e-07
1.02752e-06
-2.69021e-06
1.64211e-06
-2.31613e-06
-6.6873e-07
1.43218e-06
-3.47753e-07
1.23441e-06
9.14724e-07
-3.84842e-07
-1.79035e-06
5.2238e-07
-4.325e-07
1.0248e-06
-3.32488e-07
1.27838e-06
4.93913e-07
-1.75149e-06
3.31087e-07
1.26218e-06
1.71166e-07
-1.89559e-07
-1.96313e-06
-4.50078e-07
-2.20669e-07
-1.53849e-06
2.24503e-06
5.36571e-07
-4.09049e-06
1.68162e-06
1.6589e-07
1.57889e-07
-7.65103e-07
2.04691e-06
-1.11584e-06
2.00342e-06
-2.66682e-06
5.31826e-07
-3.11097e-06
9.67959e-07
9.64987e-06
-2.59333e-07
-8.20693e-06
-1.83397e-06
-6.9345e-06
-2.79464e-06
1.66096e-05
-1.14611e-05
-2.19187e-07
1.48318e-05
-5.73341e-06
-1.66541e-05
-1.34573e-05
2.31324e-05
1.66192e-05
-3.26814e-05
-2.14266e-07
7.2682e-08
5.85854e-08
2.03047e-08
-2.14585e-07
6.51269e-08
-1.23737e-07
7.74969e-08
2.08001e-08
6.47745e-08
8.86908e-08
-2.08538e-07
-5.06747e-07
2.61127e-08
5.40209e-08
-8.34364e-08
8.75895e-08
-2.72765e-07
-6.10035e-07
-1.57981e-06
-1.07176e-06
1.80805e-06
-2.54704e-07
-9.07213e-07
2.05916e-07
-2.03698e-07
-3.2659e-06
-1.8657e-07
-3.62836e-06
5.85769e-07
-1.7446e-06
-4.25664e-07
-3.04515e-06
-5.28727e-07
-2.20122e-05
-3.53892e-08
2.02598e-08
-5.0518e-08
2.89912e-08
4.5055e-08
-1.59708e-07
-1.02393e-08
-1.03184e-07
1.07758e-07
3.43114e-07
2.3017e-07
-1.46902e-06
3.80567e-07
-3.8842e-07
7.38117e-08
4.55677e-08
2.57799e-08
8.59091e-08
2.84733e-07
-1.92331e-08
-5.19328e-08
-4.3845e-08
-8.85595e-09
-4.38174e-08
-6.60654e-11
7.4234e-08
1.13544e-09
-4.17389e-09
-4.02529e-09
-6.91682e-09
2.03824e-08
1.87225e-08
-4.6919e-09
1.84272e-08
3.9588e-08
3.39992e-09
2.99508e-10
-7.88033e-09
1.21597e-09
2.10603e-08
1.89946e-09
-5.25459e-09
3.99865e-09
1.9976e-09
1.44127e-09
9.15235e-10
-4.11058e-09
9.23406e-10
1.86724e-08
-1.68239e-08
1.25119e-09
1.54629e-09
1.25784e-09
1.70229e-09
-1.75405e-09
6.2746e-09
1.55818e-08
1.15857e-09
4.04613e-09
1.58367e-08
2.70116e-14
3.37403e-14
4.71122e-14
-1.23639e-13
4.06884e-16
-3.2304e-14
2.65948e-14
1.43523e-14
1.38808e-15
5.52119e-14
-5.69656e-13
-3.10604e-12
-1.35513e-14
9.04936e-14
-1.625e-13
-2.36747e-12
-1.5067e-12
-2.60154e-12
-3.14047e-12
4.09645e-12
-1.41755e-12
-2.7794e-12
1.84796e-12
-5.38877e-12
-3.28727e-12
-4.29843e-12
-1.46862e-11
1.855e-11
-2.78343e-12
-4.2408e-12
4.20725e-12
-1.26934e-11
-3.82344e-12
2.50773e-11
6.57694e-12
-4.09371e-11
-1.19397e-12
2.72791e-11
7.12257e-15
5.19949e-12
1.67878e-11
1.62162e-11
-2.00404e-20
1.9848e-20
8.15977e-22
-1.2003e-21
6.30834e-19
-3.43689e-20
-1.02623e-18
-1.44505e-21
1.06289e-19
-2.39975e-22
9.75163e-23
3.86894e-23
-1.19034e-21
-5.37931e-22
3.964e-20
-7.63567e-20
7.7182e-22
-3.40429e-26
-8.89033e-25
-5.33752e-27
9.22305e-25
-3.30716e-26
7.16259e-28
-2.40322e-27
-2.96149e-25
-2.00127e-24
-3.3226e-27
3.84568e-27
1.97348e-29
1.00753e-26
-1.61589e-26
2.34392e-25
-2.27433e-24
7.75836e-26
-8.04201e-39
-1.26772e-39
7.17755e-39
1.72517e-39
1.65877e-37
3.58219e-37
-3.79524e-36
3.19131e-38
-4.50266e-38
3.89746e-38
7.48304e-37
-4.62511e-37
2.41157e-38
5.93072e-40
-3.08837e-37
2.19205e-37
2.32107e-37
-7.14833e-47
-1.00224e-47
6.93704e-49
1.33355e-47
6.87213e-46
1.89171e-46
-3.34691e-45
1.30222e-45
-2.368e-45
3.00295e-48
-1.58801e-47
2.48083e-49
-1.62197e-47
1.12643e-47
1.87344e-47
5.83265e-47
7.52306e-46
-9.27278e-39
9.30566e-39
-3.63708e-41
1.47316e-42
2.08805e-37
-2.07543e-38
-1.92377e-36
-2.41065e-40
8.71987e-38
-3.39306e-43
5.65653e-41
-1.07254e-40
2.86974e-43
2.91799e-40
-2.1029e-38
4.24604e-44
-6.73448e-49
-2.64726e-41
-5.89268e-41
8.53994e-41
4.43063e-50
5.52481e-51
-8.15454e-48
-3.46813e-40
1.71757e-42
-9.69481e-48
5.06896e-48
4.8062e-50
1.35188e-46
-1.56755e-46
6.0589e-40
-9.52451e-40
5.46746e-41
2.54323e-40
-1.28204e-41
1.4239e-46
3.50511e-45
-3.81175e-45
1.67869e-48
6.93754e-48
-5.34964e-38
5.37507e-38
-8.6216e-38
-2.1678e-36
1.62143e-41
-5.54776e-42
1.83029e-42
-1.35301e-40
-4.40708e-41
-1.38872e-41
2.61802e-41
-1.24264e-40
-4.61436e-39
2.13219e-40
4.12466e-39
1.37293e-39
-6.37385e-39
-4.75599e-41
-6.10632e-43
5.74004e-40
3.60445e-40
-8.17515e-46
1.19528e-44
1.69856e-44
-4.75995e-38
-2.68353e-35
2.30092e-35
1.5826e-36
-4.18495e-34
6.31722e-35
3.71853e-36
1.06024e-33
-6.48226e-33
-1.43376e-34
-3.58892e-35
8.23018e-35
-3.00912e-33
2.71011e-33
2.45556e-35
-2.01523e-33
9.16513e-37
-1.02795e-35
-1.31201e-35
-1.22529e-35
-3.07217e-37
-1.18653e-35
1.06748e-37
-4.27815e-37
-1.90268e-35
-1.97491e-35
2.01939e-35
-7.89292e-39
2.00318e-35
-5.75106e-35
1.468e-37
7.00483e-37
-4.57338e-39
1.00836e-31
2.80622e-30
-4.5166e-32
-6.27525e-30
2.50391e-30
-4.50238e-30
2.01358e-32
-4.45512e-30
9.11857e-30
-6.91194e-30
3.16338e-30
2.00743e-30
7.18921e-30
-2.24197e-29
5.94876e-31
-9.89174e-33
3.7613e-30
-7.21111e-34
-3.98366e-32
-4.66357e-32
-3.96799e-31
4.07476e-27
-1.45157e-25
6.38532e-26
-5.64927e-27
-1.28097e-25
4.45117e-26
2.52493e-27
1.75032e-25
-6.50807e-25
-2.76449e-26
-2.61314e-26
4.84918e-26
-7.25132e-26
4.664e-27
-5.17472e-27
1.83913e-26
-4.7254e-28
5.49838e-31
6.11639e-29
-2.96309e-28
9.20201e-31
1.1507e-28
-3.43159e-28
-5.29601e-29
-2.12586e-28
3.75385e-28
-3.44983e-27
-1.63223e-28
3.81566e-30
-2.08223e-28
2.81409e-23
2.6883e-23
-2.26854e-24
-2.31646e-23
-2.22003e-23
-5.28779e-25
-8.82006e-25
1.11997e-24
-4.14801e-26
-1.37462e-24
1.34266e-25
-8.07569e-25
-4.95274e-24
-3.91698e-21
2.02756e-20
-8.37779e-21
-2.69194e-20
4.91714e-20
-2.02905e-20
-6.54485e-20
-2.81158e-19
-1.06406e-19
-3.58014e-20
5.87436e-21
-3.70197e-21
4.93209e-20
-1.34641e-19
3.78644e-19
-3.96304e-18
1.16906e-19
-3.28841e-19
-1.98467e-19
-3.9115e-20
4.07455e-19
1.42946e-19
-5.30855e-19
-6.07755e-19
-7.2978e-19
9.44828e-20
-6.54078e-19
-5.87506e-19
9.83564e-19
-7.68526e-19
-1.29746e-18
1.03546e-18
-4.87097e-18
1.68633e-19
-2.62639e-15
1.48568e-16
6.47082e-16
-3.9383e-16
9.43339e-16
7.43793e-15
-3.02976e-14
6.28451e-17
1.32087e-16
4.96083e-17
-5.94991e-16
2.48181e-16
-1.21144e-16
1.05709e-16
4.61745e-16
1.94292e-16
-1.91965e-17
1.1004e-15
2.20429e-15
5.41452e-16
-1.33021e-15
2.58733e-16
-1.18481e-13
-3.71678e-13
5.15514e-14
5.55125e-13
-1.05905e-13
7.03052e-14
-3.57365e-14
3.87119e-16
1.27621e-12
-6.98551e-14
4.49402e-14
1.58528e-13
-7.33516e-15
1.12092e-13
-2.90076e-14
3.55847e-13
-3.92621e-11
-6.78604e-11
-9.52238e-13
-7.21993e-12
7.69143e-12
-3.97277e-11
1.43888e-11
-8.94647e-11
-1.34781e-10
1.20864e-10
-1.07412e-12
-1.73428e-10
-1.17117e-10
2.50562e-11
6.6905e-11
-4.26792e-11
-3.82057e-11
4.36095e-11
2.25188e-11
1.63711e-10
5.39375e-11
-1.19342e-10
-1.14293e-10
7.95913e-11
-1.24079e-11
-1.71949e-10
-2.85175e-11
-5.69834e-11
1.64271e-10
-2.4503e-12
-3.90787e-11
-6.22921e-11
6.33416e-11
-4.13619e-12
5.56474e-11
-1.5703e-10
-2.14845e-10
2.25842e-10
3.60943e-11
-1.11697e-11
-5.9552e-11
3.34298e-11
-7.29693e-11
1.45637e-11
-5.01354e-11
-3.4636e-11
1.21639e-10
-1.84925e-11
-1.61371e-10
3.93256e-11
1.15347e-10
2.60057e-11
7.73102e-12
-5.24264e-11
6.52721e-12
5.84773e-11
-2.07533e-11
4.14938e-11
-6.34777e-11
2.07719e-09
2.76268e-09
-4.1978e-09
-1.8059e-09
-4.70865e-11