/*--------------------------------*- C++ -*----------------------------------*\
| =========                 |                                                 |
| \\      /  F ield         | OpenFOAM: The Open Source CFD Toolbox           |
|  \\    /   O peration     | Version:  v2012                                 |
|   \\  /    A nd           | Website:  www.openfoam.com                      |
|    \\/     M anipulation  |                                                 |
\*---------------------------------------------------------------------------*/
FoamFile
{
    version     2.0;
    format      ascii;
    class       volScalarField;
    location    "0.2";
    object      p_rgh;
}
// * * * * * * * * * * * * * * * * * * * * * * * * * * * * * * * * * * * * * //

dimensions      [1 -1 -2 0 0 0 0];


internalField   nonuniform List<scalar> 
6576
(
2775.79
2751
2759.39
2764.58
2780.75
2788.28
2763.69
2766.33
2782.52
2772.71
2813.66
2797.36
2785.54
2794.8
2760.34
2767.19
2733.65
2761.15
2763.61
2810.49
2743.15
2802.18
2806.08
2759.37
2790.08
2820.54
2868.89
2785.67
2746.64
2750.64
2770.44
2731.33
2769.61
2793.24
2786.49
2807.8
2782.18
2809.5
2767.76
2789.42
2754.19
2746.02
2773.09
193.939
117.529
212.685
122.593
205.512
216.65
209.26
212.19
211.565
-0.000985658
-0.00101988
-0.000321759
-0.00145896
-0.00190411
-0.00229058
-0.00150622
-0.000373596
-0.00178816
-0.00136284
-0.000627737
-0.000145197
0.000171164
-0.0014203
-0.00168928
-0.000996235
-0.0013839
-0.000779091
-0.00115936
-4.63304e-05
-0.000909258
4.81245
5.4464
5.71507
5.43807
5.2437
5.2061
5.61226
5.89118
6.42636
6.16976
6.28122
5.22126
6.19254
5.41914
7.34865
7.41131
7.42429
7.40219
7.48341
7.38086
7.34012
221.659
223.573
223.862
218.656
220.328
227.577
221.638
225.781
224.733
225.843
225.684
226.892
226.112
227.829
221.13
220.534
219.62
221.53
218.555
219.024
-0.047211
-0.0112308
-0.0825237
-0.0164239
-0.0641279
-0.0542175
-0.0503262
721.806
2234.54
2497.58
2625.25
2553.19
2735.71
2817.44
0.538585
-0.346688
0.111547
-0.845337
-0.647493
-0.937104
-1.10395
6.13316
6.06105
6.06402
6.30058
6.26888
6.17953
6.16831
5.93237
6.11818
6.09204
6.09172
6.41425
6.32671
6.12905
5.37964
5.50302
3.6589
5.41307
5.58873
5.27477
5.92033
4.28094
2.31587
2.92649
4.58062
2.70512
4.46791
4.17171
3.72744
4.50429
-1.60621
-5.48006
-3.1702
0.664037
1.11228
-0.523686
0.278119
-6.42087
-9.51345
-5.08748
-3.74572
-7.1175
-3.14198
-5.20341
-4.94818
-2.12837
-13.7696
-12.8025
-11.1071
-13.4448
-11.5257
-8.72145
-10.9418
-11.7209
-9.64035
-10.8501
-11.7432
-11.7457
-12.2976
-12.6132
-12.4384
-11.8376
-8.8261
-8.11044
-8.50144
-7.28061
-9.28072
-8.87152
-7.78063
-3.42789
-3.62436
-4.28956
-7.13332
-4.36351
-5.6148
-6.16557
-0.272765
-0.409608
-1.19889
0.437722
-0.750595
-0.722629
-0.791057
-4.24205
-3.45368
-4.10175
-5.64739
-5.00223
-5.07859
-6.18563
-8.59736
-6.51804
-10.9452
-8.65783
-10.8654
-13.1903
-10.5258
-13.5304
-16.3431
-15.9472
-14.434
-12.9699
-16.1725
-16.3447
-14.4783
-14.9528
-14.9937
-15.5976
-15.2294
-14.739
-14.358
-10.692
-8.06352
-6.87069
-11.8751
-11.6769
-11.0331
-11.0826
-9.43896
-8.25233
2.43204
2.70095
2.81889
1.62479
0.559694
1.36347
1.09564
4.8723
4.81931
5.03332
5.02408
4.91195
4.89725
5.02004
205.141
205.43
204.843
204.911
204.819
202.869
204.301
203.859
204.642
204.995
205.964
206.126
202.568
211.993
201.748
200.838
1.11835
1.88277
2.43196
1.81323
1.42887
3.29707
2.43145
3.12768
1.83533
200.925
208.634
201.287
2.2468
-1.15121
1.75583
-0.80993
-0.886318
-1.40768
-3.17904
0.00629796
-0.00830349
0.0244135
0.0141109
0.0215096
0.0437517
0.0366961
136.749
21.2537
-0.925097
143.772
8.4078
0.143509
-0.144932
-0.0391141
-0.140538
-0.182194
-0.194185
-0.185942
-0.165886
-0.159798
-0.171223
-0.163658
1.6059
1.61497
1.47597
0.576989
1.41261
0.96506
0.464002
0.711032
1.83227
1.47368
-0.212762
-0.0714767
2.33804
1.21217
1.43103
2.41581
1.41666
1.69111
1.53868
2.29185
1.52145
2.52279
0.750881
0.88945
2.43581
208.392
207.535
208.706
208.382
209.859
209.329
210.971
204.975
205.001
205.19
206.028
205.45
204.269
205.413
204.832
204.797
191.532
198.654
202.396
204.348
199.937
204.13
201.151
3.59846
6.33132
5.20029
6.93999
40.3409
5.35788
8.6651
-0.349981
-0.450672
-0.370951
-0.68499
-0.427553
-0.599258
-0.614462
-0.415508
-0.417622
-0.3713
-0.363173
-0.403055
-0.436609
-0.499753
-0.388752
-0.395822
-0.295721
-0.342424
-0.328822
-0.382702
-0.373411
-0.357897
-0.379842
-0.34153
-0.311572
84.3237
205.446
756.832
333.175
78.5417
5.25487
132.774
1500.74
1509.52
1527.15
1478.49
1453.79
1488.38
1531.82
-1.88471
-3.25172
-2.63972
-1.51094
-1.12284
-2.37417
-1.8981
-0.553325
-1.09811
-0.466344
-0.603915
-0.191495
0.0243917
-0.337164
1.13371
0.7737
0.804585
1.33676
1.30171
1.00113
0.991894
1.94991
1.80331
2.07453
2.0266
1.92753
2.25438
2.35942
2.16021
2.24
1.54369
1.41849
1.59013
1.62415
1.67067
1.47021
1.56466
1.30921
1.53806
1.3584
1.36538
1.16284
1.44065
1.30925
1.24735
1.22351
1.1029
1.35126
1.45142
1.33881
1.28337
0.445827
0.491569
0.654446
0.447688
0.347511
0.466344
0.644835
0.840868
0.764529
0.721231
0.736479
0.684001
0.725034
0.743054
0.285138
0.485635
0.419482
0.802178
0.780246
1.09462
0.0471764
0.10656
0.0948598
0.11387
0.0336865
0.0634046
0.121228
0.0913731
0.0679736
0.0255126
0.226042
0.146165
0.141848
0.11214
0.0318071
0.0096893
0.0936698
0.0805862
0.165465
0.126053
0.0295449
0.0559174
0.0576777
0.0975719
0.146328
0.0917276
0.0111948
0.0342655
0.0618677
0.0208169
0.0576488
0.125132
0.17014
0.0834457
0.049644
0.0445526
0.0213958
0.0050456
0.0297452
0.0824656
0.0326746
-0.0116698
-0.670491
-0.355207
-0.44867
-0.861137
-0.459816
-0.757702
-0.476892
-0.402959
-0.56433
-1.94387
-2.28973
-2.20873
-2.52726
-1.63562
-2.69258
-2.03659
-3.55178
-2.77632
-2.85614
-4.02068
-4.55047
-3.16896
-3.09794
-5.33409
-5.9219
-4.1514
-7.38354
-5.41878
-4.35132
-5.89042
-9.98599
-9.67007
-10.6761
-11.0131
-8.20671
-12.5613
-12.6983
-13.3411
-14.7318
-15.9573
-12.8418
-14.3093
-7.89919
-5.02364
-5.99692
-7.9284
-5.07447
-6.60483
-9.74259
-2.26204
1.34281
1.2011
6.41685
2.90959
4.56904
3.77524
-0.315339
-0.300821
-0.363878
-0.26274
-0.267949
-0.310097
-0.275822
-0.189844
-0.215853
-0.204515
-0.178431
-0.17129
-0.182153
-0.183236
-0.205632
-0.19798
-0.165889
-0.155501
-0.161614
-0.153706
-0.162581
-0.149295
-0.163688
0.120854
0.115493
0.093334
0.0813191
0.0809564
0.102953
0.103303
0.140818
0.120981
0.13624
0.153138
0.134134
0.164112
0.139151
0.195241
0.185492
0.167595
0.151858
0.158457
0.178459
0.172718
0.37152
0.352046
0.383608
0.385082
0.372542
0.400805
0.390485
0.439539
0.424436
0.432392
0.466349
0.408896
0.411343
0.420973
0.468859
0.416492
0.402558
0.435398
0.411524
0.484992
0.410959
0.420101
0.400856
0.45733
0.411974
0.502574
0.458396
0.493182
0.75491
0.523638
0.447994
0.434753
0.837254
1.21605
0.726648
0.740151
1.20524
0.789917
1.23274
0.923478
0.827866
1.05198
1.34763
1.05356
1.27417
0.81901
0.822764
1.67707
1.9141
2.11428
2.55796
1.77205
2.18709
2.71727
3.39057
1.19187
1.23421
2.09242
1.12546
1.87885
2.41594
3.33155
2.78658
1.80123
-0.429401
25.2951
-1.70287
1.62282
1.62943
1.53603
1.95379
1.7248
5.76479
1.30227
0.753134
9.92282
1.72411
2.68417
2.89453
199.987
193.317
193.48
175.027
142.141
187.287
186.518
208.399
207.346
206.786
223.088
223.911
225.929
225.743
229.11
226.054
227.993
213.729
215.381
215.277
215.225
217.223
217.872
213.201
218.785
215.743
212.341
215.08
213.927
244.521
239.938
245.838
250.46
245.085
244.782
251.696
252.435
246.01
223.115
225.321
225.848
227.787
225.288
231.097
230.615
220.791
224.645
222.727
283.951
272.936
284.912
299.915
283.877
289.929
313.396
234.118
234.566
244.322
255.982
255.853
239.965
239.599
223.516
216.312
205.968
226.836
216.568
215.966
226.791
215.146
151.404
234.078
247.085
257.127
194.203
228.699
104.118
91.2612
24.4574
150.896
143.63
198.09
38.4134
5.91401
2.64876
3.15661
3.98124
2.19874
3.57452
6.13909
22.7126
10.7649
8.49589
64.305
15.4228
26.9495
208.563
-0.531507
-1.38548
0.52922
8.24857
-2.55886
1.98387
-0.638749
3.37472
-0.974318
-1.41861
-1.99541
-0.052778
-1.29691
-0.567864
-1.63871
-1.25894
-1.80456
-1.56746
-0.733829
-0.156749
-0.729212
-0.767189
0.391402
-0.568744
-0.369787
6.23066
6.03317
6.41772
5.83886
6.01146
6.05346
5.89945
6.65513
6.63978
6.51898
6.17961
6.27025
6.36536
5.43838
2.87838
1.46135
2.91285
5.13083
5.76251
3.34952
3.25
2.77696
3.48161
3.78262
3.52816
3.25411
3.07981
3.37579
3.41347
3.36097
3.46958
3.26767
3.07807
3.62492
3.74514
3.51781
3.60989
3.50303
3.2904
3.47193
2.94229
3.22806
3.02144
2.94906
2.74622
3.04919
2.92929
2.96829
2.88108
2.65559
3.18078
3.02033
3.02339
2.88757
2.12041
2.43905
2.40903
2.38815
2.62221
2.50446
2.41173
2.30387
2.62033
2.38919
2.33238
2.45759
2.53369
1.71125
1.47257
1.68194
1.78062
1.90383
1.60404
2.01411
1.81932
1.30825
1.37029
1.20817
1.09594
1.0039
1.2255
0.85222
0.909779
1.06969
1.0145
0.219883
0.261621
0.305106
0.379268
0.436115
0.347513
0.313673
0.148087
0.190567
0.130841
0.149927
0.274617
0.230354
0.16194
0.0801907
0.0450135
0.102539
0.0547681
-0.0214171
0.0321085
0.0100995
-0.0348953
-0.00152589
0.0368043
-0.0239331
-0.0186777
-0.00257339
-0.0115371
-0.0787291
-0.0204159
-0.0585286
-0.00852883
-0.0894605
-0.099684
-0.108228
-0.09541
-0.0687183
-0.0466108
-0.0185965
-0.174531
-0.141669
-0.110582
-0.160899
-0.0991836
-0.227417
-0.192491
-0.118921
-0.222278
-0.249595
-0.167682
-0.942173
-1.14803
-0.919024
-0.968788
-0.64856
-0.777208
-0.976267
-0.750585
-0.499621
-7.04484
-6.27105
-7.0418
-4.43362
-5.12902
-6.11701
-5.66706
-16.059
-15.5921
-14.9021
-13.2663
-12.8038
-14.7139
-14.5791
-11.3481
-13.8586
-12.5608
-10.5334
-8.35289
-7.36898
-5.81406
-5.73853
-4.99855
-7.60296
-6.72603
-9.73073
-2.70728
4.99926
0.298014
-4.83871
-6.79926
-3.62061
-3.97372
2.05643
-1.29198
0.298975
-0.222089
0.308323
0.40252
-0.130014
-0.465765
-0.113803
-0.354874
-0.46632
-0.135441
-0.14657
-0.148744
-0.12938
-0.121772
-0.134792
-0.137987
-0.105696
-0.124293
-0.116273
-0.117408
-0.106805
-0.102739
-0.115097
-0.0718599
-0.0599046
-0.0625691
-0.0715089
-0.0578612
-0.0710601
-0.0509486
-0.0541818
-0.0704033
0.0107415
-0.00285124
0.0110856
-0.0111192
-0.0105156
0.00319955
0.00422153
0.275035
0.265796
0.263347
0.249393
0.26304
0.246372
0.259695
0.310669
0.321767
0.337438
0.311988
0.307816
0.298079
0.310547
0.310477
0.321126
0.30342
0.312529
0.334757
0.314804
0.313164
0.304969
0.295473
0.347342
0.351082
0.349055
0.365589
0.382665
0.364301
0.390922
0.346862
0.363189
0.363168
0.42124
0.68465
0.485617
0.860764
1.01769
1.12042
1.61229
1.64676
1.66605
1.02319
1.50446
4.04623
1.92941
235.679
244.071
239.596
276.808
278.948
264.188
307.67
276.107
268.092
286.389
285.333
266.229
277.326
341.791
358.095
362.6
358.676
387.397
374.046
410.839
330.872
361.588
344.228
604.91
603.308
611.769
723.382
617.62
614.372
673.602
561.346
474.703
468.28
436.498
448.512
491.643
326.525
383.237
376.146
364.702
401.161
390.535
347.106
450.6
398.858
514.306
549.991
559.525
485.332
495.662
294.872
245.025
360
460.746
476.874
382.486
411.945
378.561
411.162
381.166
416.866
397.001
402.453
398.919
111.631
4.34462
405.922
12.0037
546.844
31.6339
64.8562
681.757
678.542
779.022
508.821
762.327
772.931
627.255
5.0372
5.1239
4.11673
16.127
1.21246
4.4733
4.9012
2.99887
4.83004
2.97614
1.50079
3.21699
4.21828
2.90379
5.62117
5.45527
5.58676
5.55476
5.65987
6.10993
6.57374
6.07334
6.14708
6.26355
5.94551
5.97481
6.04278
6.06024
5.03471
5.13181
4.76218
5.05631
5.24189
5.20121
4.99613
4.91466
4.61424
4.81344
4.79327
4.86091
4.58133
4.76607
4.53729
4.71924
4.78248
4.68155
4.75224
4.67137
4.51761
4.47381
4.64792
4.68378
4.61377
4.68835
4.47013
4.59535
3.89655
4.1203
4.12458
3.99645
4.17437
4.28556
4.35132
4.30502
4.19073
4.62454
4.83376
4.70928
4.63656
4.48679
4.71288
4.64343
4.66083
4.61975
4.44445
4.71328
4.81165
4.72566
4.61776
4.19985
4.36693
4.19542
4.18418
3.99826
3.85638
4.09179
3.38142
3.60714
3.56547
3.78985
3.64242
3.70301
3.56543
4.17278
4.38142
4.24296
3.34423
3.5968
3.51258
2.7126
2.88128
2.92013
1.96579
2.15791
2.22074
2.28784
2.17166
2.46994
2.32562
2.07006
2.13496
1.87233
2.04361
2.27903
1.32512
1.38012
1.45444
1.59025
1.71249
1.54966
1.49581
1.82675
2.09658
2.01465
1.67422
1.74157
1.99762
1.91277
0.994775
1.02446
1.18987
0.838378
1.06973
1.10122
0.885738
-0.620177
-0.330538
-0.325185
-0.871913
-0.629634
-0.186202
-0.405299
-0.16857
-0.147569
-0.240578
-0.155036
-0.17895
-1.29519
-1.09398
-1.50138
-1.35012
-1.9614
-1.21937
-1.45629
-0.456999
-0.386148
-0.510423
-0.478694
-0.452101
-0.683926
-0.615913
-0.152804
-0.178552
-0.116779
-0.204684
-0.0761022
-0.225668
-0.391237
-0.248501
-0.32655
-0.384094
-0.161248
-0.0148859
-0.340291
-0.109974
-0.271367
-0.310076
-0.252076
-0.376624
-0.611322
-0.368773
-0.0153248
-0.115781
-0.0230852
-0.244213
-0.310116
-0.238312
-0.320347
-0.163461
-0.252061
-0.278835
-0.150741
-0.0967746
-0.0345634
-0.249249
-0.280009
-0.185841
-0.212122
-0.353566
-0.644637
-0.355184
-0.592116
-0.393782
-0.291084
-0.338387
-0.0649927
-0.163157
-0.0490166
0.0499869
-0.0861188
-0.0836615
0.10506
-0.463228
-0.444471
-0.899655
-0.908902
-1.09005
-0.43652
-0.683831
0.247152
0.191396
0.360548
0.253237
0.335783
0.296258
0.329203
-0.0863193
-0.0491803
-0.118263
0.238399
0.104493
0.0507043
-0.0512982
0.249012
0.214941
0.298209
0.193661
0.214403
0.295614
0.301869
-0.320212
-0.305531
-0.402981
-0.230168
-0.164975
-0.258702
-0.241854
-0.338098
-0.322248
-0.384063
0.492662
-0.39721
-0.318706
-0.441836
-0.395729
-0.544304
-0.36536
-0.322904
-0.424283
-0.271522
-0.276421
-0.313342
-0.338107
-0.189662
-0.175289
-0.167809
-0.145772
-0.166819
-0.162919
-0.181031
-0.178056
-0.196017
-0.11655
-0.11789
-0.133277
-0.109044
-0.0971519
-0.114741
-0.101518
-0.113322
-0.127328
-0.116395
-0.113288
-0.129269
-0.0925784
-0.108592
-0.105809
-0.11807
0.00276736
0.00342084
0.0137954
0.0069994
-0.00192202
0.0031972
0.0116204
0.0161679
0.0198376
0.0156785
0.031042
0.028595
0.0240661
0.0244484
0.0835476
0.0856983
0.0971331
0.0826531
0.0731607
0.0806682
0.0892563
0.0788966
0.0845446
0.0928066
0.0870646
0.0832437
0.0952461
0.0915689
0.125432
0.113162
0.126641
0.130945
0.143268
0.134437
0.125265
0.222435
0.216121
0.214812
0.226842
0.219163
0.213153
0.218758
0.192149
0.171331
0.174052
0.151399
0.165976
0.173209
0.159565
0.232862
0.217765
0.22041
0.198174
0.232648
0.213746
0.288531
0.267317
0.262327
0.267383
0.282897
0.258592
0.25511
0.243457
0.268567
0.258371
0.341003
0.323763
0.325436
8.83277
3.89798
60.012
0.996775
2.78666
10.8943
9.51494
607.124
595.483
567.729
684.614
589.594
573.474
612.416
626.957
613.046
601.266
742.392
733.268
743.784
818.654
752.931
761.566
870.389
762.056
766.795
743.447
120.615
117.726
183.741
53.802
45.9805
59.7632
76.965
492.09
566.561
452.941
343.742
457.693
507.429
451.118
6.16806
6.00429
5.92816
5.89074
5.97596
5.89475
5.63895
199.835
183.015
220.655
550.356
34.6912
15.454
53.6475
12.15
108.897
2.58226
5.79735
1.23252
293.148
65.1425
600.707
157.404
5.89326
5.73553
5.97572
6.11286
5.7633
6.02724
5.73058
5.83482
5.86374
5.73988
5.82548
5.85371
5.75985
5.81627
5.64427
5.96948
5.72989
5.81118
5.98152
5.93882
5.95487
5.96374
5.93083
5.93178
5.95607
5.68401
5.53432
5.61796
5.49543
5.60021
5.57157
5.63846
5.54595
5.3973
5.49783
5.37566
5.46979
5.46093
5.52321
5.27538
5.44151
5.40009
5.46283
5.49798
5.43593
5.34549
4.95923
5.08743
5.07606
5.19032
5.08381
5.13904
5.20537
5.44085
5.52909
5.44519
5.45408
5.50972
4.95985
5.11733
5.09845
5.05849
4.92571
5.53225
5.44379
5.53695
5.51656
5.42314
4.93146
5.07823
5.09551
5.01469
4.89398
4.61998
4.45754
4.60756
4.18029
3.90065
4.14728
4.36698
4.2641
4.90573
4.80008
4.76174
4.7142
4.87646
4.78313
4.88302
3.46663
3.70819
3.54593
3.78876
3.65958
3.77412
3.62918
3.89641
4.21239
4.1771
4.09734
3.89857
4.14211
4.24924
2.26871
2.4959
2.59834
2.92636
2.81163
2.73669
2.62041
-1.61965
-2.00092
-2.4382
-1.48367
-2.07859
-1.82811
-2.63551
-4.52551
-4.36038
-5.62202
-4.89273
-3.84054
-4.6099
-5.73501
-0.237781
-0.248377
-0.335067
-0.12914
-0.078385
-0.103533
-0.236993
-0.125296
-0.10162
-0.240595
-0.155701
-0.00476477
-0.236411
0.202398
-0.0565124
-0.0057836
-0.0816068
-0.0544339
-0.140135
-0.109438
0.155917
-0.0380394
-0.0619808
-0.164846
-0.322794
-0.104547
-0.0595748
-0.220507
-0.0197941
-0.56444
-0.126259
-0.148085
-1.31699
-1.25607
-1.30427
-1.10229
0.839772
-2.11191
-1.57677
339.874
1808.06
2761.04
2756.27
2745.52
2665.9
2669.45
0.844415
0.598107
0.305421
0.627561
2.5385
1.68017
323.259
1.08778
32.1362
-4.60129
-3.61505
-2.34981
442.787
-2.42698
-0.131089
-0.214935
-0.0552126
-0.0704959
-0.0616534
0.124335
-0.0234988
0.698293
0.313979
1.51283
-0.242115
0.575927
1.51214
4.12395
0.0634529
0.0867638
0.127742
0.102843
0.123668
0.180356
0.157303
0.185801
0.202612
0.158431
0.131844
0.125139
0.162365
0.177759
0.14024
0.129721
-0.0766569
-0.0511787
-0.0382317
-0.0234215
0.0164717
-0.0278406
-0.0524384
-0.0556165
-0.0609466
-0.0329305
-0.0466314
-0.0554812
-0.0279638
-0.0484201
-0.066935
-0.0528279
-0.0886801
-0.0715086
-0.0766209
-0.0936864
-0.0916951
-0.0741629
-0.0880797
-0.0802642
-0.0651023
-0.0702553
-0.0778053
-0.0722017
0.0175204
0.0120758
0.0167923
0.0168311
0.0244952
0.0205338
0.015239
0.0513496
0.0504501
0.0472122
0.0468179
0.0398863
0.042206
0.046487
0.0732709
0.0797544
0.0706994
0.0705403
0.0699494
0.0682298
0.0747945
0.0635074
0.0695865
0.0681652
0.0697675
0.0864363
0.0676646
0.0697217
0.0624367
0.0610547
0.0894125
0.0973195
0.0993207
0.0993522
0.115224
0.111827
0.10373
0.100157
0.0834992
0.0939921
0.147031
0.131967
0.129286
0.123933
0.132702
0.114134
0.12495
0.124582
0.126522
0.112886
0.129568
0.141399
0.130605
0.12144
0.136405
0.147911
0.138761
0.170616
0.188869
0.177405
0.167046
0.173311
0.183414
0.15904
0.150603
0.16166
0.168505
89.5237
369.597
14.9063
15.0141
15.478
75.0512
7.85176
108.584
75.9684
136.237
340.874
387.309
173.976
218.789
790.685
632.547
686.255
641.753
537.312
716.229
728.787
496.503
515.035
629.074
371.646
403.082
480.779
550.651
301.119
38.7494
76.4237
526.429
237.991
422.632
290.19
457.694
501.404
524.73
512.77
117.949
277.069
6.05783
5.98415
6.02074
6.02067
5.96249
6.0337
5.98947
5.97366
5.89684
5.94857
5.94011
5.88503
5.96769
5.92926
5.84514
5.91406
5.92448
5.89526
5.93343
5.8925
5.83627
5.90393
5.89741
5.82958
5.91363
5.98026
5.93247
5.88285
5.61188
5.71427
5.70298
5.79559
5.7321
5.75284
5.69866
5.70475
5.57489
5.67317
5.70334
5.62239
5.72521
5.67851
5.72302
5.61186
5.67941
5.75425
5.68434
5.79678
5.77583
5.73014
5.6616
5.73635
5.79882
5.90591
5.8512
5.86621
5.81632
5.84866
5.76851
6.00092
6.0833
6.06696
5.94844
5.97005
6.05794
6.04673
3.22216
3.31462
2.99518
2.96249
4.71014
4.44513
3.72654
0.744745
-2.66116
-1.76633
2.04127
-0.712649
-1.70515
-0.163347
-2.90649
-2.10545
-3.09874
2.17205
-4.42969
3.86465
3.77729
3.43178
3.4056
4.87818
3.39703
4.03288
1477.49
1362.22
2483.12
1906.85
1417.37
147.802
2095.35
-3.18487
-3.12332
-3.36903
-3.35271
-2.59608
-5.86661
-6.8908
-0.367989
-0.271903
0.545958
0.313883
0.21816
0.0925974
0.232362
-0.0452292
-0.136902
-0.0504964
-0.080668
-0.0326326
-0.0646148
-0.0202912
-0.0769897
-0.0468007
-0.0683794
-0.0775172
-0.0241718
-0.0969643
0.0201679
0.0056675
-0.00319427
0.0338514
0.0359398
-0.00752616
0.0106152
0.00418923
0.0173935
0.0225083
0.0285752
0.0300063
0.0356662
0.142549
0.144711
0.115693
0.123806
0.130335
0.0978945
0.0842794
-0.00673554
-0.000833135
0.000286671
-0.00920724
0.00118943
-0.00082362
-0.00944024
-0.0248473
-0.0307615
-0.0317308
-0.0256042
-0.0220627
-0.0269513
-0.0296401
-0.035389
-0.0413516
-0.0401211
-0.0323673
-0.029312
-0.0370018
-0.0375436
-0.0362426
-0.0327611
-0.0309755
-0.0254985
-0.0263249
-0.0272767
-0.0285972
-0.030778
-0.0331685
-0.0138278
-0.017402
-0.0131691
-0.0120288
-0.0140718
-0.0122422
-0.0113096
0.015734
0.0152966
0.0212646
0.00897097
0.014838
0.0126791
0.0173703
0.0234176
0.0249312
0.0255925
0.0250147
0.0130159
0.0137812
0.0106544
0.0163769
0.00739631
0.0138766
0.0349898
0.0326258
0.0303001
0.0300546
0.0400291
0.0171605
0.0491305
0.0466589
0.0613256
0.0446269
0.0401494
0.0470985
0.0492983
0.0549997
0.0485431
0.0452465
0.0758289
0.0729107
0.0828426
0.0596361
0.0551712
0.0615496
0.0666631
0.0645584
0.0605939
0.0568115
0.107656
0.11458
0.0999871
0.0893832
0.0837702
0.0977707
0.0936449
0.45482
-1.65038
-1.27774
-1.77993
-1.96333
13.9704
1.72592
1.00987
1.049
0.36435
0.864955
1.92733
2.99811
3.39759
-0.600589
67.2984
-1.96176
4.6717
-1.23767
-0.265861
9.97126
44.8563
1.5057
-1.58255
103.386
144.584
-5.07838
-10.1764
-6.42207
327.124
143.505
407.783
409.906
398.119
412.378
397.051
409.419
415.323
369.799
238.821
421.702
232.482
61.8496
226.146
366.056
497.131
356.046
277.28
3640.1
1705.62
2623.21
2296.43
1349.77
3636.89
2689.04
1541.09
584.761
2075.99
1211.63
1912.3
2150.82
1031.34
638.125
476.619
494.795
556.571
-163.143
260.57
1181.58
4685.97
3102.17
6.2596
6.28934
6.25502
6.2386
6.18827
6.21041
6.25577
6.25327
6.27526
6.31415
6.17368
6.13636
6.12089
6.13953
6.18212
6.11805
6.17492
6.33166
6.32425
6.33861
6.30575
6.32331
6.3359
6.3239
6.33353
6.33763
6.3323
6.33719
6.32752
6.33167
6.33566
3.52818
3.77946
3.98328
4.23921
4.39386
4.2847
3.88171
2.19704
2.0691
2.59046
2.60152
2.40297
2.9642
3.07299
4.22872
4.55364
3.25403
4.77124
4.37309
4.19083
5.06025
4.05558
4.28389
4.20247
4.09536
6.91861
4.07731
4.07242
0.0779021
0.299517
0.343257
0.397683
0.41189
0.260296
0.280959
-0.0573995
0.161646
0.375208
0.122146
0.26685
0.364832
0.360589
0.32648
0.411391
0.265062
0.831146
0.951692
0.670686
0.68882
0.746773
0.664004
0.0982229
0.155691
0.129197
0.15963
0.217543
0.189077
0.145233
0.0354483
0.0417886
0.0228531
0.0246491
0.0109085
0.0261138
0.0100632
0.0252442
0.0203225
0.0322962
0.0203738
0.00333382
0.0217438
0.0121905
0.0175792
0.00398288
0.0219744
0.0178629
0.0167885
0.00566821
0.00155209
0.00472156
0.00605328
0.00728544
0.00852769
0.01014
0.00633611
0.0061891
0.00351131
0.00472188
0.00493334
0.00156209
0.000229027
0.00257678
0.00159148
-0.0114601
-0.0123491
-0.0128003
-0.0102423
-0.00990121
-0.01106
-0.0107296
-0.00996542
-0.00926865
-0.00932235
-0.00843112
-0.00913148
-0.00847041
-0.00972881
0.00303387
-0.00619771
-0.00620471
-0.00596467
-0.00513354
-0.00948619
-0.00727815
-0.0069272
-0.00608666
-0.00380729
0.00818379
-0.00188692
-4.30813e-05
0.00236437
-0.00838223
-0.00248553
-0.003887
0.00215371
0.0101073
0.00260087
0.000399398
0.00020963
-0.0011323
0.0178316
0.0145515
0.0188695
0.000206561
0.00733928
0.00344079
-0.00355373
0.00315307
0.00264967
-0.00468554
-0.0231142
-0.00675588
-0.0187286
-0.000644767
-0.0148521
-0.00421237
-0.019727
0.0555953
0.032618
0.0414157
0.0441994
0.0273504
0.0292069
0.0460514
-0.0669059
-0.0522174
-0.0333563
-0.0594065
-0.0821972
-0.0628522
-0.0453998
-0.0424876
-0.0468473
-0.0358264
-0.0754988
-0.0567069
-0.0764716
-0.0629134
-0.363817
-0.264407
-0.0645919
-0.187816
-0.157023
-0.311875
-0.263541
-0.742618
-0.819792
-0.658251
-1.18253
-0.963725
-0.722532
-0.867166
-0.390287
-0.416909
-0.464053
-0.553331
-0.414958
-1.75664
-1.64635
-1.79354
-1.90588
-1.83345
-1.81019
-1.81462
-2.49194
-2.28745
-0.629434
-1.97211
-1.95905
-1.02797
-2.39102
-2.08021
-2.16187
-1.65718
-2.06352
-1.98117
-1.58227
-1.65344
1754.23
939.753
801.678
580.054
969.925
1192.29
405.05
508.457
132.657
408.498
-601.274
166.05
898.888
154.25
465.346
89.4801
418.61
816.281
800.551
537.212
601.249
841.38
792.399
670.394
125.923
368.225
6.58682
6.6344
6.61786
6.6712
6.69977
6.63821
6.66141
6.55587
6.57574
6.54177
6.51016
6.54437
6.48313
6.52432
6.39577
6.39825
6.35865
6.45369
6.41845
6.43263
6.39744
6.55636
6.56486
6.60441
6.3332
6.37455
6.3934
6.33506
6.38487
6.38408
6.39876
6.37911
6.37296
6.33954
6.41081
6.4395
6.39633
6.37893
6.33981
6.41114
6.37913
6.44569
6.41472
0.349105
0.151093
0.90371
0.221872
0.362742
0.957651
0.0414091
0.0802917
0.128282
0.0363381
-0.0390902
0.00560556
0.00751465
0.636688
0.0868492
0.0698571
0.0918435
0.0936037
0.112332
0.100371
0.0836535
0.0101232
0.0158784
0.0111754
0.0234029
0.0269463
0.0287826
0.0195763
0.0169264
0.0224347
0.0241861
0.00657296
0.00246557
0.00730873
0.00709827
0.0123376
0.00632385
0.0032918
0.00529685
0.0086784
0.00558453
0.000954401
0.0053792
0.000698482
0.00254823
0.00168378
0.00147286
0.00187018
0.00301117
0.0024201
0.00434919
0.00309086
0.00451463
0.000777804
0.000345991
0.000817278
0.00180851
0.00141885
0.000830289
0.000380733
0.000559652
0.000957922
0.00102797
0.000247732
0.000586397
0.00135242
-0.00669029
-0.00520839
-0.00555541
-0.00503439
-0.00559007
-0.00597807
-0.00473391
-0.0101196
-0.00512465
-0.0105822
-0.00933029
-0.00868452
-0.010205
-0.00595793
-0.00371
-0.00815454
-0.0113575
-0.00885989
-0.00747876
-0.00832397
-0.00853657
-0.00436062
-0.00217925
-0.00421177
-0.0226308
-0.0183145
-0.0165606
-0.0216968
-0.0242374
-0.0207291
-0.0183429
-0.0144845
-0.012625
-0.0114768
-0.00840853
-0.00966771
-0.0107469
-0.0121473
-0.00595721
-0.00880915
-0.00639607
-0.00658226
-0.00319177
-0.00847925
-0.00548143
-0.0120646
-0.0115768
-0.0125889
-0.0198999
-0.0183788
-0.0157944
-0.017237
-0.0101454
-0.00404025
-0.00936671
-0.00213892
-0.00829096
-0.00671333
-0.00164209
-0.044532
-0.0365213
-0.0469424
-0.0496705
-0.0428466
-0.0484349
-0.0561474
-0.0226837
-0.0152633
-0.0271228
-0.0312669
-0.0204434
-0.0210539
-0.0316191
-0.0824785
-0.0956582
-0.0828388
-0.0796303
-0.0644108
-0.0752832
-0.0857442
-0.0263362
-0.0401707
-0.0325756
-0.0322489
-0.0433996
-0.0400071
-0.0292477
-0.0474954
-0.0523902
-0.0644442
-0.0780221
-0.0783764
-0.11951
-0.108423
-0.122932
-0.125789
-0.129214
-0.128869
-0.120305
-0.130206
-0.125301
-0.0642799
-0.0675926
-0.0779527
-0.0952873
-0.0906323
-0.0684266
-0.0713635
-0.0867587
-0.0851536
-0.154483
-0.142943
-0.161584
-0.173896
-0.179635
-0.163231
-0.168058
-0.243003
-0.253881
-0.240497
-0.298437
-0.289753
-0.268353
-0.272258
-0.280462
-0.234683
-0.272602
-0.222334
-0.216697
-0.248024
-0.257143
-0.553052
-0.469099
-0.584647
-0.444675
-0.426655
-0.510364
-0.492971
-0.587458
-0.774124
-0.618714
-0.507577
-0.587018
-0.83935
-0.675946
15.3819
24.5748
40.2344
98.1469
48.6885
404.589
37.5759
320.492
448.317
690.679
638.854
638.24
614.047
682.462
768.738
761.689
683.133
935.347
915.7
667.54
772.63
770.321
698.763
673.65
717.402
685.74
433.151
474.276
435.599
414.964
403.89
436.234
418.282
602.91
525.01
546.938
539.118
545.989
580.846
654.838
535.115
491.3
394.62
431.376
503.651
524.929
421.318
437.653
273.232
286.224
285.267
174.842
225.706
250.472
244.939
12.1468
8.95611
12.1753
10.8508
9.46687
59.8271
25.2846
9.14006
12.7505
7.18876
7.49222
7.84857
7.31252
7.64633
7.90392
7.77903
7.63238
7.80516
7.38195
7.47469
7.42777
7.41253
7.38798
7.38633
7.42392
7.34041
7.34798
7.33752
7.36199
7.32342
7.36226
7.29034
6.94777
6.89351
6.93892
6.96639
6.93439
6.88658
6.92789
6.96479
7.00302
6.93919
6.92839
6.89056
6.92972
6.96359
6.79473
6.7498
6.80977
6.82808
6.79663
6.82699
6.86074
6.75844
6.80229
6.79846
6.80396
6.8306
6.7772
6.80529
6.79026
6.76208
6.80893
6.85684
6.82756
6.64666
6.68947
6.69904
6.68037
6.70817
6.70632
6.74216
6.62494
6.66847
6.67979
6.66172
6.62563
6.79595
6.80191
6.75727
6.82768
6.85687
6.82629
6.79936
7.05826
7.02845
7.08255
7.07345
7.04662
7.02387
7.05807
7.17486
7.12439
7.15237
7.0946
7.05351
7.12594
7.10341
8.94199
9.19558
9.22128
10.5365
10.5239
10.265
10.1807
211.561
210.418
213.965
24.9725
22.4602
44.7541
20.0134
15.0535
39.6404
19.9753
15.2214
14.7535
15.8824
132.561
193.878
197.133
188.936
183.556
200.813
206.051
7.39419
7.41418
7.38379
7.39062
7.36189
7.34907
7.37984
7.40845
7.42144
7.41709
7.3571
7.39204
7.40153
7.41771
7.49681
7.53382
7.75409
7.44016
7.51377
7.51644
7.46709
6.03103
5.96418
6.00247
6.01497
5.97149
5.94361
5.99951
5.89409
5.92716
5.8591
5.90814
5.92609
5.823
5.80648
6.02054
5.99309
5.99151
5.96131
6.01908
6.0028
5.97134
5.98832
5.92767
5.99337
6.0055
6.0435
6.13526
5.87874
6.01268
6.11803
1590.88
1561.89
1319.13
491.149
1184.93
1596.31
1333.14
1111.92
1069.52
668.01
657.986
947.422
1469.43
1584.18
938.504
928.931
1264.24
1691.11
937.864
1598.62
162.964
0.503192
503.401
0.535739
-0.241996
1.24561
23.3451
388.626
-0.81982
0.0274891
-0.420748
-0.194343
-0.645769
0.40303
0.0872541
0.413342
-0.102874
-0.566503
-0.560626
-0.168654
-0.184436
0.370689
-0.47137
0.501348
0.446642
-0.127891
-0.115459
-0.132645
-0.0896144
-0.0660041
-0.0996447
-0.111075
-0.0200818
-0.0202839
-0.0269496
-0.0228044
-0.00586577
-0.00483734
-0.0173561
0.0300041
0.0369365
0.0226243
0.0268357
0.0295462
0.0136039
0.0169048
0.00859471
0.00305205
0.0070875
0.00736397
0.0109421
0.0105002
0.00623357
0.00222948
0.00301569
0.00535403
0.000939319
0.00457489
0.000507974
-4.65597e-05
0.0021189
0.000244184
-0.000573473
2.1981e-05
0.000961078
9.47522e-05
0.000510075
0.000693487
0.000240119
0.000657395
0.000518234
0.000460055
0.000210424
0.000492073
0.000503442
0.000382372
0.000373944
0.000750238
0.000167833
7.54739e-05
0.000333389
4.82582e-05
3.9542e-05
0.000614283
0.000594025
0.000761687
0.000180024
-0.000353409
-0.000268837
-0.000176589
-0.000268884
0.000592709
0.00139292
0.000118559
-0.00128344
-0.00196261
-0.00119222
-0.000336561
-0.00163769
-0.00268059
-0.00147139
-0.00116178
-0.00105211
-0.00181462
0.000302916
0.00602818
-0.000752429
0.00398735
0.000172635
-0.000629146
-0.00333828
-0.00418314
-0.00167559
-0.00411655
0.000595113
0.0016193
-0.00104245
-0.000398919
-0.0064524
-0.00518013
-0.00595224
-0.00613585
-0.0072984
-0.00664983
-0.00438768
-0.00538018
-0.00847874
-0.00689427
-0.01453
-0.00934556
-0.0108425
-0.00700604
-0.00593245
-0.00983412
-0.0110937
-0.0274499
-0.0294516
-0.0262345
-0.0228313
-0.0239447
-0.0273741
-0.0281078
-0.01662
-0.0169287
-0.0150619
-0.016309
-0.0199626
-0.0149923
-0.0171267
-0.0386833
-0.0376026
-0.0455102
-0.0467391
-0.0483686
-0.040764
-0.0417471
-0.0289803
-0.0294721
-0.0264931
-0.0288347
-0.0340352
-0.0337575
-0.0343605
-0.0383097
-0.0293134
-0.0270318
-0.0298834
-0.0326642
-0.0484983
-0.0425099
-0.0476479
-0.0575465
-0.0508514
-0.0456902
-0.0516118
-0.0476164
-0.0412259
-0.0479094
-0.0447889
-0.0499703
-0.0411536
-0.0462657
-0.113088
-0.106402
-0.0941244
-0.134242
-0.121854
-0.0760887
-0.0662649
-0.0743165
-0.078591
-0.0722574
-0.0648396
-0.0718829
-0.0744248
-0.0778692
-0.0886649
-0.0734417
-0.0620453
-0.07156
-0.0795769
-0.168049