/*--------------------------------*- C++ -*----------------------------------*\
| =========                 |                                                 |
| \\      /  F ield         | OpenFOAM: The Open Source CFD Toolbox           |
|  \\    /   O peration     | Version:  v2012                                 |
|   \\  /    A nd           | Website:  www.openfoam.com                      |
|    \\/     M anipulation  |                                                 |
\*---------------------------------------------------------------------------*/
FoamFile
{
    version     2.0;
    format      ascii;
    class       surfaceScalarField;
    location    "0.2";
    object      phi;
}
// * * * * * * * * * * * * * * * * * * * * * * * * * * * * * * * * * * * * * //

dimensions      [0 3 -1 0 0 0 0];
oriented        oriented;


internalField   nonuniform List<scalar> 
13152
(
1.00163e-06
2.02994e-05
-1.66023e-06
-1.96408e-05
1.87257e-05
-1.70954e-05
-6.28652e-07
-3.46795e-06
4.24931e-05
-3.46509e-05
3.54182e-05
-2.42757e-06
2.12089e-05
-7.55006e-05
2.85262e-05
-2.44128e-05
6.04765e-05
-1.61023e-05
-2.95584e-05
-2.84369e-05
7.40976e-05
3.87115e-07
-1.67823e-05
2.92886e-07
-2.99192e-05
7.47906e-07
7.84619e-06
5.15796e-06
-2.97865e-05
7.81592e-06
3.23153e-07
-5.08267e-06
-1.55383e-05
-2.98439e-05
-8.65109e-06
-1.46314e-05
-5.13629e-06
2.84188e-05
-7.65971e-08
-8.66265e-06
8.81512e-08
-1.41548e-05
-5.5317e-07
5.66596e-06
-3.05669e-05
1.62383e-05
-2.93341e-05
2.98638e-05
2.93759e-05
-5.11416e-07
3.42336e-08
-1.52494e-05
-2.99123e-05
1.02619e-07
-7.49482e-05
3.284e-07
1.59981e-05
3.02323e-05
-4.0105e-08
7.46492e-05
3.5787e-05
1.266e-05
2.54063e-05
-7.38533e-05
3.73889e-07
-7.26189e-07
3.61393e-05
1.24052e-05
2.67332e-07
-1.87449e-05
7.36432e-05
7.78709e-05
2.91441e-05
-7.35381e-07
-2.93785e-05
9.69734e-07
-1.6406e-05
-2.68738e-05
7.24239e-05
1.74123e-07
-1.73156e-05
-8.08085e-06
8.00956e-06
2.45416e-07
5.30177e-06
-3.06982e-05
-4.96438e-06
-1.38998e-05
-2.90411e-05
-1.3791e-05
1.36612e-07
2.9154e-05
2.49544e-07
-1.88106e-06
1.38646e-08
-4.37083e-06
6.23802e-06
-1.03411e-08
-4.8999e-07
-1.38073e-06
3.63915e-07
-3.60391e-07
1.49466e-06
-1.37583e-06
-6.08819e-07
-6.26315e-07
-2.24986e-06
3.30063e-07
-3.22432e-08
6.60942e-08
-5.45852e-07
5.15525e-07
-5.39161e-07
-1.38252e-06
-1.19772e-06
-5.90084e-07
6.73637e-06
-2.46105e-06
-3.68524e-06
1.02503e-05
-3.67138e-06
-7.16901e-06
-7.89397e-06
-1.15105e-05
2.3809e-06
1.09285e-06
-7.14513e-06
-1.10752e-07
3.06002e-08
-7.56877e-06
-4.35945e-07
-1.79864e-05
-2.42042e-06
-4.20651e-06
-5.59549e-07
7.18648e-06
8.43911e-08
-2.32097e-06
-1.83843e-07
-4.22463e-06
1.02502e-07
8.26854e-06
5.70689e-06
-1.82001e-05
7.60119e-06
7.69855e-07
-3.64376e-06
1.06854e-05
-2.57847e-07
6.45082e-06
5.8534e-06
5.53035e-06
-1.78346e-05
-4.58886e-07
5.77313e-06
1.13658e-06
5.87508e-06
-4.80556e-07
-6.9096e-07
5.2397e-06
1.2244e-06
5.73143e-06
-8.92028e-07
-6.54694e-06
1.76617e-05
-1.29606e-06
-3.19937e-05
-2.96545e-05
-2.45772e-05
8.62253e-05
-1.3563e-05
-4.70111e-05
2.85806e-05
-1.17701e-05
-3.14472e-05
4.72289e-05
-2.09559e-05
-7.32841e-05
-3.48474e-05
5.74994e-05
-2.68236e-05
-1.97938e-05
-7.92265e-05
1.80359e-05
8.23712e-06
-1.87372e-05
-7.53584e-06
-1.43728e-05
-1.56106e-05
4.80193e-05
-1.86413e-05
1.25056e-05
2.50124e-05
1.91033e-05
-6.28529e-05
4.99193e-05
-3.24426e-05
-3.84934e-05
7.28021e-05
-3.80313e-05
-2.92295e-06
-5.37887e-07
-2.95402e-07
3.75624e-06
6.44046e-06
2.69289e-06
-1.20563e-05
3.05423e-06
2.84832e-06
-8.59794e-06
-1.60658e-06
1.32587e-05
4.16124e-06
-9.91089e-06
6.30095e-06
-5.21466e-06
1.01668e-05
-8.48004e-07
3.9634e-08
2.83307e-07
5.25062e-07
2.92926e-07
-1.36515e-08
-1.12728e-06
-1.34757e-06
1.68013e-06
-1.53415e-06
-6.5876e-07
2.17925e-06
-6.74391e-07
-1.98703e-06
-4.28284e-08
-1.97914e-06
-4.18281e-07
1.35711e-07
-6.47934e-08
-1.15604e-07
4.46864e-08
-4.07327e-07
-8.05952e-08
6.23633e-07
-1.14443e-07
-3.57677e-07
-6.04428e-08
-4.13003e-07
3.92851e-07
-4.51422e-07
2.75375e-07
-3.79059e-07
-1.48387e-07
-1.18816e-06
8.92713e-08
2.79772e-07
-1.87562e-07
-1.81481e-07
1.48136e-07
-5.76986e-08
-1.1662e-09
2.44114e-07
1.83795e-07
-2.51135e-07
5.87417e-09
6.02652e-07
-6.09673e-07
7.8528e-07
-3.12962e-05
3.17295e-05
-3.92251e-07
-4.10346e-08
4.74452e-05
2.72947e-05
4.31508e-05
4.17023e-06
7.50045e-05
2.6926e-06
9.89526e-06
1.47069e-05
1.53499e-05
3.04935e-05
-9.93114e-06
2.94513e-05
-4.28108e-07
2.71059e-05
-2.89809e-07
-2.06182e-05
-6.19787e-06
-2.52195e-05
-2.82012e-05
8.05265e-05
-6.98025e-07
-2.48113e-05
-2.63452e-05
2.62228e-05
-5.75651e-07
2.45058e-05
-7.56623e-05
-3.68534e-06
1.70702e-06
2.02234e-07
-1.50574e-05
-0.000260972
9.39884e-05
0.000182041
-0.00016666
6.09399e-05
9.06626e-05
0.000189927
0.000286203
6.09383e-05
2.54484e-06
-2.54323e-06
-2.64744e-05
0.000181401
0.000185959
6.51312e-06
0.000445688
1.82263e-05
1.01265e-05
-1.99086e-05
-8.44412e-06
-2.61917e-06
-3.14002e-05
5.22457e-05
-2.22303e-05
2.97376e-05
9.82878e-06
2.93668e-05
-5.91042e-05
2.16386e-05
-2.0254e-05
1.61803e-05
-2.5942e-05
2.33168e-05
-7.28471e-06
1.70647e-05
-3.34531e-05
2.3673e-05
3.26368e-05
-3.52487e-05
-4.67278e-06
-3.98639e-05
8.95654e-05
3.28402e-05
2.85084e-05
-9.65973e-05
3.19199e-05
-3.75248e-06
6.24331e-06
-1.41873e-05
1.29868e-06
4.97966e-05
0.000103772
5.89735e-06
-0.000159466
2.9246e-05
-1.70394e-05
3.759e-05
4.00077e-05
9.30102e-05
6.50247e-05
-5.33442e-05
-2.872e-05
-4.82158e-06
0.000107436
-8.53719e-05
0.000120558
-0.000132819
-9.80963e-05
-6.01139e-05
-3.46073e-05
0.000192818
7.76782e-07
-0.000133911
3.50382e-05
-7.24593e-05
1.31222e-05
-3.42451e-05
-2.91422e-05
2.878e-05
-3.94861e-05
-0.00012867
0.000115702
1.80304e-05
-0.000206192
9.35968e-05
3.52276e-05
4.01186e-05
-6.15742e-05
0.000104573
5.02197e-05
-6.79645e-05
-3.22669e-05
5.00117e-05
-0.000143829
6.50383e-05
0.00012901
1.73703e-05
-0.000229163
0.000108171
-0.000105399
-1.26748e-05
0.000170857
-0.000140578
0.000192941
-0.000228606
-0.000130074
-6.64804e-05
-6.95228e-05
0.000266077
-3.93054e-06
-0.000136652
1.05091e-05
3.16096e-07
-7.07269e-05
-0.000204544
-0.000120016
0.000255037
-7.84762e-05
-0.00026272
-0.000184943
0.000122719
6.25397e-05
5.12518e-05
-0.000306921
3.19938e-05
-5.92182e-05
3.46965e-05
-0.000120783
-3.70189e-05
9.57074e-05
6.20946e-05
7.86273e-05
3.7741e-06
-0.000203184
-4.45155e-05
8.6124e-05
-3.83814e-05
1.99585e-05
0.00011413
2.60126e-05
-6.06198e-05
0.000184115
-0.000113219
-0.000115411
1.82294e-05
0.000252009
-4.2706e-05
8.0894e-05
-0.000129912
-5.01284e-06
-8.15049e-05
6.4115e-05
2.24027e-05
-6.76493e-05
-4.27829e-06
6.69148e-05
4.74229e-05
-0.000196577
6.22817e-05
-6.46172e-05
-1.94272e-06
-7.39878e-05
-2.6588e-06
-1.45354e-05
-1.25314e-05
7.4137e-06
-8.483e-05
-1.57803e-05
9.31966e-05
-8.67846e-05
9.56869e-05
-1.48854e-06
9.23692e-05
-0.000263984
0.000118724
-9.0058e-05
-4.44464e-05
-8.44139e-05
0.000296335
6.98808e-07
1.05743e-05
3.00999e-06
-7.63381e-05
-1.69747e-05
8.74313e-05
5.88152e-06
0.000111272
2.8239e-05
-0.000215849
0.000148395
-5.40976e-05
-0.000133889
-4.26637e-05
-8.73546e-05
-4.06527e-05
0.000155159
-0.000214274
0.00026089
0.000151177
0.00014798
0.000150762
-0.000449919
3.13138e-07
0.000142666
8.19781e-06
0.000146604
1.68872e-06
-0.000150076
-0.000138498
0.000435177
-0.00014808
-3.06499e-07
8.07784e-06
-5.39624e-06
1.22467e-05
-2.85293e-05
3.91664e-05
2.29173e-05
-3.35545e-05
9.28761e-05
-3.8373e-05
-8.30324e-05
6.85984e-06
0.000125183
-4.73424e-05
3.13874e-05
3.88723e-05
4.45053e-05
-0.000125402
3.61762e-05
-3.00439e-05
7.44235e-05
6.29001e-05
4.29779e-05
2.97286e-05
-0.000135607
2.41137e-05
7.76588e-05
2.60113e-05
4.10804e-05
-8.47675e-05
3.97108e-05
0.000122716
7.2296e-05
-0.000127335
3.16828e-05
6.66245e-05
0.000112474
5.03367e-05
2.03855e-05
-5.80876e-05
-1.26346e-05
-4.18733e-05
-1.52985e-05
0.000107508
-1.46906e-05
-6.79702e-06
8.66894e-05
7.65992e-06
-0.000152437
7.21125e-05
-6.27774e-05
0.000119592
-6.98078e-05
-1.25413e-05
-4.42266e-05
-2.56805e-06
5.9336e-05
-1.99083e-05
-1.00208e-05
1.73878e-05
-4.52674e-05
-1.88672e-05
1.79273e-05
-1.02977e-06
-2.69182e-05
-1.71766e-05
5.2492e-05
2.56265e-05
-7.19235e-05
5.88223e-06
-4.873e-05
4.33114e-05
4.72239e-05
-4.18053e-05
0.000150808
-7.05279e-05
5.3684e-05
0.000140436
-9.81352e-05
4.11884e-05
0.000104171
-1.28854e-05
-0.000127055
-2.41425e-05
1.51752e-06
6.38135e-05
8.59558e-06
-4.56232e-05
3.7681e-05
-9.96131e-05
9.28826e-05
-3.1942e-05
5.01103e-05
-5.63256e-05
3.81573e-05
9.9685e-05
-3.8617e-05
1.86699e-05
0.000131125
9.50062e-05
1.95256e-05
3.39021e-05
9.92613e-05
6.32911e-05
-8.23825e-05
0.000115863
2.14002e-05
-9.2624e-06
-1.9217e-05
7.07922e-06
-4.16483e-05
2.86598e-07
6.2762e-05
-1.6225e-05
-3.46857e-05
3.79205e-05
4.36179e-07
-5.75737e-05
2.17357e-05
2.3264e-05
-3.9124e-05
6.11463e-05
-5.49129e-05
1.23153e-07
-1.2649e-07
-3.66116e-08
3.99485e-08
-1.38239e-07
3.83966e-08
2.22995e-07
-7.33102e-09
-2.57397e-07
8.58502e-08
-8.73744e-08
-3.50874e-08
1.57684e-08
1.08478e-07
-9.67965e-07
-3.11182e-07
1.27182e-06
-5.65588e-08
-1.1688e-06
-1.64188e-07
-1.31226e-07
-3.08121e-07
-9.11822e-08
6.67573e-07
-1.03904e-07
-4.72487e-07
-7.74664e-07
-6.1606e-07
1.29954e-06
2.67765e-07
-3.74856e-07
9.27084e-07
8.88393e-07
-2.43154e-06
1.44891e-06
-6.25725e-07
-1.08341e-06
2.23957e-06
-9.35984e-09
1.61357e-05
1.84173e-06
-1.25965e-05
-5.3809e-06
-3.04511e-06
-7.94095e-06
2.71218e-05
3.32901e-06
-4.5324e-06
1.4609e-06
-2.11377e-07
2.07949e-06
8.72495e-07
-3.944e-06
1.00254e-07
-8.12574e-07
-7.22863e-06
-8.97676e-06
-3.51955e-06
2.18955e-06
-3.2135e-06
-5.91472e-06
2.60571e-07
-1.36025e-06
2.39922e-06
-8.37641e-07
-4.62943e-06
1.06004e-05
2.32749e-05
-1.3353e-05
-2.05224e-05
-1.08885e-05
1.53337e-05
6.1552e-06
1.46346e-05
-2.24825e-06
3.06741e-06
2.62553e-07
1.20038e-05
-5.50541e-06
1.4728e-05
-6.97662e-07
9.82689e-06
-1.37881e-05
-9.42278e-06
-6.65126e-06
-3.70769e-06
1.97817e-05
-2.46616e-07
-1.05689e-05
1.3927e-06
-4.54365e-08
-6.85246e-06
1.34629e-05
-3.62995e-06
-2.04019e-05
-1.02352e-05
1.99905e-05
-1.02837e-05
3.02878e-09
-2.07662e-05
6.33034e-05
1.6578e-06
-6.26205e-05
-2.3407e-06
-4.19929e-05
-1.64009e-05
0.000121697
-4.17223e-05
1.38721e-06
1.68445e-05
-2.10409e-05
-5.84241e-05
-1.66651e-05
1.71086e-05
4.79511e-05
7.50597e-06
-9.71793e-05
4.21489e-05
7.18938e-06
-1.44828e-05
3.99667e-05
-2.80178e-05
1.89966e-06
-3.93797e-06
3.66835e-06
-1.63004e-06
-7.27577e-06
3.62082e-06
5.5546e-06
1.76775e-06
-1.29815e-05
-5.32107e-06
-3.24584e-06
1.22352e-05
-3.90398e-06
-3.04714e-06
-1.83682e-06
2.21178e-06
-3.97306e-06
1.15403e-05
9.11108e-06
4.3594e-07
-2.10873e-05
8.86221e-07
5.64589e-06
5.00815e-06
-1.01673e-06
1.1014e-05
-1.15403e-05
7.70937e-06
9.47685e-06
1.59758e-06
-8.12976e-06
2.30178e-05
-2.24369e-05
3.11631e-05
3.01641e-06
6.74292e-06
-2.21127e-05
1.23534e-05
-9.86333e-06
1.41051e-05
-1.22535e-06
-2.42077e-05
1.0958e-05
-4.56794e-06
7.71498e-06
-2.03078e-05
3.00405e-05
1.76142e-05
1.11861e-05
-3.33683e-05
7.17316e-06
-9.86675e-06
5.16669e-06
-2.22012e-05
-5.75991e-06
-2.26082e-06
1.14501e-05
-3.30428e-06
-5.88495e-06
1.04256e-06
-2.80878e-06
-4.94599e-07
-1.61943e-09
1.24942e-05
-9.79676e-07
1.16767e-06
-3.49228e-06
1.74729e-06
-5.53575e-06
5.64214e-06
-7.84709e-06
2.20333e-06
-4.55983e-06
2.26962e-05
2.77271e-07
-3.08982e-06
-6.40215e-06
-2.79927e-08
2.7804e-08
-8.16794e-08
8.18682e-08
-2.31665e-08
9.44892e-08
-9.93154e-08
1.1035e-07
-1.05712e-07
-1.20512e-07
-2.48496e-08
2.39851e-07
-3.66521e-07
1.6433e-07
-5.41125e-07
6.26625e-07
-1.01336e-06
1.43637e-07
1.68558e-07
-3.47283e-07
-2.96818e-08
1.30869e-07
4.24503e-08
1.78825e-07
-1.32111e-08
4.15031e-07
2.26136e-07
2.6653e-07
-1.37582e-07
-2.60174e-07
-1.55987e-07
6.48653e-07
-2.51119e-07
-9.06523e-07
4.95385e-08
1.32408e-06
-8.46397e-07
-5.27223e-07
1.06548e-06
-8.41497e-07
-1.7444e-07
8.2815e-07
1.56141e-06
1.74266e-06
-2.78961e-07
-6.35547e-07
8.77158e-08
3.21635e-06
2.34601e-06
-3.46647e-06
1.58733e-06
-9.09487e-07
-1.73653e-06
-1.52045e-06
4.16647e-06
-3.25246e-06
-1.0475e-05
1.2818e-05
-1.65007e-06
-3.33893e-06
-2.14159e-06
-2.37726e-06
2.86878e-06
-4.89938e-06
-5.8114e-07
5.35362e-06
-1.82059e-05
-1.06621e-06
-5.28615e-06
-1.94057e-05
1.07152e-05
1.39767e-05
-1.04118e-05
1.23622e-05
-7.23661e-06
-4.97767e-06
-2.48398e-05
-2.63784e-05
-1.03878e-06
3.97794e-05
-1.83249e-05
-1.52901e-05
-7.57176e-06
-2.40826e-06
8.94123e-06
-2.14908e-06
-2.37476e-05
5.13029e-06
-1.22571e-05
1.34372e-05
4.0938e-06
3.01625e-06
-1.25264e-06
-5.85741e-06
-1.80322e-06
-4.16748e-08
5.93868e-06
3.31559e-06
-2.10257e-06
-2.39283e-06
7.92404e-07
4.91601e-06
-3.48934e-06
-1.00608e-06
-8.71317e-07
1.62202e-06
-5.61332e-06
-2.7691e-06
-9.36324e-06
8.56651e-07
1.12757e-05
-3.26217e-06
3.5005e-06
-3.00744e-06
-7.16742e-06
-5.45801e-06
-5.44151e-06
3.1219e-06
5.8201e-06
-6.11182e-08
-8.38784e-06
-2.69231e-06
7.58009e-07
5.0562e-06
1.53315e-06
-4.28658e-06
3.035e-06
-8.66927e-06
4.64964e-06
2.87336e-05
1.31735e-06
-2.89864e-05
-1.06455e-06
-3.06511e-05
-3.1537e-05
9.09216e-05
-3.27511e-05
3.41733e-06
2.73455e-05
3.50303e-05
-9.13622e-05
3.21811e-05
-5.90014e-06
3.10973e-06
-2.46562e-06
5.38893e-06
1.28311e-06
-4.00768e-05
-1.66275e-06
4.04565e-05
-4.16606e-05
3.93682e-05
3.57549e-06
3.78772e-05
-0.000119615
4.34632e-05
-3.98967e-05
-5.2293e-06
-3.85437e-05
0.000122463
-3.05303e-06
3.87759e-06
-5.07252e-06
-2.88463e-06
5.28456e-05
-5.40538e-05
4.09281e-06
8.41298e-05
-8.10593e-05
-5.95511e-06
-2.48847e-05
0.00016186
8.76244e-05
1.87561e-05
-0.000160434
7.30792e-05
1.86379e-05
0.000110722
-0.000173025
0.000158916
6.75578e-05
4.35146e-05
2.60158e-05
-0.000137088
-9.13577e-08
6.66163e-05
1.03292e-06
2.27687e-06
4.11464e-05
-8.82406e-05
2.38159e-05
0.000131041
6.96716e-05
-0.000131896
6.04059e-05
1.15426e-05
0.000125368
-4.32984e-06
3.76019e-05
4.15283e-06
-3.74249e-05
6.17561e-05
-5.1385e-05
-1.47009e-05
-1.43068e-05
0.000113665
-6.19958e-05
5.10547e-05
1.50938e-05
1.25318e-05
-0.000111953
7.56277e-05
-0.000114481
0.000112376
5.57147e-05
3.7253e-06
-4.67156e-05
-1.27244e-05
-3.74766e-05
-5.67593e-06
9.88672e-05
3.14989e-06
-3.69012e-05
1.58548e-05
-1.18838e-05
-5.06866e-05
-1.21521e-05
2.23309e-05
-5.48694e-05
4.6116e-05
1.19032e-05
3.87074e-06
-9.56414e-05
-1.59205e-05
4.98844e-05
-2.39336e-05
5.08503e-05
1.55032e-06
-4.39809e-05
-8.41976e-06
-3.18309e-05
-1.3504e-05
9.61852e-05
1.1794e-06
-3.146e-05
-4.96867e-05
4.61057e-05
4.76034e-06
1.30415e-05
-9.41881e-05
-6.42649e-05
9.68666e-05
-9.52043e-05
-1.95631e-05
-1.26749e-06
2.74234e-07
2.05564e-05
3.81867e-05
3.93082e-05
-9.7058e-05
3.92828e-05
-2.36367e-06
1.06532e-05
-1.06918e-05
3.12775e-07
-6.97612e-06
3.81857e-05
6.79638e-06
2.182e-05
3.91031e-05
8.0341e-07
3.11999e-05
-2.46737e-07
-3.17565e-05
3.32359e-05
-3.19694e-05
-4.63067e-07
-3.35976e-05
9.80333e-05
-3.3691e-05
3.10805e-05
3.06692e-05
-9.61167e-05
3.04649e-06
-4.34673e-06
5.29407e-07
-2.46225e-07
-2.37612e-05
-2.81185e-08
2.40355e-05
-4.0274e-05
3.94501e-05
5.77609e-07
3.66358e-05
-0.000100671
1.01103e-05
-1.03617e-05
2.23288e-07
-7.01339e-06
4.11592e-05
-7.11073e-06
3.95475e-05
1.91633e-05
1.13143e-05
2.47177e-05
7.30973e-06
-4.33418e-05
2.78738e-07
1.09013e-05
1.34322e-07
2.43941e-05
6.0232e-07
7.06914e-06
4.0268e-05
-4.00274e-05
3.54472e-05
-1.74767e-05
-4.08297e-05
4.0622e-08
-1.78184e-05
-3.95297e-05
9.85074e-05
1.56818e-06
1.58596e-06
5.55957e-07
-3.98226e-05
-7.60835e-07
-1.67865e-05
-9.99509e-05
-1.93815e-05
-2.45834e-05
-5.10598e-06
4.90708e-05
-1.49122e-06
-1.76642e-05
-2.2607e-07
-1.90146e-06
-2.41732e-05
2.66516e-05
-2.85604e-05
-1.57553e-05
-4.27758e-05
6.43214e-05
-4.19946e-05
-2.68267e-06
-9.47282e-05
9.69223e-07
2.44728e-05
-2.45293e-05
-9.12752e-07
1.03524e-05
-1.06745e-05
1.29138e-06
-1.38614e-05
4.86866e-05
3.54441e-05
3.72337e-05
-9.72071e-05
3.46695e-05
-1.38139e-07
-5.0528e-06
3.1612e-05
3.23301e-05
-3.25277e-05
1.48899e-06
-1.1418e-06
-2.91198e-05
-3.27646e-07
2.9436e-05
1.14973e-08
4.22848e-05
2.46622e-05
-9.60669e-05
4.20524e-05
-9.52108e-08
-1.19761e-05
-1.54499e-06
4.2957e-05
-1.15529e-05
-4.11721e-07
-4.32099e-06
-1.33229e-05
1.60988e-05
-2.09213e-05
5.04742e-06
1.95905e-05
-1.58496e-05
4.83201e-05
-5.54301e-05
-5.3958e-05
-4.07993e-05
7.36791e-06
-4.66991e-05
-1.39264e-05
-3.26636e-05
-3.96366e-05
-1.57442e-06
-4.85156e-05
-3.2902e-05
-8.23384e-07
1.06177e-06
4.83389e-05
-9.70906e-05
-1.00008e-06
-2.8408e-06
3.63347e-05
-1.29522e-05
-2.05417e-05
5.34542e-05
-1.92811e-05
-3.70139e-05
-6.04707e-05
-4.12032e-05
-1.15606e-05
-2.45335e-07
-1.1463e-06
5.15859e-06
-3.60003e-05
4.04686e-05
-9.57807e-05
-9.79977e-07
-3.67833e-06
-4.08847e-05
5.90905e-06
3.8654e-05
-5.03619e-05
5.68079e-05
-1.01243e-05
2.08895e-05
-0.000112136
4.24719e-05
-5.99247e-05
2.33619e-05
-2.11058e-05
0.000102232
1.34183e-05
-1.88179e-05
-5.45251e-05
-1.77203e-05
1.00328e-05
-1.44028e-05
5.34904e-05
-1.23312e-05
-3.30622e-05
1.12064e-05
4.99875e-05
-2.81317e-05
4.44533e-05
6.51891e-05
-0.000142705
1.44225e-05
4.12373e-05
1.63308e-05
-4.78581e-05
4.59499e-05
-5.7923e-05
0.000115491
-2.56253e-05
4.29562e-05
-3.35606e-05
3.37572e-05
-2.07347e-05
-4.08053e-05
2.77828e-05
-7.08701e-05
-9.54845e-08
0.000104723
-4.56549e-05
8.85142e-05
3.73679e-07
-0.000129693
3.28552e-05
8.3442e-05
-7.86931e-05
0.000111453
-0.000123974
5.35954e-05
7.15236e-05
4.10051e-05
-0.000166124
-9.36131e-06
1.43988e-05
4.8558e-05
8.64266e-05
-2.42643e-05
5.24036e-05
-0.000104665
6.66605e-05
-4.41359e-05
0.000145097
-0.000103848
0.000146139
-0.000167509
-2.91011e-05
-3.8473e-05
3.54755e-05
3.20987e-05
-4.2184e-05
-8.653e-05
-0.00012628
-1.55794e-05
0.000114869
0.000109402
-5.95804e-05
-3.32786e-05
-3.23557e-05
0.000125215
1.58952e-06
-0.00011634
5.51701e-05
-3.99344e-05
8.24565e-06
3.59415e-05
4.75168e-05
-0.000123393
6.10325e-05
-1.68452e-05
0.000107799
-0.000176622
0.000136477
-2.63672e-05
-9.18038e-05
-0.000148596
0.000266767
-5.45723e-05
-0.000111136
0.000139341
-6.00454e-05
-8.63307e-05
1.21037e-05
0.000111261
-0.00018341
0.000176884
-0.000251111
-9.62551e-05
0.000162003
-0.000133591
6.729e-05
-6.74349e-05
-0.000231528
0.000231673
-8.42932e-05
-0.000110815
0.000262398
-0.0001049
-4.68278e-05
8.25949e-05
0.00011963
-0.000307125
0.000172604
-0.000136837
-0.00019206
0.00025385
-0.000303958
7.02042e-06
1.7368e-05
-8.75005e-07
-2.35135e-05
7.64695e-06
-6.41517e-06
5.78864e-06
5.03435e-06
1.99806e-05
1.58975e-05
-7.02914e-06
-1.52836e-05
2.59192e-06
1.90942e-05
-1.73629e-05
2.49891e-05
-2.5267e-05
7.09428e-06
-4.26887e-06
-6.46098e-06
3.63557e-06
-1.44331e-05
3.4023e-06
1.8125e-05
-6.20174e-06
-1.25002e-05
1.30318e-05
-2.56477e-06
-1.6928e-05
7.7693e-06
8.89801e-06
3.6245e-06
5.98198e-07
-6.78747e-06
9.63428e-07
1.04304e-05
-3.7446e-06
8.11031e-06
-9.34816e-06
-3.62907e-06
3.13917e-06
9.43363e-06
-8.94374e-06
5.12694e-06
4.74838e-06
-1.35044e-05
2.78016e-06
5.48594e-06
9.75198e-06
1.0359e-05
-1.53626e-05
5.30589e-06
1.38797e-05
5.84374e-06
7.29536e-06
1.66356e-05
7.51175e-06
6.74019e-06
6.44072e-06
-2.06927e-05
-3.77924e-07
6.8857e-06
1.00396e-06
-2.24783e-07
6.58704e-06
6.40533e-06
-6.45075e-06
-1.79374e-07
-6.4781e-06
1.94704e-05
-3.91704e-07
7.993e-07
-4.01758e-07
6.082e-06
-8.44353e-07
-6.62688e-06
1.38923e-06
-6.1954e-06
-7.51212e-06
1.97895e-05
-6.34241e-06
-6.97354e-07
6.94994e-08
-7.41093e-06
7.14551e-07
-6.72278e-06
-7.19859e-07
6.22938e-06
-1.99827e-05
-1.19077e-06
7.20399e-06
6.32453e-06
5.50815e-06
-1.90367e-05
-3.49668e-07
6.18527e-06
1.36838e-06
6.22566e-06
-2.50812e-07
-6.59805e-06
-5.93658e-06
1.87603e-05
-5.94174e-06
-9.07137e-07
9.8673e-07
-1.42033e-06
1.23539e-06
5.38433e-06
-3.0042e-07
-4.98184e-06
-1.02065e-07
-4.98748e-06
-5.66359e-06
1.60354e-05
-4.83553e-06
-4.52379e-07
3.56245e-07
-4.2935e-06
-1.0446e-06
-4.66668e-06
-6.40687e-07
3.88216e-06
-1.30112e-05
-1.23692e-06
-6.68371e-07
5.77386e-07
5.25616e-06
-5.16518e-06
1.96849e-06
2.43902e-06
-5.07589e-06
-2.69702e-07
2.81557e-06
1.06674e-05
-7.33442e-06
-3.60266e-06
-2.68105e-06
1.6164e-05
5.98589e-06
3.86693e-06
-7.41381e-06
2.52713e-06
8.7149e-06
2.82094e-06
-6.28844e-06
2.66701e-06
-1.18793e-05
-6.95721e-06
-4.30888e-06
2.31454e-05
7.13931e-07
-1.61959e-05
-6.41808e-06
1.74786e-07
2.55693e-06
-7.15989e-07
-8.25903e-06
2.87971e-06
-1.48001e-07
2.96954e-06
4.12629e-06
-7.81183e-06
9.24313e-06
-3.39388e-06
1.67045e-05
-2.87741e-05
2.16387e-05
4.63136e-06
-2.71181e-07
6.04626e-06
-1.04064e-05
5.54924e-07
5.82575e-06
-1.74932e-06
-1.74476e-06
2.0285e-06
6.17845e-06
-7.57215e-06
-3.51073e-07
-1.45776e-06
9.6647e-06
2.01123e-06
8.87171e-06
-4.83669e-06
8.77684e-06
-9.39884e-07
-1.3485e-05
2.08989e-05
-1.22803e-05
-4.27623e-06
-6.55982e-06
2.05007e-05
-5.94235e-06
1.31503e-06
5.3066e-06
2.66819e-06
-1.39171e-05
5.86398e-06
7.57646e-07
4.31845e-06
-1.39306e-05
1.98355e-05
-9.65311e-06
3.41746e-05
1.09761e-05
7.48746e-06
-3.52085e-07
-1.81115e-05
2.35684e-06
5.09973e-06
3.23037e-06
6.61392e-06
1.14225e-05
-3.09244e-06
-1.96467e-05
3.76831e-05
-2.30912e-05
1.38459e-06
5.30474e-06
-1.93858e-06
-4.75075e-06
4.55399e-06
4.00558e-07
-3.56996e-06
-7.08471e-07
-2.10447e-06
-5.67578e-07
4.98307e-06
3.47445e-06
-9.77156e-06
1.31404e-06
-7.21819e-08
-2.8313e-05
5.3654e-06
-1.96314e-06
-7.36296e-06
-2.0528e-07
-8.18252e-06
-2.74935e-05
-8.14253e-06
1.33026e-05
-1.82882e-05
2.30032e-06
-9.29934e-06
4.45244e-06
-5.72209e-06
-4.88068e-06
2.69988e-06
-7.16705e-06
1.2376e-05
1.21789e-05
2.43704e-05
2.27612e-05
-5.31275e-06
7.81459e-06
-8.26175e-06
-1.28383e-06
-3.79031e-06
-2.38608e-07
6.49443e-06
3.63284e-08
1.9439e-06
-4.97243e-06
-5.23322e-06
-7.73136e-06
6.80856e-07
-1.91778e-06
-4.25525e-06
9.90293e-06
4.17765e-06
-1.71704e-05
4.64135e-06
-2.74176e-07
2.51853e-06
6.30047e-06
-1.21236e-06
1.1692e-06
-1.32647e-06
1.42909e-06
-1.6253e-06
2.52276e-07
2.54222e-06
-1.87376e-06
-1.07801e-06
1.53112e-06
4.88087e-07
-3.89297e-06
1.7894e-07
3.44422e-06
-3.01301e-06
5.36139e-06
1.86975e-07
5.92235e-08
-3.74939e-07
8.01765e-07
5.9696e-07
-1.90395e-07
-1.47269e-06
1.06612e-06
-3.52086e-07
-6.83744e-07
1.63279e-06
-1.49049e-07
-3.93432e-07
-3.99668e-07
2.06905e-07
4.3714e-08
1.28706e-08
-8.05971e-07
-9.803e-07
5.03461e-07
-2.44012e-06
-8.66327e-08
-2.21022e-07
-7.54382e-08
3.83093e-07
-4.75994e-08
-9.6018e-08
5.69848e-08
-1.16097e-07
-1.52524e-07
-3.81958e-08
-1.04331e-07
6.70885e-08
-3.78476e-07
2.44262e-07
7.83116e-07
-4.4277e-07
-4.56443e-07
-1.66049e-06
2.29108e-06
-3.40369e-07
-4.80877e-07
-2.10519e-06
-1.75155e-07
-4.5511e-07
1.26093e-07
-2.61929e-07
1.6773e-07
-8.39218e-08
-1.36101e-07
5.22934e-08
-4.26261e-07
-7.0324e-08
6.64315e-07
-4.21189e-08
-4.68063e-07
2.1242e-07
-7.55082e-07
4.06561e-07
-4.68499e-07
6.10596e-07
-5.61895e-07
1.84412e-07
3.35364e-07
6.79472e-08
-1.0979e-06
1.02996e-06
-1.71709e-06
7.45873e-07
-1.3724e-07
-2.62732e-07
-4.04917e-08
4.40464e-07
-2.72395e-08
-2.63918e-07
1.53918e-07
-2.46257e-07
3.07003e-07
-9.02304e-07
3.31382e-07
7.69973e-07
3.26407e-07
-1.37863e-06
-3.01601e-06
-2.39104e-07
1.98692e-07
2.46197e-07
1.21486e-06
2.97305e-07
2.72194e-08
-4.46763e-07
1.22239e-07
-8.23361e-07
-1.05162e-07
1.22583e-06
1.05056e-07
-9.01197e-07
4.08437e-07
-1.85671e-06
1.00151e-06
-9.39209e-07
1.24249e-06
-2.5106e-06
1.67645e-06
-5.26851e-06
-1.83878e-06
-7.52221e-07
-4.25012e-07
-1.61251e-07
-8.83184e-07
-7.94344e-07
-5.78106e-07
1.03489e-06
-2.7109e-06
1.65419e-06
-2.33639e-06
-6.76e-07
1.44701e-06
-3.55137e-07
1.26111e-06
9.62646e-07
-3.84571e-07
-1.83918e-06
5.90689e-07
-4.60056e-07
1.13047e-06
-3.49664e-07
1.903e-06
5.16613e-07
-1.77101e-06
3.36002e-07
1.31109e-06
1.71923e-07
-1.85584e-07
-1.98366e-06
-4.44901e-07
-2.37583e-07
-1.61301e-06
2.2955e-06
5.54044e-07
-5.22663e-06
4.22769e-06
1.64006e-07
1.52456e-07
-7.8051e-07
2.08659e-06
-1.14208e-06
2.05665e-06
-2.68471e-06
5.65826e-07
-3.70586e-06
1.00947e-06
3.14516e-05
-7.18068e-07
-2.10702e-05
-9.66335e-06
-2.2202e-05
-8.46224e-06
6.21158e-05
-2.03963e-05
-2.52368e-06
3.55737e-05
-8.21961e-06
-4.84242e-05
-3.00578e-05
5.71693e-05
2.92129e-05
-5.78289e-05
-3.36856e-06
1.70337e-05
3.24177e-05
1.51165e-06
-5.0963e-05
1.11184e-05
-1.24319e-05
1.83472e-05
1.01706e-05
3.33655e-05
3.33952e-05
-1.47746e-05
-3.10524e-05
3.82934e-06
4.7913e-05
-1.71455e-05
3.11454e-05
-3.04084e-05
-1.46072e-05
-2.17344e-05
-2.85569e-05
6.48984e-05
-3.70783e-06
-2.40626e-05
1.31632e-05
-4.05073e-06
-2.13915e-05
-6.8665e-06
-3.00966e-05
1.29005e-05
-2.60961e-05
-9.32729e-06
-1.69919e-05
-1.3155e-05
-6.84799e-05
-1.24946e-05
8.27832e-06
-4.61746e-05
5.03909e-05
1.60303e-05
-1.97907e-05
-8.73417e-06
-2.45618e-05
4.88703e-05
1.42647e-05
3.5907e-05
-6.99624e-05
4.09756e-05
-3.5445e-05
5.50703e-06
1.95253e-05
1.08746e-05
1.52621e-05
3.12205e-05
-4.68793e-06
-4.61181e-06
-3.13373e-05
-2.72815e-05
-1.90707e-05
1.18922e-06
4.5163e-05
6.23016e-06
-2.05155e-05
-1.29962e-05
-2.17009e-05
8.86027e-06
4.7394e-05
-1.87041e-05
2.75128e-05
2.87414e-05
1.41459e-05
1.80623e-06
-3.46562e-05
4.3119e-06
3.73468e-05
1.0387e-05
-2.90963e-05
1.5888e-05
3.96139e-06
1.05747e-05
7.09897e-06
-2.16351e-05
1.13751e-06
9.65742e-06
-6.83357e-06
6.45196e-06
5.26024e-06
5.64777e-06
1.39371e-05
-1.24859e-05
4.61506e-06
1.06901e-05
1.81208e-06
1.85769e-05
1.16873e-05
2.8838e-05
4.91877e-05
7.12181e-06
-8.51475e-05
1.3319e-06
-4.62819e-06
3.21343e-05
4.25897e-05
7.92985e-06
5.96808e-05
-4.18515e-05
-2.24575e-05
-1.04568e-05
0.000102272
-6.44644e-05
-9.9194e-05
-1.9733e-05
-3.04309e-05
-3.25194e-05
8.26833e-05
-2.09407e-05
-5.51954e-05
5.64032e-05
-3.51244e-05
-1.62473e-05
-5.87146e-05
-7.40586e-05
0.000100254
-3.96186e-05
-7.42915e-05
4.62501e-05
-0.000120993
-4.40558e-05
0.000137471
7.61514e-05
-0.000275196
-1.43842e-05
2.31846e-05
-1.09549e-07
6.18769e-05
8.20063e-05
0.000172663
-1.1983e-05
2.31178e-05
9.90012e-06
-2.10349e-05
6.61389e-05
-2.70871e-05
-5.10348e-05
-1.13357e-05
0.000100592
-2.59355e-05
1.51367e-05
2.06988e-05
-5.58618e-06
-4.13843e-05
3.95203e-05
-7.21936e-05
4.33212e-05
-3.12268e-05
-5.71556e-05
-4.62275e-06
9.30051e-05
-8.46713e-06
6.97326e-06
-2.9733e-05
-3.10444e-05
-3.45783e-05
-5.40922e-05
3.6976e-05
2.40894e-05
4.45254e-06
-8.82777e-05
5.97566e-05
-8.63486e-05
9.21098e-05
-2.81158e-05
-1.35162e-06
2.25819e-05
6.88553e-06
2.46191e-05
1.9021e-05
-7.17559e-05
2.49881e-05
-1.72066e-06
6.62123e-06
2.29783e-05
-1.05785e-05
2.2319e-05
6.88408e-06
-3.06872e-05
7.79943e-05
-9.42959e-06
-1.62673e-05
-1.98989e-06
7.7064e-07
1.74866e-05
3.11734e-05
3.13764e-05
-7.88171e-05
3.22022e-05
-3.01869e-06
8.53368e-06
-8.44567e-06
6.82627e-07
-5.99488e-06
3.20151e-05
5.48981e-06
1.74409e-05
3.16971e-05
-3.85888e-07
2.73688e-05
-2.71607e-05
1.77803e-07
3.11875e-05
-2.60537e-05
-5.51967e-06
-2.69231e-05
8.54793e-05
2.79504e-05
2.33367e-05
-7.84478e-05
2.51095e-05
4.45689e-06
-7.17391e-06
2.64334e-06
-1.39882e-05
-3.97545e-05
-3.55979e-05
8.93406e-05
9.17254e-07
1.16616e-07
-1.50221e-05
-3.92582e-05
4.21016e-07
-1.89564e-05
1.82495e-05
8.23549e-07
8.80488e-06
-4.27834e-05
2.77279e-05
-5.81813e-05
3.25467e-05
1.34308e-05
-2.63028e-06
2.81287e-05
1.35669e-05
-8.44791e-05
2.88711e-05
8.11722e-08
-4.68294e-05
8.91313e-05
-4.0865e-05
-5.88329e-06
4.05122e-05
-2.84219e-06
2.42487e-06
-4.00949e-05
-2.26498e-05
-3.3896e-05
-3.70396e-06
-2.1788e-05
-4.60054e-05
4.94935e-05
-7.19206e-06
2.40884e-05
-9.18818e-05
-3.04689e-05
-1.00226e-06
7.33341e-05
9.23587e-05
-9.75104e-07
4.06075e-05
2.11576e-05
-1.53524e-08
-3.39335e-05
3.06296e-05
3.3192e-06
-3.24636e-05
3.19214e-05
5.26861e-07
2.95142e-05
-9.59113e-05
-3.28266e-05
-3.11542e-05
9.59021e-05
-3.1112e-05
-1.18769e-06
3.39927e-06
-4.99713e-06
2.87468e-06
-3.19344e-05
-3.18328e-05
-3.22997e-05
-7.6064e-07
-3.1573e-05
3.99234e-07
-6.87439e-07
-3.1906e-05
-3.16329e-05
3.18289e-05
-8.83385e-07
3.18695e-05
-9.54084e-05
3.54779e-07
-5.83172e-08
-1.16039e-07
1.10629e-06
3.16878e-05
-4.73248e-07
-3.23208e-05
3.30677e-05
-3.23807e-05
4.19283e-07
-3.27254e-05
9.74809e-05
-3.38451e-05
3.24073e-05
9.64632e-07
3.28561e-05
-9.90221e-05
2.29567e-06
-1.8203e-06
1.97753e-06
-9.6121e-07
-2.07268e-05
-3.95496e-05
-9.62766e-05
1.34949e-06
-3.10087e-05
3.33282e-05
-3.669e-06
-3.22471e-05
3.1761e-05
1.83557e-06
3.53579e-05
-9.86137e-05
-2.89884e-05
-3.34808e-05
9.42301e-05
-3.20761e-05
4.92334e-06
-2.62678e-06
5.90858e-06
-2.77932e-06
2.37883e-07
2.98396e-05
-3.05564e-05
4.78911e-07
4.53599e-05
-4.6102e-05
-4.2797e-05
-5.92257e-05
1.61267e-05
-9.2785e-05
-4.55097e-05
3.19157e-06
-8.86087e-05
5.5824e-05
4.09445e-05
-1.11382e-05
-8.56303e-05
-4.20025e-05
-3.82027e-05
-2.66489e-05
2.13351e-06
-2.96247e-06
-4.51038e-05
9.86357e-06
-2.74778e-05
-8.37199e-05
-3.4807e-06
2.73815e-05
-8.85497e-06
-1.50458e-05
4.44433e-05
-1.40879e-05
-3.38361e-05
-4.74554e-05
-2.85011e-05
-1.10072e-05
4.2902e-06
-2.13795e-06
1.08544e-05
-3.59495e-05
4.00588e-05
-7.66597e-05
1.58479e-05
-1.19963e-05
-1.2801e-05
-1.38059e-06
2.61779e-05
5.39065e-06
-9.49539e-06
-7.89156e-06
-1.37242e-05
6.31379e-06
-1.45903e-05
-1.70426e-05
3.02523e-05
-9.73742e-06
-1.43482e-05
3.5008e-05
-5.84696e-05
2.42791e-05
-1.46458e-05
6.14512e-06
4.68521e-05
-3.83514e-05
1.50232e-05
4.80587e-05
-7.77277e-05
6.84143e-06
1.4327e-05
1.57636e-05
-4.96668e-05
4.07446e-05
-3.36643e-05
6.37549e-05
2.86188e-05
4.93416e-05
-3.11083e-05
3.48416e-05
4.1836e-05
5.03813e-05
-6.52064e-05
6.60587e-05
-3.66932e-05
-8.72092e-05
1.90832e-05
0.000104819
-3.23069e-05
2.5654e-05
-3.00403e-05
-3.56052e-07
-0.00011916
-7.73047e-05
1.6848e-05
8.61108e-05
-2.3903e-05
5.62668e-05
-8.05258e-05
9.2198e-05
-2.55426e-05
-4.39066e-05
-3.5785e-07
-4.85191e-06
5.07669e-06
-2.57673e-05
9.27986e-06
-5.80383e-05
-8.75184e-05
7.80599e-05
-1.17042e-06
-0.000112115
-7.47341e-05
3.4561e-05
8.4174e-05
-8.49119e-05
-3.3823e-05
6.44412e-05
8.42502e-05
0.000229509
9.35525e-05
-0.000239084
-7.01824e-05
0.000125832
-3.76181e-05
-0.000158396
-0.000122541
-8.98298e-05
0.000338203
-4.25825e-05
-0.000117576
-0.000153598
0.000238318
-0.000127302
8.05104e-05
-0.000351685
-0.000218449
0.000366938
0.000108597
-6.59435e-05
-0.000121132
7.84785e-05
-0.000251526
5.29975e-05
-0.000163903
-0.000153567
0.000257031
-3.66846e-05
-0.000341478
0.000150873
0.000184637
7.71133e-05
3.08766e-05
-0.000144675
2.34123e-05
0.000204574
-7.52235e-05
0.000151633
-0.00020825
5.24989e-06
3.10356e-06
-6.30145e-06