/*--------------------------------*- C++ -*----------------------------------*\
| =========                 |                                                 |
| \\      /  F ield         | OpenFOAM: The Open Source CFD Toolbox           |
|  \\    /   O peration     | Version:  v2012                                 |
|   \\  /    A nd           | Website:  www.openfoam.com                      |
|    \\/     M anipulation  |                                                 |
\*---------------------------------------------------------------------------*/
FoamFile
{
    version     2.0;
    format      ascii;
    class       volVectorField;
    location    "0.2";
    object      U;
}
// * * * * * * * * * * * * * * * * * * * * * * * * * * * * * * * * * * * * * //

dimensions      [0 1 -1 0 0 0 0];


internalField   nonuniform List<vector> 
6576
(
(0.0337098 -1.48136 -0.0669475)
(-0.0935261 -1.53559 0.079004)
(-0.033528 -1.56734 0.0123961)
(0.0445881 -1.451 -0.0623578)
(-0.0049539 -1.50724 0.00543293)
(-0.0811736 -1.59843 0.0799504)
(-0.0174209 -1.54724 0.0322209)
(0.0154588 -1.49785 0.00230205)
(0.0177021 -1.24831 -0.00997433)
(0.0176125 -1.45888 0.000583564)
(-0.0115706 -1.51241 -0.0163682)
(-0.0171109 -1.55363 -0.0113285)
(-0.00213396 -1.55163 0.00627958)
(0.00740616 -1.48794 -0.000389562)
(0.0606513 -1.45601 0.022919)
(0.00836935 -1.82188 -0.0338517)
(0.0672619 -0.860506 0.0340867)
(0.0168601 -1.71912 -0.0168577)
(0.0561936 -1.56174 0.063797)
(0.0176421 -1.48035 0.00346924)
(0.0487864 -1.37611 0.0500522)
(0.0019159 -1.52984 0.0145321)
(0.0103504 -1.4678 0.00844275)
(-0.00487005 -1.50004 -0.0123041)
(0.00171148 -1.5974 0.0191598)
(0.0540574 -1.52995 0.0564014)
(0.0637857 -1.49427 0.0666028)
(0.000436303 -1.45704 0.0141678)
(-0.00593546 -1.57984 -0.0317691)
(0.00656621 -0.962495 -0.00841574)
(-0.0546973 -1.57624 0.0639419)
(-0.0277607 -1.45655 -0.0096619)
(-0.0120984 -1.55532 0.000145313)
(0.012378 -1.45734 0.0317111)
(0.0168691 -1.46616 0.0350876)
(-0.0191072 -1.25665 0.00998118)
(0.00222297 -1.64159 0.01186)
(-0.0144319 -1.56903 0.0104521)
(0.0182969 -1.47957 0.0249057)
(0.0106043 -1.47736 0.0188489)
(0.00226726 -1.31158 0.0321009)
(-0.0175007 -1.47683 0.00627821)
(-0.00105866 -1.40633 0.0061863)
(-0.129776 -0.0767397 -0.176965)
(-0.0527448 0.0455171 -0.0313035)
(0.00637239 0.0144671 -0.0256179)
(0.0828521 0.0401381 -0.0130984)
(-0.176353 -0.165417 -0.228267)
(0.0247957 0.0223472 0.044352)
(-0.055718 -0.036467 0.0561521)
(-0.044208 0.0473336 -0.0272061)
(0.00603312 0.057746 0.0093907)
(0.000834795 0.347534 0.000323657)
(-0.00185655 0.345191 0.00789566)
(-0.00367996 0.3433 0.00608176)
(-0.00269065 0.344698 0.00902735)
(-0.00025125 0.34296 0.0063803)
(-0.00181563 0.337027 0.00757273)
(-0.0074408 0.346663 0.00965578)
(0.000312774 0.340165 0.00302574)
(-0.000588914 0.335213 0.00994936)
(-0.000341764 0.342985 0.00225461)
(-0.00302544 0.346451 0.0201199)
(-0.000418302 0.34475 0.0146204)
(-0.00124686 0.341404 0.0129153)
(-0.00127637 0.339228 0.0146292)
(-0.00471727 0.336197 0.0152431)
(-0.00423862 0.334628 0.0221439)
(-0.000872653 0.333871 0.0234555)
(-0.0048818 0.331996 0.0232002)
(-0.00170323 0.332762 0.0186521)
(0.00108427 0.332292 0.0232187)
(0.00497536 0.333829 0.019338)
(-0.00601821 -1.6399 0.720971)
(-0.0922639 -1.63185 0.602834)
(0.0467456 -1.6372 0.735668)
(0.0684269 -1.33826 0.385907)
(0.189666 -1.26144 0.287245)
(0.121883 -0.93895 0.43748)
(0.207921 -1.38912 0.730636)
(-0.05661 -1.01101 0.458607)
(-0.0961783 -0.804317 0.388097)
(-0.10467 -0.436452 0.214583)
(-0.130307 -1.23215 0.607565)
(-0.0994595 -1.53857 0.699594)
(-0.166461 -1.23612 0.506808)
(-0.22528 -0.76582 0.101838)
(-0.0261302 -0.112118 -0.0292724)
(0.109119 0.0893683 -0.241782)
(0.0662458 0.0764157 -0.207712)
(-0.0671221 0.161208 -0.012198)
(-0.231633 0.0995944 0.1315)
(-0.133603 -0.261353 -0.3093)
(-0.127972 -0.223959 0.0542812)
(-0.0519975 -0.0544047 0.0204434)
(0.0202604 -0.0173395 0.0227671)
(-0.00335564 -0.0408936 0.0465801)
(0.00229918 0.0517172 0.00882994)
(0.0233644 0.037421 0.0146131)
(0.0457467 2.01639e-05 -0.0143767)
(-0.0130374 0.0260458 -0.00556769)
(-0.00287008 -0.000637896 0.0254048)
(-0.00276257 -0.00238485 0.0269927)
(0.000397518 -0.00485508 0.028392)
(0.00165992 0.00167195 0.0199612)
(0.000495474 -0.0022666 0.0201006)
(0.00597986 0.00456813 0.0266721)
(0.00453233 -0.00359559 0.0187963)
(-0.00148367 -0.0133819 0.00159429)
(6.89305e-05 -0.0139418 0.00670151)
(0.000408419 -0.0028138 0.00604057)
(0.00202717 -8.87187e-05 -0.00589706)
(-0.0472737 0.0377384 0.0189354)
(-0.0134888 0.00327628 0.0144961)
(-0.00913209 -1.30046 -0.0122803)
(-0.00728395 -1.40049 0.000210783)
(-0.0136255 -1.39655 -0.0112879)
(-0.0127755 -1.40694 0.00756626)
(-0.0140435 -1.43561 0.0116266)
(-0.0186628 -1.42193 -0.0251385)
(-0.00121946 -1.36907 -0.021678)
(-0.0900309 -1.30793 0.0245177)
(0.10624 -1.53797 0.11582)
(-0.00755966 -1.52473 0.0183622)
(0.0446742 -1.52739 0.0303884)
(-0.0966408 -1.46774 -0.0410514)
(0.158009 -1.68 0.180507)
(-0.140138 -1.39154 -0.00379632)
(0.0473626 -8.70005 -0.0552957)
(0.0222997 -8.47763 -0.0446912)
(0.0200278 -8.4107 -0.0243674)
(0.0277756 -8.38352 -0.0448569)
(0.0652399 -8.62376 -0.0881468)
(-0.039398 -7.71887 -0.00419752)
(-0.00149915 -8.34285 -0.0233181)
(0.00468115 0.536475 1.09333)
(0.0067495 0.587858 0.991367)
(-0.0170512 0.548753 1.01165)
(-0.00869727 0.294243 1.1161)
(0.0294951 0.397536 1.05985)
(0.00426729 0.491393 0.955242)
(-0.0248783 0.40051 1.03539)
(0.0219741 0.468245 1.70444)
(0.0340901 0.406908 1.92627)
(-0.0332652 0.545629 1.73865)
(0.0904686 -0.177084 1.81812)
(0.0546532 0.0644178 1.81429)
(-0.0263403 0.256879 1.61438)
(0.087217 0.111355 1.68031)
(-0.0244904 1.20394 2.96038)
(-0.0795737 1.40976 2.45845)
(0.0388665 1.6138 2.75895)
(0.211151 0.527133 1.96096)
(0.123172 0.863074 2.02973)
(0.357138 1.27487 2.26455)
(0.218896 0.685262 2.21741)
(0.331439 0.232144 3.7415)
(0.204902 0.603395 4.37693)
(0.00629557 -0.383653 2.86706)
(0.320522 -0.094211 4.19595)
(0.104778 0.253797 4.90775)
(-0.168916 -0.651792 4.03771)
(-0.0371085 -0.751239 2.99659)
(0.293135 -0.270558 5.42491)
(0.281402 -0.641532 4.14954)
(-0.0833532 2.45139 3.20983)
(-0.271224 2.37371 4.00965)
(-0.195651 1.41194 4.5505)
(0.667766 0.584184 3.68882)
(0.583454 1.44959 3.21472)
(0.464388 1.7105 3.65551)
(0.445946 0.730128 3.77034)
(-0.114872 0.418461 5.13546)
(-0.0186991 0.232872 4.58131)
(0.0467259 0.286428 5.95852)
(-0.00305126 -0.175246 4.92765)
(0.191028 -0.316061 4.71282)
(0.314061 -1.26349 6.00961)
(0.379707 -1.45587 5.74601)
(0.67192 -0.367247 5.05886)
(0.107249 -0.729601 5.56447)
(-0.101279 -3.57248 1.28489)
(0.150951 -3.8435 0.491251)
(0.0458924 -3.92824 2.25101)
(0.0260253 -3.91835 1.1163)
(0.223863 -4.3464 0.659868)
(0.118648 -5.01157 1.98016)
(0.0595614 -4.51532 2.31448)
(0.085219 -4.14578 1.62391)
(0.109251 -4.31596 1.1726)
(-0.00476618 -3.70969 -0.401635)
(0.104961 -3.94266 -0.360833)
(0.0518773 -3.77021 -1.02006)
(0.115355 -3.56686 0.117011)
(0.0933866 -3.75876 0.162477)
(0.235742 -3.49471 -0.23338)
(0.057015 -3.69459 0.228052)
(-0.0226746 -5.14357 0.82326)
(-0.190581 -4.98639 0.112161)
(-0.209542 -5.11925 -0.025783)
(0.0447629 -5.47461 0.6653)
(0.140336 -5.47327 0.721474)
(-0.16442 -5.38575 0.270827)
(-0.0450321 -4.93021 -0.192234)
(0.110585 -4.47741 1.08317)
(0.242223 -3.67155 0.350937)
(-0.185771 -5.7816 1.15374)
(-0.259091 -4.85639 0.0179158)
(-0.479434 -4.46914 -0.837516)
(0.162275 -3.83194 -0.765394)
(0.05324 -4.85917 0.148607)
(-0.109723 -8.3619 -0.143679)
(0.128242 -8.23506 -0.0567525)
(0.023994 -8.21153 0.024496)
(-0.0716757 -8.41156 -0.112415)
(-0.163399 -8.46772 -0.109169)
(-0.292793 -8.64458 -0.324866)
(-0.0917816 -7.99647 -0.224389)
(-0.00822647 -1.82971 -1.75572)
(-0.0528337 -1.53569 -2.76636)
(-0.0799278 -2.16391 -2.44722)
(-0.157391 -0.838431 -1.57631)
(-0.121373 -0.141682 -2.33862)
(-0.491452 -0.92959 -3.11657)
(-0.443359 -1.54801 -2.2844)
(-0.522988 0.109092 -2.60351)
(-0.0660902 -0.648262 -2.35418)
(-0.0421331 -1.92568 -2.73256)
(-0.272035 -0.57607 -2.11621)
(-0.30051 0.0430663 -2.36324)
(0.101791 -1.25021 -2.50392)
(0.0445578 -1.86658 -2.27091)
(0.48559 -2.49238 0.499578)
(-0.895767 -2.1716 0.734788)
(-1.39134 -1.39214 0.0496961)
(0.5801 -2.17598 -0.785986)
(0.246593 -2.94277 -0.242608)
(-0.463965 -2.30069 0.26145)
(-0.468954 -1.70086 -0.266452)
(0.237548 0.795571 1.10166)
(0.0553975 1.46995 0.403934)
(0.41098 0.275278 1.58881)
(0.229767 0.223441 0.214482)
(0.310941 0.895847 -0.198315)
(0.700046 -0.240988 0.563226)
(0.922297 0.741459 0.0053955)
(0.0113307 2.82994 1.66412)
(-0.234228 2.47529 3.39245)
(-0.13514 2.99808 2.6309)
(-0.0376694 1.88166 2.03163)
(-0.158447 1.02878 2.30872)
(-0.0539817 1.71113 1.8193)
(0.0747454 0.969277 1.85322)
(-0.0318814 1.7678 3.11716)
(-0.153056 2.38131 2.68042)
(0.00633439 2.2214 2.44988)
(-0.13861 1.84441 2.8666)
(-0.458399 2.15118 2.52063)
(0.390853 1.47008 3.11009)
(0.0538724 1.98146 2.72471)
(0.0391602 1.64419 3.43375)
(-0.410888 1.80759 2.71294)
(-0.00780181 1.14471 0.423055)
(-0.0409259 1.13009 0.56704)
(-0.0506933 1.05432 0.652988)
(-0.0284483 1.09338 0.509944)
(0.0188411 1.14526 0.426425)
(-0.036085 1.11181 0.535472)
(-0.0742844 1.04373 0.613315)
(-0.00461586 0.00137154 0.0118333)
(0.00192264 0.0020849 0.0122908)
(0.00177037 -0.0130491 0.0112814)
(-0.00733712 0.00648335 0.0142908)
(0.00245768 0.0128799 0.0106571)
(0.0162631 0.0423885 0.0100214)
(-0.000530332 0.0115097 0.01873)
(0.0120762 0.00149983 0.00855562)
(0.00147285 0.00760353 0.0116282)
(0.0338913 0.0551719 0.00219567)
(0.0130061 -0.0738589 -0.0150067)
(0.00165299 -0.139448 0.0434831)
(0.0609843 0.0590314 -0.0394065)
(0.0753747 0.0542039 -0.00209545)
(0.034571 -0.024532 0.0975434)
(-0.0148552 0.0866613 0.0636491)
(0.0425744 0.000541687 0.686423)
(-0.00765914 -0.0559967 0.592486)
(-0.0579547 -0.210961 0.320707)
(0.131796 -0.166666 -0.225894)
(-0.163085 0.32076 0.129921)
(-0.223475 -0.147807 0.151185)
(-0.0116349 0.0274024 0.336027)
(0.101097 0.242162 -0.179251)
(-0.274439 0.260104 0.154233)
(-0.00716575 -0.0467718 -0.0253054)
(0.032125 0.0557319 0.00614234)
(0.045316 0.0280842 -0.0403551)
(0.338414 0.477039 0.0928937)
(0.869466 -1.1747 -0.154177)
(0.933521 0.211201 -0.237026)
(1.07492 -0.607699 0.210209)
(0.905197 -0.907899 -0.341183)
(0.153655 -0.324842 0.00282279)
(0.0613083 1.06826 0.483164)
(-0.00113399 0.374049 0.0249467)
(-0.00496873 0.372827 0.0243024)
(-6.34839e-05 0.385263 0.00921845)
(-0.00414946 0.379317 0.0214651)
(-0.00268829 0.378254 0.0144178)
(-0.000341949 0.387807 -0.0040223)
(0.00143338 0.391971 0.00638694)
(0.00872189 -2.31672 -0.0483253)
(-0.0362633 -2.30571 -0.0747806)
(-0.0551359 -1.98431 -0.0123451)
(-0.0584595 -2.28972 0.0682695)
(-0.0668845 -2.26509 0.00542016)
(-0.0785854 -1.84271 0.0676704)
(0.0409493 -1.61552 -0.163031)
(-0.401635 -2.00823 0.128841)
(-0.881168 -2.53715 0.608948)
(0.00150937 0.218925 0.0913988)
(0.00654115 0.244141 0.0954783)
(0.00948933 0.239957 0.109064)
(-0.0182946 0.228195 0.0438139)
(-0.0352681 0.221791 0.0576219)
(-0.00562469 0.241011 0.0464273)
(-0.0243539 0.225718 0.074199)
(-0.356568 -0.208107 0.366646)
(-0.13534 -0.00213675 0.396004)
(0.0877559 -0.156179 0.0104226)
(0.292818 0.297918 -0.415008)
(0.442064 0.535461 -0.584734)
(0.468157 0.537186 -0.925199)
(0.209115 0.538918 -0.651418)
(-0.298419 -0.208002 0.479808)
(-0.0645263 0.0873776 -0.772104)
(-0.576693 -0.0991253 0.477387)
(0.506473 0.825437 -0.524891)
(-0.424727 0.846789 -0.0828013)
(-0.15216 -0.114371 0.60971)
(-1.31068 0.357025 1.22601)
(-0.926887 0.493463 0.376111)
(-0.443265 0.0778188 0.289174)
(-0.241026 0.26712 -0.00299416)
(0.0963331 -0.0265115 -0.0801023)
(-0.0769538 0.179915 -0.784083)
(-0.304801 0.152534 -0.0639533)
(-0.0958879 0.0633963 0.0839744)
(-0.0791097 0.0491072 -0.0930249)
(0.0824312 0.0127757 -0.343677)
(0.0523405 0.208955 -0.236406)
(-0.323357 0.081751 0.0128957)
(0.00524784 -0.00464146 -0.00554997)
(-0.00112076 0.00451613 0.0104436)
(-0.00473097 0.00028579 -0.00501347)
(-0.00575158 0.00669981 -0.00498639)
(-0.00130091 0.00284472 -0.0212356)
(-0.0126094 -0.000202316 -0.0127636)
(-0.00173871 0.00286864 -0.0185885)
(9.64779e-05 0.000350416 0.0135019)
(-0.00165505 -6.46223e-06 0.0127201)
(-0.00328128 -0.000240315 0.0113876)
(0.00156857 0.00464142 0.00825958)
(-0.00124959 0.00646226 0.00942284)
(0.00947158 0.00230143 0.00248025)
(-0.00432858 -0.00630892 0.0127847)
(-0.00103485 0.000288794 0.0131588)
(0.00122459 0.00224567 0.0150422)
(-0.0399829 0.0207543 0.00559449)
(0.00370204 0.00216365 -0.0244193)
(-0.0298216 -0.0755213 0.0897117)
(0.0543351 -0.145228 -0.0599919)
(0.0306346 -0.0953074 0.015063)
(0.0538604 -0.0347711 -0.120722)
(0.00961001 0.0194611 -0.0449538)
(0.0766418 0.189499 -0.15643)
(-0.0633692 0.239074 -0.189832)
(-0.0523669 0.298539 0.0654767)
(-0.172886 -0.152787 0.259271)
(-0.0263908 -0.0234638 0.299891)
(-0.157933 0.0954552 -0.159763)
(-0.101487 -0.146255 -0.0182482)
(0.0733149 0.247514 0.38408)
(-0.00926071 0.179898 0.612755)
(-0.0149545 0.415378 0.428783)
(-0.146886 0.143842 0.767104)
(-0.172388 0.200738 0.774612)
(-0.100879 0.264888 0.639072)
(-0.0350615 0.392073 0.709499)
(0.0115252 0.266567 0.479603)
(0.0261962 0.179548 0.41616)
(-0.0588503 0.0785169 0.103419)
(-0.00471303 0.103271 0.0841372)
(-0.00154022 0.0960235 0.180472)
(0.089728 0.00673237 -0.00353601)
(-0.0669801 0.0559653 0.129844)
(-0.00425897 0.0443134 0.0233314)
(-0.147149 -0.0615027 0.102455)
(-0.0272241 0.219679 0.136272)
(-0.00271733 0.0918987 0.209408)
(-0.0151598 0.251814 0.103227)
(-0.00218373 0.0787137 0.129094)
(-0.0176968 0.164838 0.0221062)
(-0.0464343 0.219924 0.128714)
(-0.010658 0.290772 0.0589718)
(-0.0208404 0.280033 0.109982)
(-0.0541648 0.264931 0.147067)
(0.0209122 -1.59324 -0.0751807)
(-0.0418155 -1.72276 -0.0245257)
(-0.0171724 -1.79802 -0.0760761)
(0.0221717 -1.71897 -0.124636)
(0.0315935 -1.69456 -0.103283)
(0.00305 -1.75139 -0.0755067)
(-0.0299581 -1.79976 -0.142205)
(-7.07363e-05 -2.28203 -0.0727473)
(0.00664236 -2.25285 -0.0597903)
(-0.00242267 -2.25996 -0.0736534)
(-0.00189446 -2.31388 -0.0971684)
(-0.00999993 -2.30383 -0.0907489)
(-0.0168276 -2.28475 -0.0887827)
(-0.00742814 -2.28852 -0.0907117)
(-0.0125827 2.95509 0.115832)
(-0.0441557 3.19228 0.0848032)
(-0.0411388 3.04543 0.0539796)
(-0.0504969 2.99083 0.502262)
(-0.0235476 2.90037 0.371637)
(-0.102031 3.14147 0.362408)
(-0.0823023 3.02059 0.301752)
(0.000277955 2.58099 0.144663)
(-0.0603273 2.61186 -0.0718167)
(0.0140507 2.31419 -0.0149478)
(-0.0774806 2.55296 0.0737656)
(-0.0274172 2.498 0.282571)
(0.00815622 2.38131 0.24343)
(-0.0335902 2.3964 0.0780346)
(-0.00740426 2.0855 0.211643)
(0.0173712 2.19567 0.25395)
(0.010573 2.14051 0.207442)
(-0.00835661 2.09389 0.292046)
(-0.00213963 2.10592 0.370585)
(0.0110606 2.14815 0.341532)
(-0.00112223 2.1248 0.28995)
(0.0494497 1.87323 0.232794)
(0.0167078 1.86147 0.201811)
(-0.0096183 1.82072 0.16285)
(0.0284594 1.8519 0.251345)
(0.00409592 1.84861 0.22353)
(-0.0405846 1.81793 0.228341)
(-0.00512842 1.81353 0.275841)
(-0.0261674 1.82898 0.24617)
(0.00387042 1.82738 0.289895)
(0.0528099 1.81625 0.171823)
(0.0111484 1.80824 0.128275)
(-0.00821511 1.77388 0.0544838)
(0.00241341 1.82118 0.100682)
(0.00845579 1.78963 0.136719)
(-0.00732412 1.82161 0.153592)
(0.00885194 1.80576 0.188332)
(0.0123254 1.23603 0.0228524)
(0.021601 1.83557 0.0235745)
(-0.0326136 1.7712 0.059821)
(-0.0155547 2.0632 -0.0360194)
(-0.013083 1.81605 0.0102722)
(0.0170146 2.02349 0.0125575)
(-0.0390773 1.93245 0.0757727)
(0.0125638 1.78837 -0.103799)
(0.014807 1.84006 0.00710458)
(-0.0766688 1.8465 0.0195713)
(-0.0147776 1.81646 0.0673946)
(0.0233473 1.82301 0.0407072)
(-0.0100631 1.8334 0.0789499)
(-0.135856 1.88642 0.165668)
(-0.00680648 1.96114 0.0397447)
(0.0152966 1.87814 -0.0250459)
(-0.0121232 1.88035 0.0064915)
(0.0218491 1.92086 0.0182274)
(0.0152397 1.97076 0.0249747)
(0.0290656 1.91138 -0.0552717)
(-0.00629832 1.91177 -0.0093138)
(-0.0355257 2.12051 0.0264752)
(0.00831403 2.15673 -0.000754839)
(-0.00390055 2.03218 -0.0349448)
(-0.0514486 1.98697 0.0814499)
(-0.0271075 1.8498 0.017201)
(-0.021826 1.9026 0.0231042)
(-0.0436226 1.93837 0.0532255)
(0.0143459 1.88299 -0.0229836)
(-0.055143 1.486 -0.000329951)
(0.0574982 1.86176 -0.0979912)
(-0.0581829 1.80566 0.0722489)
(-0.0407452 1.2322 0.0137615)
(-0.0433992 1.86679 0.0395347)
(0.0384773 1.82304 -0.00365712)
(0.113602 1.85398 -0.0850723)
(-0.0390296 1.78747 0.0919621)
(0.0716785 1.84114 -0.079379)
(0.0181769 1.82631 -0.028714)
(-0.0251617 1.79143 0.0638725)
(0.0152346 1.79703 -0.0139113)
(0.000965293 1.86371 0.106148)
(-0.0218002 1.83533 0.0337748)
(0.00716246 1.84573 0.0759946)
(-0.0122512 1.83354 -0.0156204)
(0.00869846 1.83704 -0.00772658)
(-0.0219111 1.82718 -0.0237099)
(0.0241293 1.82775 -0.0242359)
(-0.0231781 1.85671 0.0160589)
(0.0146116 1.83045 0.0261731)
(0.0129823 1.84929 -0.030561)
(0.00589121 1.83318 -0.00953328)
(-0.00463165 1.8066 0.00234387)
(0.013412 1.81027 -0.000171624)
(-0.0127033 1.81538 0.00462928)
(-0.0199703 1.80837 0.0375378)
(-0.0199256 1.79081 0.0231919)
(-0.0219722 1.79757 0.0328873)
(-0.0182349 1.80529 0.0201665)
(-0.00495888 1.80247 0.0159018)
(0.00528026 1.81818 0.0470559)
(0.0079218 1.80541 0.0478095)
(0.0124077 1.82752 0.0657189)
(-0.0169227 1.82344 0.0418625)
(-0.00385446 1.81977 0.0267627)
(-0.00990835 1.84239 0.0597414)
(-0.0253467 1.82493 0.00728087)
(-0.00527143 1.83313 0.023381)
(0.00901155 1.81781 0.0421233)
(-0.0372656 1.85787 0.00362298)
(-0.00538107 1.81072 0.0974474)
(-0.00482395 1.80246 0.0246799)
(-0.0719895 1.73977 0.108127)
(-0.030692 1.77147 0.100745)
(0.00738903 1.7879 0.00134619)
(-0.0258208 1.75089 0.0191687)
(0.0190464 1.96731 -0.230758)
(0.0294902 2.02795 -0.1921)
(0.0720054 2.11349 -0.182081)
(-0.0711782 2.03364 -0.404881)
(-0.03372 1.9586 -0.347069)
(-0.0161328 2.16211 -0.376856)
(0.00765328 2.05933 -0.30672)
(0.0137262 2.08451 -0.209184)
(0.0178696 2.17259 -0.244614)
(-0.0243874 2.6753 -0.549051)
(0.137375 2.66836 -0.655986)
(0.00976561 2.48504 -0.671424)
(0.00965742 2.27188 -0.881666)
(0.048032 2.21554 -0.822014)
(0.132773 2.45266 -0.793644)
(0.0990995 2.27581 -0.753402)
(0.0257829 1.99766 -1.47762)
(-0.109725 1.97072 -1.08745)
(-0.107007 2.12651 -0.813924)
(-0.0143847 2.42589 -1.29257)
(-0.00890879 2.23 -1.50719)
(-0.168527 2.11167 -1.22792)
(-0.107809 2.19126 -0.907416)
(0.0999226 3.2295 -0.488932)
(0.0570191 3.01096 -0.7277)
(0.0213015 2.81912 -0.426905)
(-0.32118 2.81717 -1.26655)
(-0.14657 2.76547 -1.10494)
(-0.0314987 2.78904 -0.889035)
(-0.13705 2.99377 -1.04802)
(0.00399223 1.77261 1.87676)
(-0.0705403 1.78938 3.419)
(-0.0470943 0.915353 2.17128)
(-0.0793983 2.06843 1.46021)
(-0.172254 2.62741 2.1137)
(-0.039586 -0.253926 2.35949)
(-0.1313 -1.00651 3.42305)
(-0.10903 0.931516 1.5952)
(-0.284608 -1.42528 2.30218)
(0.014773 -0.121842 1.24447)
(-0.040647 -1.58789 3.28799)
(-0.214772 -0.682541 2.81574)
(0.141352 -2.38064 4.97258)
(0.392614 -2.22794 5.46889)
(-0.0235622 -3.35436 4.97533)
(0.154324 -3.4877 4.5727)
(0.0675805 -3.69664 4.75504)
(0.351335 -2.68781 4.99174)
(0.118346 -2.55173 4.47569)
(-0.150548 -5.94227 4.28526)
(-0.160325 -5.20314 3.85146)
(-0.0985946 -5.29399 3.22558)
(-0.0463824 -5.77653 3.41522)
(0.172581 -3.83714 2.60193)
(-0.085558 -5.05401 3.32769)
(0.129864 -5.74135 4.0819)
(0.0240767 0.262444 -0.450412)
(0.00324416 0.421854 -0.350678)
(0.0202479 0.403507 -0.429474)
(-0.0143774 0.291981 -0.410147)
(-0.0399828 0.375946 -0.404197)
(-0.0325771 0.408607 -0.498076)
(-0.0122225 0.315453 -0.489126)
(0.00254855 0.344829 -0.191775)
(0.00532566 0.338526 -0.216264)
(0.00191022 0.300348 -0.223604)
(0.00335083 0.316107 -0.170146)
(0.00235558 0.336122 -0.167365)
(0.0181672 0.284164 -0.180608)
(0.0108664 0.318508 -0.167727)
(-0.00635456 0.311135 -0.20298)
(-0.0180369 0.263889 -0.207917)
(0.0109435 0.208255 -0.169791)
(-0.00874691 0.260065 -0.142298)
(-0.00612958 0.308266 -0.181669)
(0.00277277 0.290346 -0.119392)
(0.00687219 0.254949 -0.152754)
(0.00317409 0.327415 -0.138142)
(-0.000393258 0.314688 -0.161903)
(0.00626533 0.387727 -0.0182941)
(0.00274443 0.396739 -0.0214797)
(0.00018435 0.380569 -0.0138962)
(-0.00816412 0.354334 0.00325936)
(0.000515537 0.368636 -0.000723955)
(0.0076787 0.391347 -0.0159173)
(0.000132133 0.37395 -0.0104797)
(0.0211427 0.376067 -0.0265093)
(-0.0133001 0.37602 -0.0150107)
(0.000935378 0.348991 -0.0456454)
(0.0211879 0.400159 -0.0118222)
(-0.0318158 0.409114 0.0211966)
(0.00886648 0.377263 -0.0284622)
(-0.0141574 0.384453 -0.00707129)
(0.00325716 0.358764 -0.0332588)
(-0.00319758 0.365906 -0.0267675)
(1.25042e-05 0.357995 -0.0132083)
(-0.00251051 0.354526 -0.0117163)
(0.00231523 0.345098 -0.0206292)
(0.000994358 0.353305 -0.0292006)
(-0.00582042 0.370511 -0.0238828)
(0.0142083 0.301945 -0.000138499)
(-0.00750597 0.302608 -0.00192819)
(-0.00347318 0.269162 -0.0248267)
(-0.0125343 0.270673 0.0195861)
(-0.0311601 0.299489 0.0226099)
(-0.0169204 0.255297 -0.000557497)
(-0.000112592 0.24906 -0.019408)
(0.0036295 0.146136 -0.0877582)
(-0.0349604 0.103028 -0.131754)
(0.00170371 0.186331 -0.0335439)
(-0.00606572 0.336623 0.0889292)
(0.00582429 0.295421 0.089441)
(0.0173258 0.139537 0.0409859)
(0.0401387 0.114537 -0.0230363)
(-0.0565233 0.322789 0.11213)
(-0.0328613 0.247742 0.0851828)
(-0.0835865 0.43699 0.0181973)
(-0.0905363 0.439987 0.0507754)
(0.0211136 0.431329 -0.0132087)
(0.0485245 0.447987 -0.00592864)
(0.0171778 0.456934 0.0215698)
(0.0525819 0.42368 -0.0589221)
(0.0338083 0.378392 -0.01121)
(-0.0703584 0.451748 0.0403535)
(-0.0572315 0.413901 0.0100812)
(0.0499621 0.0819957 -0.169719)
(0.0646225 -0.0228597 -0.21263)
(-0.00796796 0.195832 0.0971562)
(-0.0485649 0.56366 0.064801)
(-0.042193 0.35304 0.0723942)
(-0.0764695 0.238812 -0.106078)
(-0.0737297 0.253728 -0.0705894)
(-0.0363495 0.474997 0.102107)
(-0.00944098 0.612317 0.119929)
(0.0343556 0.419186 0.0663047)
(0.122893 0.49281 -0.0185599)
(0.0831102 0.61756 -0.00800111)
(0.0255299 0.520454 0.0495022)
(0.0336147 0.727829 0.0886478)
(-0.0165403 0.79384 0.0537995)
(-0.0533344 0.678085 0.130464)
(0.127429 -0.263692 -0.191336)
(0.0647487 -0.197039 -0.0272627)
(0.0660711 0.33969 -0.0762784)
(0.0131617 0.66309 0.335667)
(0.0449297 0.658019 -0.132348)
(0.0121876 0.467867 -0.439206)
(0.107356 -0.23826 -0.480612)
(0.161885 0.290063 -0.2953)
(-0.014057 0.0933712 -0.0768112)
(-0.0646547 0.163972 -0.113215)
(-0.117779 -0.0801695 0.0297741)
(0.240347 -0.117831 0.312533)
(0.282793 -0.159477 0.694231)
(0.0338257 0.262323 -0.19057)
(0.317901 0.0429737 0.112172)
(0.422628 -0.0839856 0.898009)
(-0.0947563 -0.150757 -0.254227)
(-0.0260963 -0.387398 0.00894543)
(0.166644 -0.22142 -0.839859)
(0.0017397 0.320194 -0.559419)
(-0.0784572 0.0690027 -0.233914)
(-0.107321 -0.275912 -0.267328)
(0.0553945 0.146669 -0.0232055)
(0.149946 -1.47384 0.780606)
(-0.317406 -0.0806643 0.130143)
(-0.445956 0.827867 0.319294)
(0.107433 0.181995 -0.12346)
(-0.248507 0.506402 -0.0378922)
(0.193594 -0.686346 0.0445096)
(0.0569154 0.152462 -0.0759408)
(-0.300828 0.427937 -0.171889)
(-0.188445 0.0128771 -0.0599425)
(-0.318557 0.0418212 -0.432207)
(-0.141394 -0.00280241 0.520195)
(0.0416588 0.0301445 0.323049)
(0.0651875 0.338859 0.146555)
(-0.0906227 0.146434 0.0725655)
(-0.226664 0.112514 0.266914)
(-0.0586067 0.00476481 0.0221412)
(-0.0435673 -0.0830272 0.019495)
(0.0217523 -0.0983885 0.094885)
(0.0182484 0.00620053 0.0803268)
(-0.0231084 -0.0213827 0.0336494)
(-0.100812 -0.0399734 -0.170657)
(-0.0708161 -0.014291 -0.106421)
(0.000151419 0.0117806 -0.00948368)
(-0.00447454 0.0103948 0.000920846)
(-0.00412166 0.00680731 0.0074506)
(0.0051884 0.0181719 -0.0422928)
(0.00402594 0.00742269 -0.0341221)
(-0.000676689 0.0168537 -0.0278828)
(0.00633274 -0.00483991 -0.0230991)
(-0.00105593 -0.00604093 -0.0306643)
(0.03602 -0.0218557 -0.0657983)
(0.0207397 0.00758121 -0.051378)
(0.00582574 -0.00490548 -0.0239135)
(-0.00123455 -0.00225186 -0.0139758)
(-0.000514318 0.00456596 -0.00962923)
(0.0118371 0.00699582 -0.0166451)
(0.00637478 -0.00390457 -0.0152653)
(-0.00426183 0.0212808 -0.00894269)
(0.0371266 0.0401631 -0.00502652)
(0.0290423 0.00344173 -0.0120166)
(0.0609806 0.0330548 -0.0232679)
(0.00179786 -0.000647555 -0.0194374)
(-0.0034887 -0.000340325 -0.015973)
(0.0168146 0.0136131 -0.0170027)
(0.000262458 0.00319691 -0.0252984)
(0.00286191 -0.00208786 -0.032702)
(0.00576215 -0.00013348 -0.0318401)
(0.00203107 0.00606978 -0.0313951)
(-0.00772874 -0.00994043 -0.0373655)
(-0.0168217 -0.00925761 -0.0292394)
(-0.00748939 0.0077635 -0.0439684)
(-0.0152811 0.0217676 -0.0494942)
(-0.0627891 -0.0546339 -0.0964613)
(-0.00125557 0.00485901 -0.0154411)
(-0.00609422 -0.000920966 -0.0232757)
(-0.00150444 -6.32116e-05 -0.0249648)
(0.00291715 0.00100255 -0.0398185)
(0.00519498 0.00115796 -0.0354094)
(0.00121041 -0.00140244 -0.0258055)
(0.0244281 0.00136533 -0.0530991)
(0.00506158 0.0151612 -0.00593201)
(-0.000692685 0.0185419 -0.0291647)
(0.00441382 0.0167621 -0.0173889)
(-0.00671578 -0.0078197 -0.0704773)
(0.00468761 0.000248343 -0.0517248)
(-0.000734189 -0.00269955 -0.0747615)
(0.00886675 -0.00165299 -0.0956348)
(-0.00082185 0.0204246 -0.0608905)
(-0.00608975 0.0426169 -0.0779202)
(0.0143561 0.00916611 -0.092695)
(0.0340515 0.000207553 -0.0621956)
(0.0286834 -0.00471736 -0.075876)
(-0.00821567 0.00108578 -0.032914)
(5.31037e-05 0.010388 -0.0499552)
(0.00505519 0.0217963 -0.0384418)
(0.0238016 0.03203 -0.038512)
(0.016599 0.0251941 -0.0242099)
(-0.0293541 0.0217432 -0.000858026)
(-0.0237186 0.018821 -0.0387275)
(0.0196171 0.0524535 -0.00501998)
(-0.0141665 -0.0271176 -0.036932)
(0.0516184 -0.0291518 -0.0369377)
(0.0295022 0.0024873 -0.00113787)
(-0.0607239 -0.0394832 0.0264333)
(0.00156124 0.0574728 -0.0580954)
(-0.0370648 0.116293 -0.0915986)
(-0.0436502 -0.0566591 0.0124744)
(0.0545861 -0.014859 -0.0494898)
(0.0351848 0.0246211 0.0156836)
(-0.00947631 0.182549 -0.0480268)
(0.0733061 0.16209 -0.0183817)
(0.249143 0.0760003 -1.11193)
(0.176171 -0.0597274 -1.19044)
(-0.101008 0.0583029 -1.063)
(0.148606 0.133088 -1.08764)
(0.160136 -0.0933065 -1.09726)
(-0.0366455 0.099876 -1.05657)
(-0.0875802 0.0169798 -0.991765)
(0.202746 0.4008 -1.08492)
(-0.0598321 0.468385 -1.19913)
(0.101985 0.610891 -1.04141)
(-0.185667 0.676113 -1.05446)
(0.0993752 0.33256 -0.931422)
(0.181807 0.525968 -0.574233)
(-0.0835276 0.280223 -0.466364)
(-0.143547 0.153601 -1.27941)
(-0.152445 0.275552 -1.05308)
(0.0651961 0.344001 -1.33519)
(-0.0198912 0.303513 -1.14488)
(-0.043001 0.0712011 -1.34551)
(0.0132893 0.21986 -1.40891)
(0.102127 0.424446 -1.3102)
(-0.0831672 0.867905 -1.10011)
(0.0440955 0.412261 -0.728771)
(-0.0575928 0.562654 -0.967106)
(0.125682 0.786546 -1.33133)
(0.0778519 0.605443 -1.11787)
(0.111823 0.884844 -1.66086)
(0.0387458 0.73308 -1.35065)
(-0.0220171 0.656876 -1.27597)
(0.0133509 1.02057 -1.57168)
(-0.0341362 0.904964 -0.298654)
(0.00417292 0.592773 -0.29829)
(-0.0261783 1.04079 -0.338908)
(-0.0708313 1.00923 -0.893601)
(0.00988554 1.13438 -0.562981)
(-0.0564953 1.04654 -0.883502)
(0.0404971 1.15263 -0.643804)
(-0.107703 0.846602 -0.511844)
(-0.0833301 1.00706 -0.368349)
(-0.243104 0.260303 -0.448448)
(0.179237 0.106688 -0.00143125)
(-0.0773312 0.195963 -0.297109)
(0.0557164 0.369728 -0.231208)
(0.363476 0.291976 0.119866)
(0.152288 0.4015 -0.328249)
(0.115461 0.448373 -0.130739)
(0.0367685 -0.497231 1.64925)
(-0.0504039 -0.185533 1.61781)
(-0.0429963 -0.146391 1.60717)
(0.119082 -0.356185 2.18189)
(0.0665215 -0.224108 1.90479)
(0.0685626 -0.294342 1.80665)
(0.0386694 -0.517387 1.86559)
(0.115003 -0.980887 1.54148)
(0.156918 -1.1197 1.2597)
(0.00984311 -0.896618 1.79982)
(-0.0334576 -1.05996 1.87024)
(0.0796772 -1.31277 1.48492)
(0.0940172 -1.14286 2.25298)
(-0.146892 -0.849231 2.55528)
(0.329883 0.0457066 5.1323)
(0.0792994 0.51694 4.49008)
(0.0855994 0.839158 3.7771)
(0.104838 -0.532898 3.27591)
(0.0615669 0.156927 3.34652)
(0.00217443 1.66585 0.736253)
(-0.0338431 1.89228 0.936265)
(-0.053999 1.85283 0.844961)
(-0.0190458 1.7335 0.816952)
(0.00341416 1.57116 0.902201)
(-0.0485687 1.68039 0.971364)
(-0.0443255 1.82601 0.863803)
(0.0667747 1.74377 0.559662)
(-0.00966675 1.6786 0.427334)
(0.118179 1.73479 0.640708)
(-0.0395145 1.72259 0.459343)
(-0.0208695 1.64158 0.540609)
(0.061825 1.68887 0.634231)
(0.0244323 1.73313 0.54595)
(-0.020407 1.37109 0.133372)
(-0.0127171 1.36848 0.171353)
(-0.0117399 1.38864 0.0444606)
(-0.0194767 1.3858 0.179734)
(-0.0978678 1.44803 0.131134)
(-0.0176618 1.46116 0.140113)
(0.0717838 1.46092 0.253439)
(0.0604115 1.06865 0.0268132)
(-0.00742152 1.48667 0.0286145)
(-0.0404742 1.47615 0.0801415)
(-0.00445103 1.65417 -0.0545966)
(0.0374951 1.51793 -0.000981328)
(0.00251089 1.62808 0.0095251)
(-0.030582 1.58439 0.0763005)
(-0.0132029 1.52564 -0.0218573)
(0.0601351 1.57799 0.100617)
(-0.035225 1.6017 0.109229)
(-0.036922 1.48789 0.0952142)
(-0.0156759 1.4864 0.0842858)
(-0.0417293 1.51351 0.134046)
(-0.151668 1.59905 0.218972)
(0.0360064 1.66537 0.0406688)
(-0.0512093 1.36799 -0.00650221)
(-0.0469713 1.67623 -0.0321371)
(0.0330062 1.57932 -0.00202162)
(-0.028135 1.61198 0.0258779)
(-0.0469952 1.61857 0.060193)
(0.0226463 1.63646 0.0616776)
(0.108665 1.74026 0.150909)
(-0.0157088 1.59036 0.0423538)
(0.0153352 1.58832 -0.0170879)
(-0.0161844 1.6518 0.0806413)
(-0.084853 1.6362 0.113263)
(-0.0483415 1.61419 0.10483)
(-0.0981464 1.35032 0.0205302)
(0.0272385 1.88132 0.0435837)
(0.0117271 2.04911 0.308845)
(0.032016 1.70139 0.143563)
(-0.00543978 1.73782 0.0748403)
(0.145148 1.91501 -0.149259)
(-0.0138276 1.73157 0.0261649)
(0.0691983 1.80152 -0.000532765)
(-0.105837 1.93298 0.112125)
(0.0197665 2.00831 -0.0518154)
(-0.0613454 1.90841 0.0540557)
(0.0155959 1.80377 0.0554321)
(0.00780172 1.81045 -0.0506941)
(0.0102479 1.80159 0.0801338)
(0.00211418 1.81105 0.0116142)
(-0.0474159 1.81739 0.0797276)
(0.00101182 1.81339 0.102146)
(0.0604911 1.81532 0.0573044)
(-0.00766547 1.81011 -0.00837068)
(-0.0395954 1.81242 0.040922)
(0.0077192 1.78747 -0.0587649)
(0.00607749 1.79725 -0.0165859)
(-0.00112526 1.79875 0.000361808)
(-0.0123922 1.81166 0.0190113)
(0.0121562 1.82152 0.00196266)
(-0.00233398 1.77526 0.0621996)
(-0.0555591 1.86658 0.00421812)
(0.0151572 1.84352 -0.0189513)