/*--------------------------------*- C++ -*----------------------------------*\
| =========                 |                                                 |
| \\      /  F ield         | OpenFOAM: The Open Source CFD Toolbox           |
|  \\    /   O peration     | Version:  v2012                                 |
|   \\  /    A nd           | Website:  www.openfoam.com                      |
|    \\/     M anipulation  |                                                 |
\*---------------------------------------------------------------------------*/
FoamFile
{
    version     2.0;
    format      ascii;
    class       volScalarField;
    location    "0.2";
    object      alpha.water;
}
// * * * * * * * * * * * * * * * * * * * * * * * * * * * * * * * * * * * * * //

dimensions      [0 0 0 0 0 0 0];


internalField   nonuniform List<scalar> 
24700
(
1
1
1
1
1
1
1
1
1
1
1
1
1
1
1
1
1
1
1
1
1
1
1
1
1
1
1
1
1
2.54909e-27
3.19181e-28
8.4416e-31
4.92057e-12
3.27844e-12
1.58572e-11
6.32732e-12
5.24982e-06
5.24982e-06
5.24982e-06
5.24982e-06
5.50412e-06
5.2521e-06
7.70228e-06
0.000112134
8.13378e-05
0.000112043
5.55569e-05
2.14118e-05
3.3796e-05
9.94629e-05
0.00031156
0.000306193
0.000261547
0.000665671
0.000696388
0.000683518
0.000683694
0.00114145
0.00115842
0.0010917
0.00459306
0.00380524
0.00138074
0.00209467
2.25594e-10
2.30923e-10
5.9535e-11
1.56251e-10
2.80562e-10
2.65271e-10
7.68848e-11
4.42522e-07
1.13344e-06
3.68135e-07
5.83812e-07
2.51081e-07
2.09467e-07
5.235e-07
0.537628
0.0836101
0.969066
0.524912
0.0565589
0.732888
0.93727
5.47628e-07
5.47628e-07
5.47338e-07
1.20709e-06
1.25839e-06
6.12238e-07
5.47235e-07
4.0027e-15
4.4659e-15
3.00995e-15
3.54433e-16
1.37093e-15
4.95403e-16
1.87029e-15
4.34893e-15
2.57056e-15
4.41101e-15
2.55824e-14
1.26628e-14
6.89579e-15
1.39203e-14
6.25981e-07
2.98719e-07
1.57848e-07
1.57746e-07
1.79257e-07
2.97744e-07
4.09335e-07
7.76215e-29
5.06064e-29
1.53485e-28
2.76394e-28
1.56803e-27
5.0021e-28
1.29816e-28
3.2684e-29
2.14241e-29
1.11159e-29
2.07247e-30
1.18721e-30
5.47389e-30
1.00698e-29
5.3395e-29
2.95375e-30
1.12586e-29
3.48119e-29
9.21385e-30
4.92827e-30
3.15835e-31
1.81105e-30
7.13333e-23
8.7023e-24
1.44741e-23
2.42006e-24
3.34472e-24
1.50434e-23
6.24757e-24
1.64505e-16
8.88989e-17
2.42566e-17
2.10702e-16
1.96237e-16
1.172e-16
4.36926e-17
7.59248e-05
0.0001403
0.000163239
3.10112e-05
9.97311e-05
2.78656e-05
7.54128e-05
0.0039752
0.0039752
0.0039762
0.00397565
0.0039762
0.0028725
0.00397583
0.00223273
0.000778663
0.00069111
0.00172716
0.00102088
0.000834478
0.000948381
0.0206377
0.0206377
0.0207294
0.0206288
0.0203233
0.00827488
0.015655
0.000169553
0.000148967
0.000113426
0.000113426
0.000113496
0.000187458
0.000113674
0.000965213
0.000902037
0.000902037
0.00298431
0.00106845
0.00238563
0.000855763
7.52372e-05
0.000151797
0.00015202
0.000151797
0.000150837
0.000147583
5.09803e-05
0.000272646
0.000160783
0.000159864
0.000291088
0.000404575
0.000132406
0.000120169
0.882282
0.78172
0.976861
0.773606
0.889511
0.946479
0.940532
5.33694e-05
0.000156277
8.61797e-05
5.34152e-05
6.15137e-05
0.000147454
5.88295e-05
7.75855e-05
7.7685e-05
0.00013872
0.000156837
0.000135806
0.000164759
6.06544e-05
0.000423165
0.000450571
0.000313919
0.000892096
0.000320277
0.000869463
0.000314887
0.00858859
0.0123394
0.0120094
0.00871341
0.00852629
0.00833195
0.0118274
0.000246144
0.000132627
0.000419874
0.000256488
0.000333742
0.000306952
0.000436651
0.000921576
0.000921576
0.000921576
0.000921576
0.000934364
0.000921589
0.991388
0.988255
0.96897
0.995645
0.995646
0.994138
0.0582327
0.0805782
0.0251705
0.0226507
0.0176959
0.0107766
0.0314637
0.00205576
0.00174202
0.00247711
0.00602622
0.00868501
0.0031585
0.00348076
0.000443191
0.00040743
0.000272702
0.000365423
0.000273082
0.000273284
0.000273082
0.00408297
0.0038876
0.00403639
0.00208207
0.00408438
0.00384942
0.00210327
0.00432678
0.00435404
0.0043662
0.0136011
0.00708152
0.00578964
0.0102976
0.0673555
0.0601084
0.109645
0.124802
0.448623
0.235333
0.105246
0.00236583
0.00236583
0.0023795
0.00159768
0.00234408
0.00236583
0.000907392
0.000947169
0.00110574
0.00121296
0.0086776
0.00421428
0.00249129
0.00490853
6.56858e-05
5.59192e-05
0.000112571
0.000249701
0.000110688
8.72216e-05
6.02101e-05
5.48754e-08
1.51924e-08
1.54241e-07
2.05465e-07
9.97431e-08
1.31362e-08
4.24547e-08
1.04621e-17
3.34032e-17
1.23741e-17
8.91094e-17
2.48545e-17
5.1703e-17
1.74086e-17
2.99469e-14
1.13074e-14
1.39626e-14
5.66588e-14
1.59303e-13
2.75691e-14
5.13762e-14
2.4769e-16
7.0845e-16
2.27211e-16
1.32459e-15
4.2646e-15
5.37562e-16
9.44233e-16
9.94195e-22
2.13947e-22
1.2505e-22
4.0146e-23
7.2166e-23
1.02332e-22
3.18145e-22
2.44605e-25
1.64212e-25
6.5609e-25
1.22732e-24
5.70715e-24
4.33367e-25
1.22177e-24
3.89061e-26
6.18724e-27
8.19708e-27
5.80978e-26
1.10409e-26
2.05659e-26
1.88161e-25
3.01818e-23
1.85177e-23
1.53339e-22
7.76958e-24
4.90459e-24
1.14649e-23
3.55841e-23
5.31487e-25
4.51039e-24
8.95311e-25
2.02325e-25
1.44109e-25
9.39431e-25
3.80425e-25
1.32192e-24
2.98798e-24
1.73691e-24
9.42462e-25
8.80456e-25
1.44407e-24
1.32296e-24
2.65922e-14
3.18598e-14
3.21606e-14
1.24298e-14
2.72145e-15
3.57625e-15
1.57508e-14
6.9295e-11
2.51285e-11
6.85473e-11
8.69611e-11
6.32821e-11
3.99706e-11
8.35293e-11
0.983816
0.82725
0.530338
0.983745
0.984007
0.918244
0.588848
1.30661e-05
1.93295e-05
1.2921e-05
1.27509e-05
2.21508e-05
2.40207e-05
1.40151e-05
0.000146933
0.000148224
0.000146933
0.000146142
0.000130122
9.30931e-05
7.84168e-05
0.000176185
0.000149346
8.63151e-05
8.6749e-05
8.63151e-05
8.63151e-05
0.000150815
0.000835689
0.000838454
0.000426017
0.000310981
0.000614014
0.000310788
0.000417342
0.000311783
0.000310771
0.000310865
0.000475657
0.00069365
0.000186942
0.000186942
0.000186797
0.000420889
0.000453809
0.000405778
0.000204375
0.000295667
0.00025905
0.000186797
0.000334392
0.000837301
0.00323481
0.00393527
0.00301616
0.00321116
0.00322278
0.00389543
0.00283801
0.0764364
0.0127687
0.11794
0.559138
0.174669
0.013172
0.147522
0.000594026
0.000360155
0.000247748
0.000594026
0.000594008
0.000565553
0.000228344
0.000122886
0.000187949
0.000293052
0.000243365
0.000120683
0.00015501
0.000435557
4.52853e-06
3.61489e-06
2.15818e-06
1.65502e-06
4.52853e-06
2.89688e-06
3.66924e-07
3.29253e-10
1.42925e-10
2.79991e-10
1.14173e-10
5.52596e-10
1.04742e-10
4.48826e-10
6.59903e-16
2.05988e-16
2.48887e-16
3.42436e-15
1.46239e-15
5.29834e-16
6.95952e-16
7.10991e-12
5.1939e-12
1.90969e-11
7.76826e-11
3.44507e-11
1.50732e-11
1.51519e-11
2.51358e-16
5.1829e-16
4.69683e-16
3.59184e-15
1.0351e-15
6.46086e-16
1.86123e-15
1.27439e-20
1.71422e-20
7.51892e-21
1.23416e-19
2.89432e-20
5.1756e-20
2.08259e-20
3.30562e-17
2.53441e-17
4.09877e-17
4.81582e-17
4.4134e-17
2.84484e-17
3.72106e-17
8.79286e-15
6.3746e-15
1.12673e-14
1.50424e-14
2.10296e-14
7.73906e-15
1.29083e-14
1.79748e-05
1.43926e-05
4.79481e-06
1.14892e-05
1.72852e-05
7.04864e-06
2.17712e-06
0.000248896
0.000166989
0.000174894
0.000236184
0.000229753
0.000427278
7.75116e-05
0.000155817
7.7197e-05
0.000304739
0.000665205
0.000346195
0.000159411
0.000133444
0.000839064
0.00090524
0.000655247
0.000786535
0.000890678
0.000904463
0.000601284
0.000101989
7.40817e-05
8.45864e-05
0.00014151
7.45337e-05
4.01179e-05
0.000110527
5.50262e-05
5.48977e-05
5.48977e-05
7.19031e-05
9.87999e-05
0.000117445
5.53832e-05
0.00160849
0.00156262
0.00208905
0.00328926
0.00387426
0.002916
0.00561482
0.187964
0.889191
0.155691
0.0286985
0.151264
0.476679
0.0364732
0.156845
0.0803899
0.0794559
0.0814189
0.428263
0.0803951
0.0810341
0.00206043
0.00320466
0.00211839
0.0217116
0.01416
0.0082146
0.0042465
0.937771
0.952408
0.952407
0.947803
0.859481
0.949122
0.949749
4.56272e-05
1.50555e-05
0.000109044
0.000104171
6.24792e-05
3.47819e-05
3.50577e-05
2.33487e-09
1.56346e-09
9.94234e-10
8.64232e-10
6.43005e-10
7.93262e-10
1.15872e-09
4.30481e-12
1.06642e-11
3.22617e-12
1.36598e-11
5.36974e-12
1.12062e-11
4.9567e-12
1.78077e-12
9.23909e-12
3.43477e-12
9.74912e-13
1.6551e-12
4.72482e-12
2.09589e-12
3.68705e-12
2.75704e-12
1.6671e-12
1.51921e-11
6.95602e-12
4.01322e-15
2.73461e-15
4.95089e-15
2.86853e-14
8.41907e-15
7.33371e-15
1.64573e-14
3.82692e-14
7.52607e-15
6.71047e-14
1.9292e-13
1.35036e-14
1.51043e-16
2.77939e-16
2.97227e-16
9.38641e-16
3.84532e-16
7.57766e-13
8.70125e-13
2.11899e-12
6.92578e-13
4.18071e-13
4.6915e-13
1.21435e-12
1.19544e-05
1.40499e-06
1.36112e-05
2.86957e-06
4.05279e-06
9.64281e-07
9.08925e-06
2.83242e-06
3.84078e-06
2.8383e-06
5.66258e-06
3.38691e-06
8.1214e-06
5.19484e-06
4.75654e-06
3.23061e-06
2.22008e-06
4.50976e-07
1.56692e-06
1.13963e-06
1.29134e-06
2.48221e-10
2.47845e-10
1.88787e-10
4.33034e-10
6.67026e-10
2.59072e-10
4.15152e-10
3.25416e-08
1.28836e-08
5.26219e-08
1.60707e-08
1.26435e-08
3.21235e-08
2.6248e-08
2.46294e-05
2.47204e-05
2.92813e-05
5.27637e-05
5.20142e-05
3.07099e-05
6.46417e-05
1.49336e-05
2.10181e-05
1.52439e-05
4.67294e-05
1.97354e-05
1.50892e-05
1.49336e-05
8.5489e-06
2.35862e-05
2.80624e-05
7.11845e-06
9.51508e-06
1.08854e-05
1.76082e-05
6.06705e-06
9.45733e-06
1.22782e-05
7.99024e-06
6.95296e-06
0.000163408
0.00021831
0.000135486
0.00017213
0.000135518
0.000251721
0.00029284
0.000316616
0.000320663
0.000214237
0.000242987
0.000231199
0.000245466
0.000486538
0.00192874
0.00203129
0.00259805
0.00266187
0.00176143
0.00206819
0.00144778
0.479611
0.548359
0.872713
0.637797
0.984359
0.849852
0.986121
0.000822707
0.000827148
0.000821351
0.00090778
0.000817832
0.00056362
0.00111182
0.00193583
0.00136255
0.00161642
0.00446942
0.0082184
0.00268407
0.00465798
0.00265284
0.00486411
0.00892605
0.00485455
0.00249636
0.00232849
0.00513847
0.000129028
0.000130967
0.000129366
0.000224218
0.000222059
0.000231923
0.000155235
5.7271e-06
6.18339e-06
1.42244e-05
5.72114e-06
6.05856e-06
6.1105e-06
1.81722e-05
8.12324e-10
2.42418e-09
1.32707e-09
7.00407e-10
1.02068e-09
2.09459e-09
1.14238e-09
1.40966e-09
1.52323e-09
9.11376e-10
3.73456e-09
3.08621e-09
4.55367e-12
1.46706e-12
1.77006e-12
8.19935e-12
1.84238e-11
4.01389e-12
3.74049e-12
1.82323e-15
1.10645e-14
2.76508e-15
6.63422e-16
1.2629e-15
3.97704e-15
1.26653e-15
3.59687e-21
3.04534e-20
8.02885e-21
1.23641e-21
2.58752e-21
1.09416e-20
3.36688e-21
1.44458e-12
9.05768e-13
8.87069e-12
1.40623e-12
2.26555e-11
1.38409e-11
3.27799e-10
8.16414e-10
1.24287e-10
3.89398e-10
1.82523e-10
1.24138e-10
2.14725e-10
9.44657e-10
2.3049e-09
1.37433e-09
0.982997
0.992987
0.963876
0.991471
0.962471
0.992967
0.975511
1.23326e-05
8.67527e-06
1.80963e-05
4.40919e-06
1.8076e-05
5.58028e-06
1.34127e-05
7.14613e-09
8.16957e-09
1.38219e-08
1.74492e-09
3.36778e-09
4.05964e-09
2.22947e-09
3.28892e-09
3.67377e-09
5.55196e-09
4.32067e-09
4.13554e-09
5.56183e-09
3.1841e-09
2.51805e-10
4.60625e-10
1.70753e-10
1.98044e-10
1.29778e-10
2.12974e-10
1.65461e-10
9.12399e-08
7.73971e-08
6.97286e-08
4.29476e-07
3.15568e-07
1.93315e-07
1.71309e-07
4.65208e-05
4.65208e-05
4.65266e-05
4.65274e-05
4.65266e-05
4.65266e-05
4.1075e-05
0.000105051
0.000104995
0.000105077
0.000105077
0.000105065
6.95876e-05
0.000105065
9.75922e-08
7.5471e-08
3.58585e-08
1.02513e-08
2.38643e-08
2.2634e-08
4.75099e-08
0.725819
0.915582
0.985022
0.957911
0.677659
0.841554
0.990289
0.994105
0.985311
0.995091
0.994854
0.995255
0.988673
0.989256
0.949847
0.955088
0.955042
0.895527
0.892184
0.892364
0.89196
0.965568
0.992219
0.981904
0.000826624
0.00110619
0.00238257
0.000830989
0.000823354
0.000813498
0.00205077
0.931379
0.931379
0.931379
0.931379
0.920811
0.931292
0.931301
0.846084
0.846084
0.848216
0.440614
0.0467846
0.197358
0.510256
0.0028024
0.00487578
0.00497068
0.000981714
0.00310519
0.00296118
0.00246352
6.48905e-06
7.9085e-06
6.42738e-06
1.32011e-05
2.4161e-05
1.40597e-05
1.42927e-05
1.02586e-08
6.90221e-09
1.06475e-08
1.45457e-08
1.3503e-08
2.73473e-08
2.29798e-08
6.18084e-09
6.45892e-09
7.72069e-09
4.90206e-17
9.24184e-17
1.17634e-16
7.60436e-16
3.10578e-16
3.19506e-16
1.24917e-16
8.51881e-11
4.40086e-11
3.2751e-11
4.28137e-22
3.91598e-11
1.51621e-21
3.57111e-11
4.47245e-11
2.52456e-11
1.50563e-31
1.82004e-24
4.9438e-24
7.89314e-12
7.52572e-12
1.90127e-10
7.52273e-11
1.68846e-11
3.07258e-11
1.22572e-27
1.58832e-10
1.888e-09
1.14823e-07
9.49855e-08
2.38235e-08
5.67896e-08
9.79166e-09
1.79109e-07
4.24948e-07
5.62728e-10
2.11155e-08
6.30072e-08
4.66039e-07
6.72444e-08
1.35416e-06
2.11483e-07
1.34816e-06
1.89635e-07
1.24787e-09
2.44131e-09
3.92569e-09
1.32986e-09
6.13044e-10
1.76478e-09
7.15947e-10
4.21907e-06
1.43484e-05
2.56787e-06
2.79319e-06
1.47773e-06
7.48644e-06
1.81684e-06
6.74345e-06
6.74345e-06
6.74345e-06
2.06799e-05
8.34736e-06
8.29733e-06
6.74345e-06
9.49742e-05
0.000198365
0.000246057
9.17104e-05
0.000153191
0.000235015
0.000250606
0.00646019
0.0183981
0.0058019
0.00996
0.00611521
0.0184234
0.00403445
0.000595452
0.000539507
0.000465653
0.000942756
0.000466638
0.0012805
0.000468346
0.118676
0.0802952
0.28474
0.428443
0.085744
0.0798843
0.0883879
0.961946
0.960693
0.954807
0.924705
0.924156
0.924705
0.924156
0.924156
0.924695
0.92387
0.831468
0.863048
0.92384
0.913064
0.858534
0.00363228
0.00363226
0.00363301
0.00363301
0.00363336
0.00362978
0.00363303
5.75411e-05
9.77464e-05
5.55505e-05
0.00032507
0.00056678
0.000200219
0.000127277
0.00193079
0.000891878
0.00224302
0.000872026
0.00176573
0.00121259
0.00242297
0.000151043
0.000258064
0.000101097
0.000234757
0.000100175
0.000318581
9.73654e-05
0.000331353
0.000330609
0.000220207
0.000268992
0.000328883
0.000331355
0.000331332
0.0001415
0.000150976
0.000140887
0.00025136
0.000214878
7.41787e-05
0.000214561
2.13186e-05
2.12802e-05
2.11603e-05
2.7856e-05
4.89293e-05
2.12681e-05
5.00021e-05
6.25113e-05
4.9432e-05
5.04663e-05
0.000161844
0.000107334
0.000101408
0.000106006
4.78609e-06
6.22818e-06
3.35245e-06
1.38966e-05
1.42543e-05
1.08599e-05
7.18301e-06
0.000147856
6.61755e-05
5.73323e-05
5.73794e-05
5.78472e-05
9.89757e-05
0.000157104
2.17639e-06
6.13379e-06
4.59148e-06
2.15837e-06
2.5892e-06
3.11248e-06
4.95907e-06
2.46086e-09
3.03158e-09
6.12512e-09
1.72566e-08
3.18747e-08
3.33368e-09
2.95992e-09
2.71834e-07
7.80562e-07
9.57166e-07
3.49776e-07
2.72371e-07
5.11652e-07
1.9648e-06
0.000116271
0.000413918
0.000451946
0.000101273
6.53818e-05
0.000137259
0.000196275
3.05599e-12
8.99074e-08
1.84194e-07
2.64247e-08
2.69497e-13
5.30615e-08
2.32314e-08
2.62743e-08
4.7823e-18
2.60227e-08
6.02622e-11
6.06864e-11
4.65564e-11
2.90578e-10
1.04583e-10
6.23906e-11
9.55244e-11
1.4828e-06
5.12248e-07
6.05299e-07
8.09719e-07
1.01175e-06
4.86168e-07
5.35962e-07
6.19585e-05
4.45317e-05
6.19585e-05
6.02143e-05
5.48283e-05
2.28375e-05
2.9405e-05
3.43725e-05
1.9899e-05
1.04434e-05
1.43471e-05
1.02035e-05
1.94801e-05
3.81002e-05
0.000109391
0.000117773
0.000284226
0.000111657
0.000174925
0.000176439
0.000160229
0.00328125
0.00360178
0.0021275
0.00245924
0.00239198
0.00296923
0.000955369
0.00106459
0.000775013
0.000245254
0.0010623
0.00106459
0.000876462
0.000367799
0.000468993
0.000265324
0.000273808
0.000272777
0.000272149
0.000600523
0.000189848
7.21273e-05
0.000189044
7.00657e-05
0.000189044
0.000142357
0.00014595
5.69165e-05
2.81978e-05
2.51521e-05
1.79546e-05
1.79546e-05
2.85743e-05
4.52468e-05
2.76908e-05
0.000512121
0.00165269
0.000251799
0.000102261
0.000130799
0.000977566
0.000128812
6.79e-06
1.55665e-06
2.13691e-06
2.57367e-06
2.65273e-06
2.79299e-06
4.88351e-06
2.39739e-11
2.90676e-11
4.19244e-11
1.39787e-10
8.61877e-11
1.81422e-10
2.04665e-10
4.71973e-08
7.20076e-08
1.12853e-07
7.93316e-08
4.72164e-08
6.24274e-08
1.81106e-07
1.45168e-05
2.75175e-06
7.52873e-06
4.2955e-06
2.7428e-06
6.54956e-06
2.02532e-05
1.834e-08
8.22382e-09
7.22185e-09
7.24004e-09
1.15318e-08
1.73022e-08
7.40712e-09
1.9162e-05
1.9162e-05
1.9162e-05
1.9162e-05
2.16156e-05
2.30313e-05
4.28409e-05
8.03016e-05
7.00368e-05
9.91708e-05
7.00368e-05
7.13158e-05
0.000100742
4.99406e-05
0.000185628
0.000144944
0.000186209
0.000173791
0.000204008
0.00025388
0.000327542
0.000811733
0.000810074
0.000814668
0.00170178
0.00169452
0.000834708
0.000865273
0.00062289
0.000360464
0.00032514
0.000316246
0.00046813
0.000410203
0.000813802
0.000628804
0.00063386
0.000246516
0.000251535
0.000313505
0.000434004
0.000732952
0.000132222
0.000144693
0.000138049
0.000172794
0.000133391
0.000176334
0.000337817
0.00348932
0.00297155
0.00348932
0.0029065
0.000840998
0.000810525
0.00169509
0.853933
0.765877
0.850573
0.919588
0.765877
0.923884
0.899531
0.914891
0.921499
0.925163
0.925163
0.925163
0.773824
0.856763
0.383054
0.399136
0.925143
0.910933
0.0433628
0.0433262
0.047528
0.0642392
0.0962947
0.0477401
0.162039
0.000618359
0.00137865
0.000574503
0.000657195
0.00117829
0.00180333
0.000704909
0.00059998
0.000587072
0.000587072
0.001742
0.00474545
0.00180918
0.00691337
0.000418847
0.000760019
0.000379735
0.000581248
0.000769521
0.000881652
0.000472041
0.00146162
0.00225554
0.00144921
0.00264006
0.00165184
0.00434623
0.00200387
6.8706e-09
6.67259e-09
6.4995e-09
8.23372e-09
5.22883e-09
9.53509e-09
2.53745e-08
5.16686e-09
4.98161e-09
1.10055e-08
0.000112888
0.000118006
0.000118006
0.000118006
0.000118006
0.000117836
4.54465e-05
0.98396
0.984405
0.975982
0.709691
0.915249
0.974755
0.911635
0.00178523
0.00433944
0.000253263
0.000727823
0.000247847
0.0049767
0.00242589
2.5581e-05
2.04872e-05
3.52978e-05
1.26962e-05
6.06555e-06
3.85781e-05
0.000101327
3.29988e-09
3.911e-09
4.91245e-09
4.29962e-09
3.44965e-09
7.27277e-09
7.2739e-09
9.70481e-09
1.99751e-09
6.40451e-09
2.31307e-08
1.54014e-07
1.40315e-08
1.02204e-07
4.47233e-11
7.214e-11
2.71806e-11
4.14297e-10
2.36428e-10
7.94454e-11
7.76292e-10
1.18903e-09
4.47139e-09
2.31433e-08
1.14606e-08
2.27465e-08
2.24218e-10
2.32474e-08
1.88813e-09
2.0665e-08
7.57169e-15
9.35466e-10
3.22371e-10
2.83965e-08
2.81421e-08
8.06126e-08
5.79585e-08
3.48564e-07
8.34673e-08
1.09057e-16
1.02097e-08
1.16076e-08
3.13862e-08
4.27804e-05
3.29835e-05
3.32803e-05
8.50798e-05
7.17161e-05
4.24564e-05
0.000112563
1.39632e-05
8.33984e-06
2.56381e-05
1.86218e-05
1.31869e-05
1.20706e-05
1.20979e-05
6.84797e-09
6.87251e-09
1.50364e-08
7.28047e-09
3.93163e-09
3.96197e-09
1.51704e-08
1.6578e-08
3.95686e-09
3.77831e-08
3.00763e-08
8.49492e-09
7.08087e-05
6.11295e-05
6.14366e-05
0.000136673
0.000140015
7.18236e-05
0.000140015
1.25649e-05
1.25689e-05
1.25604e-05
1.25649e-05
1.63586e-05
1.25564e-05
1.25564e-05
9.74391e-05
7.38744e-05
6.58402e-05
6.50513e-05
0.000117856
6.50055e-05
6.39436e-05
0.00199987
0.00199113
0.00199987
0.00647664
0.00404457
0.00228581
0.00361661
0.921611
0.921263
0.921611
0.882651
0.921611
0.900533
0.00414698
0.00157246
0.00157246
0.00157246
0.00189607
0.00267051
0.00683874
0.00678881
0.00646522
0.00646522
0.00774932
0.0169737
0.00660439
0.0166083
3.35533e-09
3.72925e-09
3.35807e-09
3.09911e-09
2.97152e-09
2.22253e-09
3.45523e-09
4.80634e-09
8.92486e-09
3.19592e-09
3.23854e-05
3.03862e-05
3.26284e-05
8.68466e-05
0.000125962
7.83537e-05
5.62019e-05
1.80443e-07
2.05629e-07
4.83425e-07
2.17116e-07
4.88067e-07
2.10303e-07
3.72889e-07
0.000170142
0.000170119
0.000170159
0.000170332
0.000170332
0.000170285
0.000170159
0.943852
0.918736
0.826781
0.941363
0.947353
0.889406
0.938118
1.49623e-05
7.1103e-06
8.94094e-06
9.36029e-06
2.5822e-06
3.25005e-06
5.10439e-06
3.6184e-06
2.55503e-06
7.83095e-07
3.35716e-06
2.96381e-06
1.35466e-06
1.3253e-06
3.17672e-07
7.96288e-07
3.77723e-07
3.17973e-07
3.43692e-07
6.4241e-07
3.56028e-07
3.11574e-09
1.40425e-09
1.03687e-09
5.17866e-09
3.33755e-09
1.82114e-09
1.52093e-09
2.16552e-09
2.93511e-09
7.19351e-09
2.11278e-08
1.17443e-07
5.26695e-09
3.40601e-09
9.4882e-07
1.03423e-06
1.39901e-06
1.26644e-06
1.31478e-06
2.05769e-06
2.72682e-06
0.000117699
0.000100877
9.61934e-05
0.000117699
0.000117602
0.000108903
3.80448e-05
0.000162393
0.000118511
0.000164467
0.000164467
0.000164467
8.96163e-05
0.000102851
2.73788e-07
3.08854e-07
3.68167e-07
4.62819e-08
3.2003e-08
3.19835e-08
3.63668e-08
1.24385e-07
3.07818e-07
8.28675e-08
3.07745e-07
5.00243e-08
2.35903e-07
3.17802e-08
4.03559e-09
1.65837e-08
3.59549e-09
5.51917e-09
3.93163e-09
3.4744e-09
6.77815e-09
9.47586e-09
5.08445e-09
9.78659e-09
2.60363e-05
3.66206e-05
9.83655e-05
2.77887e-05
1.74469e-05
2.21197e-05
8.30766e-05
1.9906e-05
1.26164e-05
1.27173e-05
1.01948e-05
1.4329e-05
1.37077e-05
1.57288e-05
4.4238e-06
4.98338e-06
6.88139e-06
8.20533e-06
5.35022e-06
5.01307e-06
1.41837e-05
3.27413e-06
2.87648e-06
3.6897e-06
2.87648e-06
2.87775e-06
2.87652e-06
2.96501e-06
3.02572e-06
8.47294e-06
2.99888e-06
3.14186e-06
5.48728e-06
4.99782e-06
2.2901e-06
8.23798e-05
0.000107183
4.30726e-05
7.00095e-05
4.19356e-05
0.000105756
0.000103155
0.00142191
0.00217352
0.00138848
0.00909521
0.0150373
0.0071044
0.00338747
0.874157
0.874157
0.875599
0.051762
0.448002
0.251438
0.533007
0.996534
0.993722
0.997715
0.998115
0.997359
0.995757
0.997463
0.999497
0.999497
0.999497
0.999496
0.999167
0.995222
0.9981
0.997104
0.998572
0.997297
0.997835
0.998822
0.998284
0.998291
0.962326
0.993262
0.981245
0.986596
0.992555
0.96011
0.720097
0.458182
0.246474
0.0965412
0.599232
0.480093
0.0202902
0.0212069
0.0197422
0.0204477
0.0371008
0.0267627
0.0202902
0.00612659
0.00709089
0.010662
0.0122791
0.00612928
0.0105708
0.012789
0.000389297
0.000180071
0.000220097
0.000174488
0.000405829
0.000224451
0.000636927
0.00290356
0.00210678
0.00185461
0.00116651
0.000551733
0.00072642
0.000785559
0.0285853
0.0288505
0.0333675
0.0339676
0.0343903
0.0342335
0.0276353
9.51712e-06
9.50974e-06
9.51712e-06
9.5608e-06
9.74734e-06
9.51712e-06
1.3554e-05
4.13667e-05
1.87441e-05
4.2608e-05
1.81767e-05
1.73141e-05
1.72967e-05
1.73096e-05
0.000121124
0.000121103
0.000121103
0.000142241
0.000134138
0.00014381
0.000143985
0.0352875
0.0187662
0.0196748
0.209129
0.312803
0.0345043
0.122188
3.37834e-06
4.53533e-06
3.38465e-06
9.96002e-06
7.68765e-06
5.27073e-06
2.03708e-06
2.30563e-05
2.30563e-05
2.43144e-05
2.86787e-05
3.72165e-05
3.53268e-05
6.24598e-05
0.000240145
0.000240145
0.000240145
0.000102878
8.27787e-05
0.00023767
0.000114462
2.72348e-08
1.03615e-07
3.0478e-07
2.64405e-08
2.62072e-08
1.22089e-05
1.88818e-05
1.2315e-05
3.41355e-05
2.51901e-05
4.26215e-05
1.81954e-05
1.76021e-05
1.76015e-05
1.7804e-05
1.75904e-05
1.75993e-05
2.51231e-05
1.76373e-05
0.000469901
0.00060464
0.000460377
0.00167721
0.00067878
0.000456555
0.00045744
0.00199306
0.0143266
0.0142089
0.0104457
0.00353099
0.00735876
0.000912105
0.999496
0.998917
0.999188
7.32355e-08
1.29948e-07
7.32355e-08
1.27981e-07
9.68726e-08
1.03184e-07
1.85227e-07
1.36624e-08
1.34351e-08
1.44782e-08
2.47493e-08
2.20302e-08
4.81763e-08
4.25178e-08
9.52839e-08
3.17749e-07
3.13717e-07
1.6918e-08
2.08879e-08
1.34351e-08
2.47265e-05
4.63443e-05
1.31703e-05
2.83043e-05
1.31533e-05
2.52684e-05
4.26858e-05
1.87528e-05
1.31703e-05
0.000101214
0.000156325
0.000101462
0.000206801
0.000201694
0.000161788
0.000325344
8.00595e-05
0.000124924
0.000232114
0.000111125
0.000279651
0.000247947
0.000132358
0.992981
0.998265
0.998135
0.993809
0.977566
0.996489
0.998998
0.980745
0.999156
0.999278
0.998509
0.995174
0.998187
0.978371
0.996349
0.99909
0.998593
0.990509
0.998534
0.999677
0.997112
0.999552
0.996067
0.986224
0.00128877
0.00105523
0.00133733
0.00413127
0.00425064
0.00181343
0.0024608
0.000403448
0.000580152
0.0013551
0.000384916
0.000265094
0.000275023
0.000737518
0.00661884
0.00519358
0.0181289
0.0186571
0.00959856
0.00522779
0.00742541
0.00119882
0.00182533
0.0012717
0.0038931
0.00201058
0.00206952
0.00110611
0.0636756
0.0593112
0.0328215
0.0465266
0.0335732
0.0432987
0.022333
0.000251311
0.000794222
8.58454e-05
8.58454e-05
0.000136305
0.000308965
0.000177163
0.000161339
0.000138329
0.000139109
0.000259614
0.000164681
0.000319874
0.000363116
4.81433e-07
2.68945e-07
7.88237e-07
9.16428e-07
7.35003e-07
4.96366e-07
5.42913e-07
6.43711e-05
6.05376e-05
5.20802e-05
6.43711e-05
4.62444e-05
2.87918e-05
2.50833e-05
6.99369e-08
7.55614e-08
6.33722e-08
5.88877e-08
3.37531e-08
4.53974e-08
1.22728e-08
1.74832e-08
4.5635e-08
6.23642e-08
1.2108e-07
7.91346e-09
4.76547e-07
4.38427e-07
3.66396e-07
3.682e-07
3.66398e-07
3.66396e-07
3.66396e-07
5.26547e-07
4.15859e-07
6.83884e-07
7.98394e-07
1.74578e-07
3.46835e-07
2.89782e-07
2.5599e-07
1.76721e-05
1.95064e-05
1.84155e-05
1.95064e-05
1.07831e-05
1.31628e-05
3.57971e-05
0.946189
0.952632
0.851879
0.95263
0.94176
0.950068
0.951852
0.000946745
0.00503002
0.00264655
0.00502084
0.00501915
0.000676851
0.00239654
0.00247067
0.00126528
0.00127585
0.00146878
0.00145737
0.00149861
0.000954206
0.00248363
0.00691044
0.00326431
0.000562007
0.000500796
0.000967059
0.000611117
0.999839
0.999612
0.999972
0.999477
0.997502
0.999775
0.999052
0.99664
0.997508
0.991412
0.995706
0.999097
0.987131
0.973736
0.999433
0.999332
0.994222
0.00210847
0.00130579
0.00188079
0.00191785
0.00707632
0.00100984
0.00502803
0.000300329
0.000869899
0.000473703
0.000300329
0.000300588
0.000537634
0.000234503
2.25099e-06
6.76844e-06
9.18978e-06
2.09182e-06
1.81322e-06
2.98189e-06
5.22709e-06
1.81322e-06
5.41181e-06
3.45612e-06
1.43264e-05
7.53152e-06
7.53436e-06
1.41699e-05
3.85414e-05
6.09406e-05
1.34297e-05
1.38038e-05
3.87986e-05
3.69261e-05
1.82089e-05
0.000418129
0.000626685
0.000309766
0.103988
0.0204852
0.0840926
0.227228
0.0906581
0.045704
0.168645
0.977389
0.985072
0.992585
0.949246
0.992585
0.98287
0.997306
0.99799
0.999624
0.997757
0.99827
0.998556
0.997612
0.99415
0.98237
0.994805
0.993542
0.998209
0.999584
0.990496
0.999452
0.00294372
0.00295248
0.00293007
0.00608588
0.0040265
0.00374224
0.00475338
0.149848
0.0711659
0.110803
0.362671
0.807848
0.288394
0.198046
0.0139843
0.0232096
0.0134129
0.0233941
0.0109459
0.00313054
0.0165201
0.000814323
0.00874869
0.00155393
0.0261627
0.0123671
0.00199447
0.0019895
3.97934e-06
4.38748e-06
5.02441e-06
6.80116e-05
2.57294e-05
4.08316e-05
1.88418e-05
0.000200382
0.000199528
0.000180166
0.000122666
8.12437e-05
6.57821e-05
5.33351e-05
1.21434e-08
1.67435e-08
2.4249e-08
5.54712e-09
1.5195e-08
1.97124e-08
9.28609e-09
8.33128e-09
1.86189e-09
3.11164e-09
5.99456e-09
7.21656e-09
1.85993e-09
2.22752e-09
3.98905e-06
4.53595e-06
1.35155e-05
1.16354e-05
9.75465e-06
3.33714e-06
2.09921e-06
7.53492e-05
7.51602e-05
4.72677e-05
4.46497e-05
1.44397e-05
4.65255e-05
1.95848e-05
4.94019e-06
4.94019e-06
4.93009e-06
4.95029e-06
4.95029e-06
4.95281e-06
8.32908e-06
2.35676e-07
5.82841e-08
7.01803e-10
1.00065e-07
1.47058e-07
1.39098e-08
1.24276e-09
1.04539e-11
5.16774e-12
4.5484e-12
6.32273e-10
1.62106e-18
1.42749e-09
6.30476e-11
8.74543e-10
3.11411e-10
2.98086e-17
2.337e-12
2.96455e-10
9.91494e-10
5.5289e-10
5.84203e-11
2.39262e-10
5.81428e-10
1.34423e-08
5.96957e-08
2.84378e-09
9.81508e-09
1.66542e-10
7.22704e-28
2.84664e-10
9.46634e-11
1
1
1
1
1
1
1
1
1
0.000118566
0.000157126
0.000632631
0.026617
0.00860763
2.70199e-05
8.0234e-05
0.00136768
1.21402e-05
1.82209e-133
3.24746e-06
0.000173177
1
1
1
1
1
1
1
1
1
1
1
1
1
1
1
1
1
1
1
1
1
1
1
1
1
1
1
1
1
1
1
1
1
1
1
1
1
1
1
1
1
0.526488
0.228885
0.972401
0.993263
0.993344
0.925277
0.950176
1.23725e-30
1.90219e-31
1.12413e-31
3.45655e-32
2.58169e-32
2.12074e-31
5.34411e-32
2.98293e-32
1.19432e-31
0.965761
0.988376
0.994956
0.9902
0.994893
0.975754
0.985168
0.987667
0.989598
0.972023
0.994266
0.978745
0.951779
0.980246
0.868413
1.99596e-31
3.38348e-30
5.40085e-31
5.29025e-31
5.26502e-31
3.08365e-30
0.000325178
0.000171237
0.000325178
2.58918e-05
2.44397e-05
2.48609e-05
0.000110297
0.000164188
0.000164188
0.000118051
3.97171e-05
2.69636e-05
3.71211e-05
2.61598e-09
3.98525e-09
3.5374e-09
6.48728e-05
6.63737e-05
9.15301e-05
0.00166532
0.00278838
0.00174258
2.19239e-05
1.99258e-05
2.58716e-05
1.78378e-05
2.53211e-05
1.75798e-05
5.47706e-05
2.57387e-09
2.26704e-09
4.69275e-09
3.58167e-09
0.000622697
0.00113408
0.00144036
0.00120716
3.64443e-05
5.74238e-05
0.000119517
0.000119472
0.00487257
0.00120653
0.00033554
0.000320473
0.000350564
0.000336887
0.000447098
0.00206543
0.00283708
0.000589059
9.475e-05
6.55347e-05
4.58037e-05
2.94193e-05
0.000505003
0.000402009
0.000235683
0.000238866
0.000429296
0.000580311
0.000251074
0.000399797
0.000466087
0.00065969
0.000696507
0.000205158
0.000537793
0.000760152
0.000472368
0.000350564
0.000164188
0.000163656
0.000114926
0.000163656
0.000102184
5.09058e-05
8.4814e-05
6.08717e-05
7.98073e-07
4.27442e-07
4.5863e-07
3.52987e-07
0.0248203
0.0179827
0.0288305
0.0131072
3.80548e-07
1.287e-06
4.29886e-07
2.40448e-12
1.05201e-12
5.94331e-12
2.53839e-12
0.423303
0.845309
0.2297
0.724202
0.000146987
0.000740758
0.00042347
0.000275181
1.94558e-24
7.03932e-24
1.52925e-23
0.000214574
0.000451042
0.00348753
0.00401732
0.00114295
0.00115049
0.84994
0.483065
0.506356
0.838292
6.13505e-06
1.48539e-05
7.3408e-28
5.62775e-28
1.17464e-26
4.41337e-27
0.929095
0.928753
0.928769
0.858821
2.37684e-07
3.50785e-07
3.87908e-07
8.00674e-07
0.105935
0.125412
0.0972678
0.125514
0.000109469
5.11137e-05
7.92487e-05
0.000100573
4.85723e-06
5.84665e-06
2.71376e-06
2.71041e-06
1.53871e-05
2.1247e-05
0.0135455
0.00540081
0.0689357
0.0720203
0.00510087
0.00102729
0.00616358
0.000871911
0.0222009
0.0578126
0.0495555
0.0587536
0.000250606
0.000250606
0.999981
0.999999
5.57161e-08
9.85192e-07
2.847e-07
3.91395e-06
0.000949881
0.00126419
0.000640899
0.00133498
0.00158229
0.0010019
0.000656126
0.00109776
1.36123e-06
2.37138e-06
1.05545e-20
8.62307e-21
4.44025e-20
3.40104e-20
0.00625028
0.00768218
0.00371796
0.00366544
9.76312e-06
2.19291e-06
6.79325e-10
9.87924e-10
0.000455583
0.000540566
5.85024e-08
1.47264e-07
1.84238e-08
5.08851e-08
0.509411
0.623656
0.899294
0.774685
0.818641
0.935463
0.947854
1.45347e-05
2.64968e-05
9.87527e-06
1.6528e-05
0.000547965
0.000422497
0.000290149
0.992948
0.995542
0.974711
0.948674
0.975935
0.962556
1.28348e-05
1.18063e-05
6.86653e-08
2.1759e-07
9.4815e-08
1.2139e-08
3.84748e-08
5.60579e-08
2.46645e-05
6.06644e-05
3.39622e-10
4.17268e-11
2.60892e-11
1.46081e-10
4.92272e-21
2.41012e-21
0.000509482
0.000480134
0.000358385
0.000505709
0.000446438
0.000464268
0.001752
0.00188892
0.00378175
0.00895374
0.00314173
0.0118216
0.000101251
5.29744e-05
9.98835e-05
0.000138743
0.000100928
4.75243e-05
0.000233014
0.000191511
5.84511e-05
9.34956e-05
0.000503125
0.00127975
1.43101e-06
2.3083e-06
0.95263
0.875873
0.00016396
0.000199972