/*--------------------------------*- C++ -*----------------------------------*\
| =========                 |                                                 |
| \\      /  F ield         | OpenFOAM: The Open Source CFD Toolbox           |
|  \\    /   O peration     | Version:  v2012                                 |
|   \\  /    A nd           | Website:  www.openfoam.com                      |
|    \\/     M anipulation  |                                                 |
\*---------------------------------------------------------------------------*/
FoamFile
{
    version     2.0;
    format      ascii;
    class       surfaceScalarField;
    location    "0.2";
    object      phi;
}
// * * * * * * * * * * * * * * * * * * * * * * * * * * * * * * * * * * * * * //

dimensions      [0 3 -1 0 0 0 0];
oriented        oriented;


internalField   nonuniform List<scalar> 
49400
(
-5.66142e-06
7.79889e-09
5.6148e-06
3.88261e-08
1.30556e-05
3.59718e-06
-2.23142e-05
1.28621e-05
2.01271e-07
-3.42066e-06
1.73223e-05
-8.28681e-06
2.02276e-05
-2.00511e-05
-2.07689e-05
5.09533e-05
-3.40044e-07
8.09281e-06
1.95887e-05
-4.99957e-05
-1.55171e-07
-6.17539e-07
-1.2289e-05
2.37641e-07
1.21424e-05
-9.09564e-08
2.62927e-05
1.15521e-05
-5.01338e-05
2.59128e-05
-1.3124e-05
1.50542e-06
2.37609e-05
-1.32616e-05
4.66392e-08
2.94617e-05
-3.11712e-05
5.68799e-05
-2.68303e-05
4.3303e-07
2.63923e-05
4.92912e-09
9.18628e-06
1.56097e-05
-5.16263e-05
4.87507e-07
9.13181e-06
4.11544e-05
2.27297e-05
-4.82744e-05
1.7312e-05
5.02347e-05
7.66978e-06
-7.39412e-06
2.11849e-07
-3.70086e-06
2.05024e-05
6.23194e-06
9.10366e-06
1.98431e-05
8.83739e-06
4.78126e-07
-1.99993e-05
4.93391e-05
3.21959e-07
2.69661e-06
-2.44562e-05
8.517e-06
1.32426e-05
-3.92665e-05
1.29813e-05
2.89817e-05
2.53613e-05
3.93078e-05
8.77118e-06
-2.49808e-06
2.2439e-06
-6.69333e-06
2.84458e-05
2.39472e-05
-1.08403e-06
5.65617e-05
8.15319e-06
5.03698e-06
2.91714e-07
-1.34819e-05
-1.45445e-06
3.80468e-06
5.80295e-06
6.02696e-06
-2.44442e-06
-9.64994e-06
-7.02683e-07
1.63796e-05
-1.90482e-06
-1.01895e-05
-5.40517e-06
8.50718e-06
-7.01828e-06
2.18472e-06
6.31289e-07
-1.58103e-06
-1.23498e-06
-3.02303e-06
-2.81152e-06
8.01926e-06
-4.12004e-06
1.7283e-06
3.37872e-07
2.1411e-06
-4.06e-06
2.54717e-06
-3.44428e-06
-1.62252e-06
1.35817e-06
-3.60146e-06
-6.88343e-06
-1.41184e-06
-1.02219e-05
1.85171e-05
4.15421e-06
-7.07473e-06
-3.96291e-06
-9.44024e-06
1.21826e-05
8.45935e-06
1.06827e-05
-2.62168e-05
1.18836e-05
-7.38721e-06
5.10036e-06
-4.6395e-06
7.54377e-06
-1.10768e-05
-1.09777e-05
-5.78299e-06
2.78375e-05
-8.60371e-06
-1.52783e-05
1.28053e-05
-2.32862e-05
3.70475e-06
8.01916e-06
1.16245e-05
-3.4922e-05
1.99935e-05
8.309e-07
4.20997e-06
-1.58717e-05
1.84205e-05
-6.55437e-07
-8.48697e-07
7.01037e-07
8.03097e-07
-2.9229e-07
1.55776e-06
-1.92091e-06
1.52519e-06
-2.66618e-06
1.63859e-07
-1.81459e-06
2.35177e-06
-1.55529e-06
2.52225e-06
-3.11948e-07
3.14419e-07
-6.01349e-07
-8.83916e-07
-1.0685e-06
-8.19962e-07
2.77237e-06
-9.83631e-09
-1.16103e-07
-7.57977e-07
-1.36183e-06
2.835e-07
-6.46154e-07
1.23467e-06
-7.04614e-07
7.56075e-07
-2.16021e-06
8.57868e-07
-1.46363e-06
1.27257e-06
-7.34254e-06
-1.21921e-05
-8.77809e-06
2.83128e-05
4.10402e-07
-6.54309e-06
-1.20985e-06
-1.44275e-05
2.64575e-06
7.5582e-06
3.77598e-06
-1.78773e-05
9.19287e-06
-2.84453e-06
-1.22376e-05
1.26523e-05
-2.28891e-05
1.69597e-06
-1.21873e-08
-1.69594e-06
1.21608e-08
-8.87616e-07
-9.43155e-07
3.52674e-06
-1.3108e-06
4.10999e-07
1.03297e-06
7.56931e-07
-3.48584e-06
1.76627e-06
-7.21138e-07
-7.65304e-07
1.58842e-06
-1.31917e-06
-2.29797e-06
-6.36853e-07
1.00692e-06
1.9279e-06
1.20159e-06
1.05713e-07
-3.60527e-06
-6.2591e-07
1.19064e-06
2.2854e-06
-1.0605e-06
-1.85081e-06
-2.14e-07
3.69005e-06
1.77982e-06
-2.73461e-06
2.57273e-06
1.78911e-06
1.00408e-06
-1.82343e-06
-9.69758e-07
-1.22352e-06
-2.68126e-06
5.6939e-06
-3.47391e-06
3.25446e-06
1.09306e-06
2.17092e-06
-5.08741e-06
2.85773e-06
-2.73442e-06
-1.43632e-06
1.61279e-06
-2.73931e-06
1.35223e-06
3.07756e-06
4.19568e-06
-8.62547e-06
1.69964e-06
4.05714e-06
-4.40456e-06
2.98465e-06
1.79256e-06
-1.55529e-06
-5.08255e-06
9.62249e-06
-5.35259e-06
5.58986e-06
-2.69761e-07
-7.55643e-07
-1.42667e-06
8.86983e-07
-6.92818e-08
-9.52585e-07
1.34884e-07
-2.61626e-06
-7.76805e-07
4.28005e-06
-7.85712e-08
-2.60697e-06
-4.41347e-06
4.16557e-06
1.69325e-07
3.21481e-06
-1.02353e-05
7.92921e-07
1.46931e-06
4.18169e-06
2.4999e-07
1.3542e-06
3.90868e-06
5.22994e-07
9.54293e-06
1.69045e-06
-4.48539e-08
-1.71229e-06
6.66866e-08
-1.8534e-06
-1.40532e-06
4.94917e-06
-4.16862e-08
-1.85656e-06
-2.35189e-06
2.3013e-06
8.8998e-09
2.03262e-06
-6.24107e-06
-6.73646e-07
1.56963e-06
-3.53308e-07
5.65567e-07
6.78036e-06
-1.78419e-06
-5.56174e-06
6.61527e-06
-4.48007e-06
-5.17264e-06
-5.15295e-06
4.69991e-08
-7.29044e-06
1.8908e-06
2.23615e-06
1.53478e-06
-5.66173e-06
-1.19582e-07
1.89861e-06
1.11772e-07
2.41267e-06
-2.96098e-07
-2.24232e-06
-1.5339e-06
5.67483e-06
-2.44844e-06
3.17889e-07
1.79425e-06
-2.7079e-06
2.67302e-06
1.30514e-06
-6.58691e-07
-1.30803e-06
6.61581e-07
-2.11586e-06
-2.9682e-07
3.71782e-06
-1.00619e-06
-1.76836e-06
2.55227e-06
3.59458e-07
-4.21976e-06
1.09461e-06
2.11924e-06
-1.43778e-06
2.23557e-06
-2.08451e-06
3.34682e-06
-5.43236e-07
-4.22019e-06
1.41661e-06
-2.64426e-06
-2.68458e-06
8.67566e-06
-1.00957e-06
-2.17793e-06
-4.97362e-07
2.46834e-06
-2.98054e-06
2.10303e-06
-4.77832e-06
-1.56233e-06
1.34608e-06
-3.67949e-06
-1.08595e-06
2.4918e-06
5.61499e-06
-7.02084e-06
4.07705e-06
8.13544e-06
-1.32984e-05
3.777e-06
2.79185e-06
-1.71689e-06
-4.67159e-06
1.01655e-05
-5.10636e-06
6.18133e-06
1.07287e-06
1.9562e-06
2.01627e-06
1.58926e-05
-8.33263e-06
-1.71089e-05
9.54892e-06
-3.10827e-05
-4.48984e-06
5.14652e-05
-1.44997e-05
-2.49157e-05
2.85701e-05
-4.51975e-08
-4.56338e-05
1.24882e-05
2.56308e-05
-2.09445e-05
2.89429e-05
-3.54894e-05
-1.66119e-05
-1.30323e-05
1.58065e-05
1.38377e-05
5.94188e-06
2.74397e-05
-4.99935e-05
3.03798e-05
-3.74703e-05
-3.41758e-06
-2.80899e-05
4.7314e-05
-3.11304e-05
4.15506e-05
6.47703e-06
-1.01677e-05
8.76695e-06
-1.53029e-06
1.60622e-07
1.88483e-06
-5.15163e-07
1.62566e-06
1.64133e-06
-4.79728e-06
2.07662e-07
1.57862e-06
1.51418e-06
-1.86541e-06
5.58893e-07
-1.41189e-06
4.50468e-06
6.66042e-07
-8.90119e-07
1.13898e-06
-5.01088e-06
-8.33207e-06
-8.36644e-06
2.17094e-05
-5.90684e-06
-1.57612e-05
1.66571e-05
-1.13449e-05
-2.89397e-06
7.90742e-06
2.06578e-05
-3.99102e-05
1.40737e-05
-9.06026e-06
4.82187e-06
7.47554e-08
1.05291e-05
-5.18052e-06
3.09148e-06
1.53148e-05
-1.32258e-05
7.11745e-06
1.43276e-05
-2.66256e-05
2.10042e-06
8.10851e-06
5.21245e-06
-8.53688e-06
5.42485e-06
-8.83865e-06
2.21596e-05
-1.09658e-06
6.88734e-06
5.37958e-06
4.06022e-06
3.92169e-06
3.46482e-06
-1.14467e-05
-1.0706e-06
4.40181e-06
7.29009e-07
4.98925e-06
-2.13816e-06
-5.48835e-06
-3.53426e-06
1.34244e-05
-5.59232e-06
8.32981e-07
3.7188e-06
-5.8463e-06
5.17379e-06
-1.24209e-05
-1.55956e-05
-9.3222e-06
3.73386e-05
-1.144e-07
-9.3621e-08
-1.22129e-05
-1.50984e-05
-6.11519e-07
-1.5033e-05
1.51936e-05
-2.5418e-07
9.28064e-06
-3.65265e-05
1.16529e-05
-1.74707e-05
1.75243e-05
-9.4057e-07
1.07872e-06
6.56562e-07
-7.94715e-07
1.88191e-06
1.37189e-06
-4.19437e-06
1.91182e-06
1.04881e-06
-1.41826e-06
-5.89025e-07
2.66384e-06
-1.5597e-06
-6.53274e-07
1.24318e-06
-1.43098e-06
2.56597e-06
-2.4756e-06
2.47811e-06
-6.33055e-06
6.32803e-06
4.57551e-06
-2.14185e-06
-4.90926e-06
-6.28933e-06
1.3343e-05
-3.79767e-06
6.10799e-06
-4.45216e-06
6.19009e-06
-1.4897e-05
-8.42166e-07
6.60818e-07
-9.82622e-07
1.01209e-06
-8.1791e-06
-1.84874e-05
2.56544e-05
-1.09423e-05
-1.84818e-05
3.04362e-05
-9.72788e-06
-9.39353e-06
6.00375e-06
1.65889e-05
-3.23205e-05
2.07967e-05
-2.41864e-05
6.13409e-06
-8.02706e-06
8.44333e-06
-1.60405e-05
9.67831e-06
1.54323e-05
-9.07015e-06
3.39198e-05
-5.54165e-07
-4.94061e-05
1.08377e-05
3.27605e-05
-2.67652e-05
-4.53761e-07
4.26513e-05
-1.15141e-05
-2.43212e-05
2.22554e-05
-3.43237e-05
3.26393e-05
-1.86549e-06
-2.46907e-06
2.02293e-06
2.31163e-06
5.66989e-07
2.45467e-06
-4.88714e-06
3.46358e-06
-5.36566e-06
-3.36997e-07
-3.61825e-06
5.97818e-06
-2.88454e-06
4.85917e-06
1.02705e-06
-1.45692e-06
8.72378e-07
-1.76483e-06
-1.49158e-06
-1.70362e-06
4.96003e-06
6.18116e-07
-6.03015e-07
-1.77993e-06
-9.57826e-07
8.43577e-08
-1.33452e-06
-9.72111e-07
-1.0924e-06
-2.02205e-06
-3.02234e-06
-1.53161e-07
-7.11793e-07
4.3761e-07
4.27343e-07
-1.00228e-07
4.27001e-07
-4.79934e-07
6.84411e-07
-1.49643e-06
1.74256e-07
6.90355e-07
1.21165e-06
-6.10053e-07
2.58642e-06
-2.2322e-06
-4.48417e-07
2.01468e-06
6.65931e-07
2.56291e-06
-4.48557e-07
-4.34654e-06
1.70869e-06
4.05795e-07
-3.68485e-07
8.92049e-07
1.18513e-06
-7.78059e-07
8.15369e-07
8.39879e-07
-2.06649e-06
3.74661e-06
-1.20553e-06
-1.44242e-06
-7.20519e-07
3.36847e-06
-4.45637e-07
-1.58965e-06
8.29764e-07
-1.45122e-06
-4.36841e-07
5.33561e-07
3.93022e-07
-2.3778e-06
9.12089e-07
1.14328e-06
-2.33991e-06
1.33485e-06
9.03261e-07
1.16868e-06
5.67091e-07
-2.63903e-06
-2.43106e-07
-1.38882e-07
1.28525e-06
1.03179e-06
-1.06209e-07
1.61485e-06
-9.18828e-07
-8.34907e-07
-7.21468e-07
3.62157e-06
-1.02204e-06
1.33235e-06
-1.37377e-06
1.18014e-06
-1.72514e-07
-1.73684e-06
7.29221e-07
-1.65637e-06
-5.58653e-07
3.39516e-06
-1.37842e-06
-4.50466e-07
2.67735e-06
9.76636e-07
-5.39083e-06
1.67258e-06
1.734e-06
-1.39172e-06
2.50564e-06
-1.7935e-06
1.13273e-05
2.51836e-07
-1.08349e-05
-7.44325e-07
-9.61091e-06
-5.29128e-06
2.62295e-05
-1.20695e-05
2.71046e-06
1.79253e-05
3.98004e-06
-3.39749e-05
1.05855e-05
1.00503e-05
-1.23059e-05
1.76001e-05
-1.91607e-05
-4.82291e-06
1.62347e-05
5.02949e-06
-1.64412e-05
2.25302e-05
-1.41327e-05
-1.32204e-05
-5.81142e-06
4.45763e-05
-2.70317e-05
1.66853e-05
1.53758e-05
7.17876e-06
-5.06517e-05
1.66636e-05
-2.36175e-05
2.75375e-05
2.02365e-05
2.51778e-05
1.31465e-05
-5.85608e-05
3.23047e-06
-4.93669e-06
2.19427e-05
2.31669e-05
5.24131e-06
3.44894e-05
-2.62259e-05
-1.32002e-05
-1.3536e-05
6.99681e-05
-2.23381e-05
3.19691e-05
-3.54175e-05
-1.30625e-06
-1.02e-05
6.1669e-08
1.14445e-05
-1.49763e-05
1.61861e-05
-2.51613e-06
9.02844e-06
-3.42047e-05
1.50368e-05
-1.39137e-05
-1.06142e-06
-4.20867e-06
3.069e-05
-1.8773e-05
3.07505e-05
-2.36582e-05
-3.14069e-06
-3.04865e-06
-1.87003e-06
8.05937e-06
-7.54825e-08
-2.81989e-06
-2.45318e-07
-3.23651e-06
1.12378e-07
4.64657e-06
1.49959e-06
-9.38267e-06
3.42698e-06
1.33197e-06
3.05928e-06
-4.37958e-06
4.61622e-06
-1.86854e-06
-7.7384e-08
1.20128e-06
7.44638e-07
1.51287e-06
7.96251e-07
-4.17766e-06
-3.34049e-08
1.46889e-06
1.93038e-06
-1.52835e-06
-4.35436e-07
-9.85514e-07
4.38479e-06
1.01792e-06
-1.75002e-06
1.23369e-06
-2.9832e-06
-1.65255e-06
-4.94196e-07
5.12995e-06
6.6224e-07
-1.64898e-06
-1.99646e-06
-1.66401e-06
6.73691e-07
2.86784e-06
3.86124e-07
-4.91797e-06
1.5452e-06
1.99633e-06
2.31177e-06
-3.57463e-06
3.36278e-06
2.33718e-06
-3.86683e-07
4.17149e-07
-2.36765e-06
-3.52802e-06
-1.46502e-06
7.33021e-06
-2.72019e-06
-1.19451e-06
-3.28522e-06
2.41537e-06
1.287e-06
1.20438e-06
-6.85725e-06
-2.52142e-06
3.47177e-06
-4.03723e-06
2.10372e-07
2.48732e-06
-2.17029e-06
-5.2741e-07
2.16467e-06
2.44062e-07
-2.19836e-06
-1.30888e-06
5.96088e-06
-3.17624e-06
2.58424e-06
8.36068e-07
1.86764e-06
-7.24225e-06
-1.5834e-06
2.85876e-06
-1.88605e-06
2.6562e-06
2.07912e-06
1.94074e-06
-6.67605e-06
8.22575e-08
2.77863e-06
-2.0469e-07
2.0624e-06
9.89785e-08
-2.16691e-06
-1.48152e-06
5.71082e-06
-2.3302e-06
2.62264e-07
-1.70834e-06
3.00545e-06
-2.0978e-06
2.02305e-06
3.68902e-08
-1.91906e-06
-1.4088e-07
-2.02599e-06
-1.02948e-06
5.07851e-06
7.12998e-08
-2.06039e-06
-3.15873e-06
2.8783e-06
3.51727e-07
2.01107e-06
-7.23019e-06
-1.8011e-06
3.64992e-06
-1.70909e-06
-7.54329e-08
2.39972e-06
-2.55026e-06
2.2597e-07
1.88914e-06
-1.89801e-06
-6.65636e-08
-2.03588e-06
6.32475e-06
1.79859e-06
1.38191e-06
1.86865e-06
-1.36621e-07
-1.03366e-06
8.66429e-07
-2.20201e-06
1.21608e-07
-2.26252e-06
2.51144e-06
-3.70534e-07
-1.91928e-06
1.26382e-07
1.9145e-06
2.02413e-06
-6.20592e-06
1.82084e-06
-1.98883e-06
2.94374e-07
-1.492e-06
5.22734e-06
-9.90475e-07
2.00992e-06
-9.55179e-07
-1.88574e-06
-1.00074e-07
9.15327e-08
1.89428e-06
2.23776e-06
1.52215e-06
-5.64564e-06
2.39708e-06
-2.59397e-07
2.26167e-06
-2.44567e-06
2.75533e-07
-1.511e-06
5.66695e-06
1.80431e-06
-2.72782e-06
2.69038e-06
-1.74499e-06
2.10924e-07
1.76334e-06
-2.29268e-07
2.63619e-06
1.05356e-06
-5.43474e-06
2.08675e-06
7.60363e-07
-2.33998e-06
-8.88609e-07
4.99193e-06
-1.85232e-06
-7.16934e-07
1.99449e-06
-2.79324e-06
3.19263e-06
-1.19875e-06
6.44278e-07
1.19021e-06
-6.35734e-07
2.30959e-06
1.01766e-07
-3.61011e-06
1.00507e-06
1.9488e-06
-2.30547e-06
-1.90148e-07
3.68583e-06
-1.05233e-06
-1.88888e-06
1.78929e-06
-2.73985e-06
2.60421e-06
-6.64437e-07
-9.74579e-07
6.79889e-07
9.59127e-07
-4.50456e-07
1.96937e-06
-2.18335e-06
1.81577e-06
-3.24081e-06
3.49557e-07
-1.59997e-06
1.9303e-06
-1.40642e-06
2.7151e-06
-3.65197e-07
9.28147e-07
-1.49389e-07
1.1667e-05
9.78025e-08
-1.15428e-05
-2.22085e-07
-1.34683e-05
-9.84016e-06
3.49755e-05
-1.37876e-05
4.17108e-07
1.3199e-05
9.81348e-06
-3.45552e-05
1.37077e-05
-7.30843e-07
-7.68387e-06
1.15514e-05
-1.1658e-05
-7.54762e-06
-5.86502e-06
-1.24168e-06
1.46543e-05
2.10339e-06
-3.13363e-06
-6.51739e-06
2.03326e-06
-5.79489e-06
-1.15503e-05
4.64272e-06
8.94085e-06
1.97113e-06
-1.93163e-05
4.97468e-06
-6.13718e-06
8.37572e-06
-7.02232e-06
-1.92495e-06
-9.51198e-06
1.84593e-05
5.8407e-06
-6.38991e-06
-6.47312e-06
-1.16382e-05
1.5554e-05
6.05677e-07
1.25778e-05
-1.95733e-05
1.59615e-05
-2.1829e-05
4.57103e-06
-3.63149e-06
1.10206e-05
-1.7009e-06
1.7206e-06
4.39714e-06
-4.41684e-06
2.83608e-06
2.54468e-06
-7.08166e-06
1.19327e-06
3.36341e-06
3.34633e-06
-4.88606e-06
2.733e-06
-4.01247e-06
1.07222e-05
2.36676e-06
-4.70814e-06
2.75143e-06
1.22538e-07
6.12423e-07
1.09145e-06
-1.82641e-06
8.50746e-07
-1.48992e-06
7.61708e-07
3.18374e-06
-1.72057e-06
1.52857e-06
-1.76813e-06
-1.25036e-06
-6.17583e-07
2.90786e-06
8.20465e-07
-3.84873e-06
1.26014e-06
-2.76954e-06
2.97243e-06
-4.13721e-06
4.55141e-06
-6.89449e-06
1.04717e-06
-1.0374e-06
-2.29936e-06
6.2544e-06
-3.64334e-07
2.07142e-06
7.42673e-07
-1.97047e-06
-8.43617e-07
-1.2059e-06
-1.88388e-06
5.1612e-06
-1.8444e-06
1.38117e-06
1.20345e-06
2.09341e-06
-5.26733e-06
2.92303e-06
-2.5632e-06
-5.36453e-07
1.5756e-06
-2.87444e-07
6.21002e-07
-1.00631e-06
-2.7168e-07
6.56989e-07
2.89458e-07
4.41005e-08
6.64321e-07
-1.06896e-06
2.34957e-07
-1.09215e-06
-1.15228e-06
-4.42294e-07
2.68672e-06
9.82188e-07
-2.31959e-06
2.45252e-07
-1.06996e-06
8.99872e-07
1.35651e-07
3.64578e-08
-1.24207e-06
8.49306e-07
1.86217e-07
7.14616e-07
-2.99775e-06
1.12163e-06
-6.85005e-06
1.2192e-05
5.49967e-06
-1.08416e-05
2.09722e-05
-4.48219e-06
-2.33401e-05
-1.08402e-06
3.42483e-05
-1.95481e-05
7.99825e-06
1.70495e-05
-2.85944e-06
-2.75302e-05
1.57794e-05
-2.3121e-05
2.26936e-05
4.82471e-06
-2.39174e-07
-5.27289e-06
6.87354e-07
-7.47379e-06
-4.09655e-06
1.63951e-05
-9.30763e-06
1.59467e-06
7.80699e-06
4.79887e-06
-1.78787e-05
6.73509e-06
1.75925e-06
-7.55634e-06
1.01949e-05
-1.20651e-05
3.06126e-06
-1.16884e-07
-2.84327e-06
-1.01098e-07
-3.21072e-06
-2.15625e-06
8.42823e-06
-2.97651e-06
-3.51094e-07
3.78573e-06
3.27927e-06
-9.90828e-06
3.7787e-06
-9.40679e-08
-1.72883e-06
3.35128e-06
-1.42607e-06
7.02614e-07
-1.69005e-06
-1.13077e-06
2.11821e-06
-2.92549e-06
9.16932e-07
2.71117e-06
-7.65683e-07
-3.84986e-06
3.95333e-06
-4.15031e-07
-4.66907e-06
5.39561e-07
5.53198e-06
-2.67416e-06
4.13065e-06
-3.85488e-06
-1.28048e-06
-1.81678e-06
-2.16632e-06
5.26359e-06
-7.24273e-07
-2.81738e-06
2.26117e-06
-1.83636e-06
-7.04697e-07
1.44914e-06
2.62055e-06
-5.90604e-06
3.08557e-06
-2.34112e-06
1.1604e-06
-1.35723e-06
2.07964e-06
1.38295e-06
-1.03594e-06
-1.40835e-06
1.06134e-06
-3.13118e-06
2.26151e-08
4.49152e-06
-9.19446e-07
-3.24768e-06
2.77204e-06
-1.22526e-07
-4.05787e-06
8.23489e-07
3.00989e-06
-1.89924e-06
2.74534e-06
-2.94121e-06
-3.82055e-06
-2.48542e-06
-1.17765e-06
7.48362e-06
5.28314e-07
-2.90008e-06
-1.44878e-06
-2.52869e-06
5.71582e-07
3.95909e-06
1.16362e-06
-7.6514e-06
2.75086e-06
1.77981e-06
3.29962e-06
-5.03608e-06
4.87283e-06
-1.92069e-06
-2.57755e-06
-1.45879e-06
5.95703e-06
-2.3895e-07
-1.92297e-06
2.41231e-07
-2.62273e-06
-1.93779e-07
5.50956e-06
5.16643e-06
-1.32987e-05
5.08077e-06
2.35017e-07
-1.00192e-06
4.62389e-06
2.24154e-06
-1.22979e-07
2.62274e-06
-2.78715e-06
2.87387e-07
2.12496e-06
-2.13258e-06
-1.1536e-07
-1.15762e-06
5.90532e-06
3.06947e-06
1.57645e-06
-6.77849e-06
3.18073e-06
-2.26624e-07
3.26952e-06
-4.48023e-06
5.29264e-06
-1.74915e-06
-1.62267e-06
-1.18718e-06
4.559e-06
1.55604e-09
-1.64893e-06
-1.0178e-07
-1.60183e-06
-1.92813e-08
2.00246e-06
1.40008e-06
-5.00437e-06
1.98815e-06
-4.9739e-09
1.04106e-06
-1.28991e-06
1.84203e-06
-1.90039e-06
-1.52965e-06
-1.55406e-06
4.9841e-06
-3.55275e-08
-1.85594e-06
-8.92581e-09
-1.48563e-06
-7.95508e-08
1.39136e-06
9.90837e-07
-3.86782e-06
1.49381e-06
-1.82002e-07
8.04083e-07
-1.66918e-06
7.4383e-07
-5.70671e-07
-7.32837e-07
6.28991e-07
6.74517e-07
-1.03866e-06
1.6003e-06
-1.13231e-06
1.013e-06
-2.7845e-06
7.64502e-07
-1.32272e-06
1.18721e-06
-5.39992e-07
1.97901e-06
-1.69253e-06
2.75284e-06
-2.00225e-06
5.12846e-06
-3.51925e-06
1.26237e-05
-1.42329e-05
-7.499e-06
6.5671e-06
6.06037e-06
1.24318e-05
-2.34501e-05
-2.1057e-06
-1.04826e-05
1.91554e-05
-1.37871e-05
1.77418e-05
-4.40735e-06
6.54852e-06
-5.76261e-06
-1.32007e-05
-3.65637e-06
7.44155e-06
9.41552e-06
8.04528e-06
2.96337e-06
-2.42094e-05
-2.58191e-06
6.97082e-06
1.18668e-05
-8.27816e-06
-6.17055e-06
-3.4555e-06
2.22931e-05
9.48715e-06
-1.48019e-05
1.34732e-05
-3.24666e-06
-5.23244e-06
-4.84154e-06
1.33206e-05
-1.65045e-06
-5.71272e-06
4.11651e-06
-1.51725e-06
-5.36565e-06
-4.6296e-06
6.60256e-06
-3.49021e-06
5.57693e-06
-1.55722e-05
2.12722e-06
-2.26301e-06
3.88824e-06
-1.34917e-06
3.38556e-06
-5.37273e-06
3.33634e-06
3.61066e-06
-3.18673e-06
-1.7731e-06
-4.46712e-06
1.14633e-05
1.34934e-06
3.8845e-06
-8.42057e-06
5.15478e-06
-5.57853e-06
-2.05837e-06
2.74603e-06
-3.5466e-06
-4.3907e-07
-2.58179e-06
-3.48679e-06
6.50765e-06
-2.20794e-06
-4.10811e-06
5.87699e-06
-2.06706e-06
-2.72267e-06
-4.70089e-07
3.97489e-06
-5.57187e-06
5.30034e-06
-8.49311e-06
-2.16096e-07
1.40833e-06
2.72011e-07
3.54697e-07
1.468e-06
1.60755e-07
-1.98345e-06
7.71573e-07
-1.97268e-06
1.5558e-06
-4.153e-07
2.65487e-06
6.39885e-08
4.31184e-07
-3.34417e-07
9.81595e-07
-2.90106e-06
-1.8354e-07
-8.07545e-07
-1.67656e-07
-4.45324e-07
-5.97467e-07
-3.39137e-07
1.38193e-06
4.3426e-07
-1.42678e-07
-7.36906e-07
-1.29066e-07
-3.41413e-08
2.61859e-06
-3.62646e-06
6.68731e-07
-5.77378e-07
4.5779e-06
-1.5785e-07
-5.62206e-07
-3.91337e-06
-6.60582e-06
6.35097e-06
6.63154e-06
-6.37669e-06
1.52286e-05
-1.96379e-06
-1.98707e-05
4.02829e-06
1.75513e-05
-1.54544e-05
1.70162e-06
2.03843e-05
-3.72728e-06
-1.81038e-05
1.11817e-05
-1.68727e-05
1.69116e-05
-1.60347e-05
-2.37156e-07
1.66694e-05
-3.97602e-07
1.37443e-05
1.04987e-05
-4.02776e-05
-2.25335e-07
1.37324e-05
1.81663e-05
-1.83868e-05
-4.8567e-09
-1.07734e-05
4.26721e-05
1.40498e-05
-2.19378e-05
1.99458e-05
2.65093e-07
-1.88227e-05
1.94456e-05
-8.88067e-07
-1.52759e-05
1.53439e-05
1.97102e-07
1.1613e-05
-4.57116e-05
-1.90648e-05
-1.16338e-05
4.60424e-05
-1.94322e-05
5.64488e-07
-1.5546e-05
2.33579e-05
-2.33652e-05
-9.32673e-06
-1.84061e-06
4.95811e-06
6.20923e-06
5.64075e-06
8.74442e-07
-1.58419e-05
-2.38379e-06
6.18393e-06
1.03619e-05
-3.64555e-06
-9.10015e-06
-1.04466e-06
1.75905e-05
6.9291e-06
-9.70021e-06
1.08426e-05
4.60808e-06
1.02868e-06
-2.47941e-06
-3.15735e-06
-2.68854e-06
-6.65827e-07
7.96244e-06
-2.67216e-06
1.0123e-06
4.72522e-06
4.49913e-07
-7.84729e-06
2.23901e-06
3.49852e-06
-3.60036e-06
5.17354e-06
-5.62986e-06
-3.60421e-06
-1.77819e-06
1.28356e-07
5.25405e-06
1.29748e-06
-1.24029e-06
-3.66141e-06
-1.83314e-06
1.35243e-06
4.09422e-06
-8.31699e-08
-5.84419e-06
1.17965e-06
4.267e-06
2.68419e-06
-4.00765e-06
3.99219e-06
-2.83643e-06
-8.596e-08
2.52706e-06
3.95329e-07
2.76556e-06
1.80968e-06
-7.41166e-06
2.54997e-06
1.29628e-07
-4.69009e-06
-3.7798e-06
1.09969e-05
-4.83792e-06
5.43154e-07
2.23754e-06
-5.26578e-06
1.00771e-06
2.73319e-07
4.4184e-06
-4.56209e-06
3.44095e-06
-3.8519e-06
6.84272e-07
8.86706e-06
5.72048e-06
-1.76942e-05
-3.3972e-06
2.98955e-06
2.94275e-07
-3.10067e-06
-1.83147e-07
-2.51837e-06
-9.98943e-07
6.50686e-06
-2.59897e-06
3.74881e-07
6.82614e-06
6.21373e-06
-1.61406e-05
6.62208e-06
2.09221e-08
-3.00125e-06
8.62439e-06
6.13507e-07
3.93773e-06
4.34182e-07
-3.99703e-06
-2.85413e-06
-4.67267e-06
4.35525e-06
7.51606e-07
-8.0562e-06
1.01255e-05
-7.13688e-06
-2.33768e-06
-4.53496e-06
1.40095e-05
-1.45086e-07
-7.56004e-06
5.68241e-07
1.17831e-05
-1.47193e-05
1.32051e-05
-1.35707e-06
-2.13742e-07
1.42031e-06
1.50503e-07
1.05542e-06
1.04629e-06
-3.45878e-06
1.38502e-06
-5.43347e-07
-1.55546e-06
-1.64675e-06
4.62253e-06
-1.76628e-06
3.61322e-07
4.36837e-07
-1.15682e-06
1.75116e-07
-5.36943e-07
1.12191e-07
-1.32147e-07
5.56898e-07
5.5418e-07
7.72527e-07
-1.86365e-06
9.8903e-07
-3.22658e-07
8.62021e-07
-1.03315e-06
3.89877e-08
-3.58815e-07
1.77773e-06
6.64818e-07
-9.25446e-07
1.29503e-06
-5.00393e-07
-4.51888e-07
4.21497e-07
5.30784e-07
-8.87716e-08
7.98333e-07
-1.20995e-06
6.89905e-07
-1.23056e-06
1.14199e-07
-9.39973e-07
1.24727e-06
-1.16508e-06
1.81006e-06
-4.70035e-08
-3.19742e-07
-2.97072e-07
2.61727e-07
7.68837e-07
-3.04433e-07
-7.26132e-07
4.95454e-07
-4.94663e-07
2.60935e-07
3.37241e-08
1.12008e-06
1.61834e-08
-1.63093e-06
3.11607e-07
1.06941e-06
-6.56232e-07
1.00156e-06
-9.44483e-07
-1.11535e-06
-5.8344e-08
-1.66953e-06
2.84322e-06
1.19735e-06
-1.08973e-06
-1.22297e-06
-2.00089e-06
3.13989e-06
-5.24845e-08
2.31863e-06
-3.35587e-06
2.54271e-06
-3.81816e-06
4.45818e-07
-1.28078e-07
1.319e-06
1.63626e-06
7.80833e-07
2.17721e-06
-4.5943e-06
-1.2044e-06
1.75562e-06
1.08503e-06
2.93778e-06
-3.36135e-06
-9.05497e-07
-2.70603e-06
5.36715e-06
-3.11567e-06
3.29521e-06
-1.19367e-06
1.42542e-06
-2.13213e-06
4.26214e-06
2.18585e-06
-4.70315e-06
-1.74483e-06
-3.4308e-06
-6.34948e-06
1.40424e-05
-8.84477e-06
7.59982e-06
3.43565e-06
5.95366e-06
-1.40925e-05
6.71739e-06
-5.02657e-06
-3.49887e-06
3.86678e-06
-6.38998e-06
-1.35256e-05
-4.92611e-06
3.01612e-06
1.54356e-05
5.71411e-06
-1.94419e-06
-1.72955e-05
-4.85987e-06
5.64786e-06
1.28962e-05
-2.88219e-06
-1.48738e-05
1.49912e-06
1.70449e-05
9.6503e-06
-1.44767e-05
1.41655e-05
-5.62011e-07
-5.3044e-06
2.24603e-07
5.6418e-06
-6.82164e-06
7.2461e-06
-9.86465e-07
5.17851e-06
-1.73045e-05
5.91473e-06
-5.7589e-06
6.8772e-08
-3.74126e-06
1.52978e-05
-4.52902e-06
8.03386e-06
-5.10941e-06
8.44422e-06
-8.38336e-06
7.91808e-09
-1.14114e-05
3.51534e-05
9.61197e-06
-2.31047e-05
9.81817e-06
-1.98276e-07
6.44063e-06
-4.39009e-07
1.15081e-06
2.15403e-06
-2.86584e-06
1.7752e-06
1.40956e-06
-3.62377e-06
1.84405e-06
1.08197e-06
-8.19661e-07
-2.69888e-06
5.36259e-06
-2.95651e-06
3.21882e-06
5.55686e-07
-2.10263e-06
1.08403e-08
8.51836e-07
-1.13342e-06
-5.15346e-06
5.43505e-06
-1.3969e-06
-2.94343e-06
5.19216e-06
-1.01999e-06
-1.51033e-06
-1.0624e-06
2.46303e-06
-2.42062e-06
2.51586e-06
-5.08859e-06
-1.85291e-06
1.37251e-06
-4.49052e-06
1.64161e-06
5.05057e-08
-8.01369e-07
-8.90742e-07
-1.02902e-06
7.03612e-08
2.60027e-06
4.25936e-08
-1.02111e-06
-1.6432e-06
1.33883e-06
3.46963e-07
1.20702e-06
-3.87134e-06
-1.56958e-06
2.97877e-06
-1.16392e-06
4.92587e-06
-2.32264e-06
1.34522e-06
-3.94845e-06
-7.50885e-06
2.38821e-07
1.21959e-05
-1.80198e-06
-8.02951e-06
-4.29619e-06
1.61369e-06
4.02773e-06
-6.87945e-07
-7.5567e-06
-4.38158e-06
6.23409e-06
-6.87151e-06
1.33974e-07
-5.54035e-07
-1.35155e-06
1.77161e-06
-2.13395e-06
3.18175e-06
-9.13825e-07
2.53559e-09
-2.69052e-06
2.48845e-06
-3.13657e-06
6.50647e-07
2.03108e-06
-2.23315e-06
4.66161e-07
-4.20975e-07
1.14569e-06
-1.73019e-05
-1.60651e-05
-1.11866e-05
4.45537e-05
-3.52505e-07
-1.39495e-05
-2.99996e-06
-1.59718e-05
-4.45826e-07
1.84398e-05
1.04398e-05
-4.48514e-05
1.80201e-05
-2.60821e-08
1.11636e-05
-1.46733e-05
1.79971e-05
1.52917e-05
8.52643e-07
-1.53145e-05
-8.29853e-07
-1.62581e-05
-1.28006e-05
4.43505e-05
-1.77209e-05
2.31545e-06
1.73961e-05
1.46368e-05
-4.73475e-05
1.9728e-05
-3.16177e-06
-9.91479e-06
1.68422e-05
-1.29988e-05
2.61037e-06
-2.01696e-06
-5.94047e-06
5.34707e-06
-4.21867e-06
-4.78622e-06
1.16153e-05
-1.71736e-06
-4.51827e-06
-3.67761e-06
6.24405e-06
-4.28381e-06
6.10417e-06
-1.43e-05
-1.82761e-06
3.28544e-06
-1.66391e-06
3.93567e-06
-1.99256e-06
-4.26881e-06
2.32571e-06
-7.39791e-06
-1.30467e-06
1.26382e-05
-4.3579e-06
-5.03257e-06
7.61444e-06
1.56067e-06
-1.34439e-05
3.98308e-06
5.95707e-06
-5.40469e-06
8.08311e-06
-8.20192e-06
-3.75804e-06
-1.74037e-07
3.26824e-06
6.6384e-07
3.65778e-06
2.49657e-06
-9.9124e-06
3.36934e-06
1.14407e-07
-5.4883e-06
-4.56335e-06
1.33199e-05
-5.74563e-06
9.21173e-07
2.71409e-06
-5.96315e-06
1.52008e-06
3.80742e-07
5.45724e-06
-5.72357e-06
4.03031e-06
-4.60928e-06
9.59708e-07
1.10076e-05
7.67408e-06
-2.33101e-05
-2.89835e-06
-5.26087e-07
2.47955e-06
5.69833e-07
-2.5233e-06
3.80968e-06
-2.8964e-06
-1.43936e-06
-1.17754e-06
7.46676e-06
-3.94753e-06
2.74628e-06
1.77109e-06
1.16389e-06
-7.63472e-06
3.29004e-06
-5.02255e-06
4.85878e-06
-1.99464e-06
-6.47197e-07
1.97237e-06
6.69467e-07
1.25412e-06
2.24344e-06
-5.4922e-06
2.32582e-06
-1.7189e-06
-1.57559e-06
-2.82367e-06
6.37163e-06
-3.00261e-06
2.09649e-06
2.901e-07
-1.04927e-06
-2.07749e-07
-1.73901e-06
-5.14699e-07
1.72309e-06
5.30617e-07
1.37772e-06
2.06455e-06
-5.18128e-06
2.3874e-06
-1.52438e-06
-1.42225e-06
-2.07217e-06
5.21751e-06
-2.47689e-06
1.58526e-06
7.36996e-07
-1.14934e-06
1.05223e-06
2.1733e-07
3.48909e-06
-3.37462e-06
-3.31805e-07
4.99349e-06
-5.37664e-06
6.00486e-07
-5.72087e-06
-6.98474e-06
1.33012e-06
-1.00814e-05
-4.71398e-06
-1.3387e-06
-1.03686e-05
-1.79687e-06
-2.66533e-06
-1.49998e-07
4.61219e-06
3.23694e-07
-1.19416e-06
-9.26402e-07
2.16819e-07
-2.55845e-06
2.37045e-06
-2.66433e-06
-9.0028e-07
-4.19421e-06
6.41466e-06
-5.3161e-06
-1.05389e-05
-5.33632e-06
-6.99171e-06
-3.37428e-06
-2.88844e-06
-1.12663e-05
-1.23823e-05
-1.02025e-05
-1.04869e-05
3.30717e-05
-3.47847e-07
-1.29759e-05
9.41482e-07
-1.00142e-05
-5.36148e-07
9.75233e-06
7.62924e-06
-2.73957e-05
1.06358e-05
-1.41962e-06
5.50673e-06
-1.08534e-05
5.65558e-06
-1.28052e-06
-9.97343e-07
-1.8851e-06
4.16296e-06
-7.94289e-07
-1.16373e-06
6.77498e-07
-1.02481e-06
-7.6682e-07
2.55004e-07
3.74353e-07
-1.65417e-06
9.92153e-07
-1.50397e-06
3.14422e-07
-1.1038e-06
-5.78523e-07
5.04391e-07
-3.41876e-07
-4.64311e-07
3.01797e-07
-1.00351e-06
1.03287e-07
1.40461e-06
-3.32118e-07
-1.01327e-06
9.96207e-07
-1.37494e-07
-1.32302e-06
2.60875e-07
1.03713e-06
-7.65995e-07
1.13016e-06
-1.23561e-06
5.78065e-07
-4.90764e-08
1.12696e-06
-1.65595e-06
-6.81261e-07
6.44204e-07
6.15123e-07
1.26024e-06
-1.99058e-06
-7.10715e-08
-1.12324e-06
1.83852e-06
-1.21359e-06
1.75765e-06
-2.40947e-07
3.77948e-07
-3.27579e-07
-2.44087e-06
-8.50839e-07
9.90751e-07
2.30096e-06
1.19066e-06
-5.03484e-08
-3.58119e-06
-8.18347e-07
1.15817e-06
2.74689e-06
-1.16028e-06
-2.40496e-06
-1.25371e-07
4.03043e-06
2.14972e-06
-3.36034e-06
3.0151e-06
2.20281e-06
1.03366e-06
-2.2798e-06
-9.5667e-07
-1.17838e-06
-2.61153e-06
5.99272e-06
-2.77137e-06
2.62665e-06
1.73563e-06
3.34038e-06
-7.3558e-06
3.36143e-06
-2.58247e-06
-4.27138e-07
1.17704e-06
1.41868e-07
4.08703e-06
3.74011e-06
4.84562e-06
-1.26727e-05
5.32898e-07
5.29651e-06
-1.74237e-06
3.41928e-06
8.53721e-07
-3.72239e-06
-3.53933e-06
1.0681e-05
-5.82873e-06
2.96007e-06
-3.30072e-06
5.0579e-06
-4.28384e-06
-3.3135e-07
3.60175e-06
7.99367e-06
-1.12641e-05
3.71592e-06
6.1016e-06
-1.01489e-05
3.23191e-06
4.08576e-06
1.99697e-07
-6.13689e-06
9.1691e-06
-8.33727e-06
1.26227e-05
-8.36904e-07
8.01615e-07
-1.1805e-06
-7.16455e-06
-1.24928e-06
4.70409e-06
3.70974e-06
4.75537e-06
2.969e-06
-1.48889e-05
-8.44518e-07
4.35061e-06
6.26266e-06
-5.24865e-06
-1.85853e-06
-2.64447e-06
1.32577e-05
4.18297e-06
-6.46263e-06
6.24259e-06
1.04889e-06
-2.68223e-06
-1.96766e-06
3.601e-06
-4.04201e-06
9.27082e-07
4.16382e-06
-6.45265e-07
-6.07898e-06
7.26272e-06
-2.04438e-06
-7.18599e-06
-2.57475e-07
1.11212e-05
-3.44108e-06
4.11069e-06
-6.13072e-06
-5.42228e-06
6.64027e-07
4.65495e-06
1.03302e-07
1.08996e-05
4.34347e-06
-2.06654e-05
9.72054e-06
1.84311e-06
-1.44574e-05
-1.56345e-05
3.98124e-05
-1.89228e-05
6.30848e-06
-3.043e-06
-7.93653e-06
-1.76223e-05
6.27338e-06
1.2516e-08
-7.20309e-06
9.1719e-07
-1.04892e-05
-3.87923e-06
2.06419e-05
-1.20757e-05
1.59898e-06
5.89707e-06
-2.64736e-05
1.33734e-05
-2.37116e-05
2.57294e-05
2.88541e-05
-6.74034e-05
6.74153e-06
8.69642e-06
2.17914e-05
-5.11532e-05
8.63188e-07
5.03224e-06
-5.67717e-06
-1.50169e-06
3.85567e-06
3.32318e-06
8.64356e-06
6.56988e-06
-2.08906e-05
1.10124e-05
-3.87053e-06
-1.37875e-06
-7.91146e-06
1.31459e-05
-7.43937e-06
9.3838e-06
5.0903e-06
-5.95979e-06
8.19124e-06
-1.33925e-05
-1.34743e-05
-8.71522e-06
3.5582e-05
-7.88039e-08
-1.35983e-05
2.84669e-07
-1.34356e-05
-1.17449e-07
1.80764e-05
1.3581e-05
-4.5093e-05
1.85198e-05
-5.60861e-07
9.65453e-06
-9.6719e-06
1.94591e-05
1.64769e-05
2.02816e-05
1.23805e-05
-4.91389e-05
6.34529e-07
1.68118e-05
-9.69507e-07
1.97805e-05
1.13565e-06
-2.02335e-05
-1.25774e-05
4.96228e-05
-1.94455e-05
-1.75745e-06
1.39362e-05
-2.10012e-05
2.11392e-05
1.54397e-05
1.86694e-05
9.57563e-06
-4.36847e-05
-2.6854e-07
1.08243e-07
1.56e-05
1.728e-05
1.12088e-06
1.88699e-05
-1.62246e-05
-2.53701e-06
-1.0867e-05
4.53368e-05
-1.37038e-05
2.01168e-05
-2.03528e-05
4.56159e-06
1.99147e-06
-4.49135e-06
-2.06171e-06
-3.43844e-06
-5.48395e-06
1.3484e-05
-7.75167e-06
6.3047e-06
3.40569e-06
5.81099e-06
-1.3708e-05
7.93041e-06
-6.58643e-06
-4.16555e-06
6.61201e-06
-6.10623e-06
-2.43764e-06
-6.06792e-06
-1.72494e-06
1.02305e-05
-1.48509e-07
-2.56753e-06
2.78396e-07
-6.25698e-06
4.0546e-08
-2.063e-06
-9.86488e-06
1.02029e-05
-9.0562e-06
4.42567e-06
1.11542e-05
-2.64674e-05
1.32988e-06
3.92748e-06
7.76586e-07
-9.15207e-06
1.82746e-06
-1.54028e-06
-1.88505e-06
-2.52089e-06
5.94623e-06
-7.31331e-07