/*--------------------------------*- C++ -*----------------------------------*\
| =========                 |                                                 |
| \\      /  F ield         | OpenFOAM: The Open Source CFD Toolbox           |
|  \\    /   O peration     | Version:  v2012                                 |
|   \\  /    A nd           | Website:  www.openfoam.com                      |
|    \\/     M anipulation  |                                                 |
\*---------------------------------------------------------------------------*/
FoamFile
{
    version     2.0;
    format      ascii;
    class       volVectorField;
    location    "0.2";
    object      U;
}
// * * * * * * * * * * * * * * * * * * * * * * * * * * * * * * * * * * * * * //

dimensions      [0 1 -1 0 0 0 0];


internalField   nonuniform List<vector> 
24700
(
(0.0183355 -1.74901 0.0186645)
(-0.00749425 -1.6954 0.0104921)
(-0.00548953 -1.64369 0.00228482)
(0.0723524 -1.44516 -0.0170073)
(0.0317745 -1.55895 -0.037805)
(0.0794551 -1.51216 -0.0558021)
(0.0570433 -1.56305 -0.0481641)
(-0.0106126 -1.48992 0.00476967)
(0.0798251 -0.897496 -0.018843)
(0.0253277 -1.39619 -0.0226948)
(-0.0025707 -1.46777 -0.0219606)
(-0.00362857 -1.49887 0.00426656)
(6.88925e-05 -1.48508 -0.0204998)
(0.00427086 -1.47111 -0.0191538)
(0.00588357 -1.48445 0.00344326)
(-0.0016953 -1.49514 0.000474392)
(-0.0020432 -1.48953 -0.0163183)
(-0.00428849 -1.57061 0.0172502)
(0.0329469 -1.54349 0.0207967)
(0.00238806 -1.67136 0.0943056)
(0.0431781 -1.45212 0.00396609)
(0.00911534 -1.49693 -0.000879467)
(0.0248117 -1.44401 0.00851152)
(0.00398705 -1.57383 0.0525214)
(0.0514184 -1.43794 -0.00201186)
(0.00765419 -1.5139 -0.0059171)
(0.0466866 -1.20648 -0.00213674)
(-0.0107252 -1.49809 0.0101028)
(-0.0255102 -1.50278 -0.0311069)
(-0.0215547 -1.82535 0.102832)
(0.0177484 -1.85475 0.0874019)
(0.0301232 -1.73731 0.0462747)
(0.0596952 -1.80261 0.133956)
(0.0874415 -1.78711 0.0966012)
(0.114237 -1.42582 0.0505853)
(0.141499 -1.65805 0.0570126)
(-0.00541795 0.71325 0.398766)
(0.0368975 0.823233 0.32286)
(0.00656009 0.969703 0.287233)
(-0.029765 0.873719 0.462906)
(-0.0744893 0.727561 0.583439)
(-0.0221864 0.787867 0.457019)
(-0.0850962 0.675469 0.506593)
(0.0132456 -0.248082 0.151511)
(-1.14779e-05 -0.443915 0.10813)
(-0.00370875 -0.56781 0.0927521)
(0.0420124 -0.161334 0.0998621)
(0.0236822 -0.207264 0.17714)
(0.0394384 -0.356671 0.0832817)
(0.0149105 -0.501596 0.0340772)
(-0.19892 -0.74175 0.89736)
(0.0405415 -0.727465 0.749872)
(-0.0395252 -0.698531 0.930475)
(-0.0437726 -1.38599 0.285254)
(0.102115 -1.35186 0.381849)
(-0.289709 -1.30233 0.543095)
(-0.0617277 -1.24771 0.495034)
(0.172887 -2.10326 0.368462)
(0.313322 -2.56347 2.15871)
(0.972234 -2.00665 -0.996002)
(0.288743 -1.72083 -0.890814)
(-0.867589 -1.33092 -0.329599)
(0.65585 -1.75019 -0.922016)
(-0.862089 -1.46013 -0.931325)
(-0.000159636 0.098257 -0.124695)
(0.00239043 0.101782 -0.141757)
(-0.00275021 0.113195 -0.140819)
(0.000567805 0.114348 -0.127472)
(-0.00102744 0.105135 -0.124516)
(0.0024745 0.105065 -0.139566)
(-0.00110282 0.121561 -0.142376)
(0.000122315 0.0128237 -0.143494)
(-0.000430481 0.0139371 -0.131614)
(0.015426 0.0183895 -0.147295)
(-0.00562549 0.0348227 -0.133429)
(0.00385221 0.0504212 -0.111711)
(0.0218673 0.0302161 -0.125456)
(0.0150347 0.02504 -0.135608)
(0.0141371 -1.47642 -0.0812269)
(-0.0271318 -1.14304 0.0191829)
(0.000359403 -1.51868 -0.0749852)
(-0.0591148 -1.58819 -0.0534397)
(0.0410871 -1.29721 -0.105834)
(-0.00933827 -1.54636 -0.118791)
(-0.0176896 -1.5582 -0.100846)
(0.00443198 -0.239503 -0.0333815)
(-0.0498069 -0.1517 -0.0113912)
(0.00224871 -0.0734028 0.0385458)
(0.0455775 -0.190848 0.0984043)
(-0.0252865 -0.231238 0.0821275)
(0.00840938 -0.189245 0.0212442)
(0.069191 -0.116601 0.036518)
(-0.000461977 0.190178 -0.102969)
(0.000292925 0.192246 -0.108319)
(0.000170079 0.188639 -0.101055)
(0.000362478 0.199114 -0.0983094)
(0.00298587 0.19696 -0.0951402)
(0.00156248 0.197403 -0.105626)
(0.00356909 0.19573 -0.100466)
(0.000531417 0.296205 -0.161737)
(-0.00145905 0.291803 -0.160342)
(-0.000411039 0.2927 -0.167698)
(0.00284539 0.297473 -0.172884)
(0.000246137 0.301648 -0.161053)
(0.000375976 0.294145 -0.162804)
(0.00199384 0.293876 -0.173879)
(-0.0042411 0.505281 -0.277855)
(0.00512156 0.500712 -0.258329)
(0.000253233 0.49402 -0.282948)
(0.00135354 0.478723 -0.261598)
(-0.0105567 0.486408 -0.272526)
(0.00811123 0.484428 -0.249963)
(-0.00754494 0.496433 -0.276326)
(0.0115766 0.239039 0.0166882)
(0.0041098 0.296793 0.0197467)
(-0.00187999 0.317131 0.0193819)
(0.00494754 0.294103 -0.00861884)
(-0.00198462 0.272361 -0.00792075)
(-0.00375932 0.246395 -0.0126997)
(0.00857598 0.289357 -0.0171592)
(-0.00846274 0.137353 -0.00144217)
(0.00375904 0.268519 -0.0209257)
(0.00071195 0.260244 0.00749649)
(-0.00316351 0.31588 0.00157)
(-0.000669092 0.313554 0.00320287)
(6.44967e-05 0.313713 0.00603068)
(0.00389722 0.319898 -0.00218338)
(-0.00120649 0.318707 -0.00230087)
(0.00257498 0.319926 -0.00490876)
(-0.00437819 0.321389 -0.00445209)
(-0.000918117 0.311479 -0.00231579)
(0.00140864 0.314009 -0.00461593)
(-0.000322871 0.313209 -0.00107931)
(-0.00565138 0.320174 0.000658961)
(-0.00370631 0.320347 -0.00349443)
(-0.000298957 0.300608 -0.0145459)
(-0.000136606 0.30281 -0.0182368)
(-0.00201551 0.300511 -0.0153069)
(0.000765889 0.302058 -0.0163859)
(0.000484981 0.303783 -0.016675)
(-3.87687e-06 0.303523 -0.0149763)
(-0.000463551 0.30042 -0.0146076)
(-0.00019027 0.209387 -0.106204)
(-0.00256461 0.219284 -0.101854)
(-0.00181238 0.223901 -0.1037)
(-0.00147912 0.211542 -0.111817)
(0.00124763 0.209247 -0.107054)
(-0.004007 0.217748 -0.105722)
(-0.00441406 0.220619 -0.110889)
(-0.00662399 -0.598066 0.0813351)
(0.00517607 -0.484566 0.106262)
(-0.0178121 -0.350134 0.171351)
(0.0106318 -0.201413 0.159763)
(-0.0593557 -0.203418 0.109514)
(-0.0238534 -0.329067 0.0680858)
(-0.0365641 -0.484046 0.0380093)
(0.0040326 0.554295 -0.41139)
(0.0539601 0.860495 -0.741035)
(0.00978365 0.692523 -0.430737)
(-0.00903484 0.550888 -0.269642)
(0.091181 0.38985 -0.268033)
(0.0908696 0.503925 -0.561317)
(-0.0147804 0.485286 -0.315517)
(-0.000765586 2.62945 -1.45015)
(-0.0111461 2.59936 -1.19297)
(-0.077678 2.55666 -1.16692)
(-0.0567611 2.71042 -1.58689)
(0.0382237 2.70343 -1.46459)
(-0.0279336 2.62601 -1.21625)
(-0.177213 2.55611 -1.33822)
(-0.00571717 2.15542 -2.54188)
(-0.0391582 2.0546 -2.64919)
(-0.0469093 2.01651 -2.67746)
(-0.00743714 2.21206 -2.54764)
(0.00392553 2.21878 -2.51699)
(-0.100721 2.13813 -2.57892)
(-0.0854472 2.03219 -2.62373)
(0.00378094 -0.0290108 -0.22149)
(0.00306589 -0.0316208 -0.260941)
(-0.00213979 -0.0228502 -0.243644)
(0.00627912 -0.0310609 -0.226354)
(0.0119635 -0.0246339 -0.224776)
(0.0120589 -0.053333 -0.223936)
(0.0326488 -0.0491061 -0.212333)
(-0.0384767 0.539572 -1.36343)
(0.0426225 0.956475 -1.69964)
(0.0394033 0.684858 -1.6704)
(0.0563851 1.05363 -2.0024)
(0.0222502 0.567179 -1.36126)
(0.147114 1.13827 -1.96495)
(0.0650927 0.51247 -1.34667)
(0.00496177 -1.49294 0.626119)
(0.0129242 -1.35734 0.585329)
(-0.00113088 -1.26703 0.39973)
(-0.00540225 -1.58442 0.403383)
(0.00307039 -1.53615 0.388799)
(0.00324881 -1.46731 0.565936)
(0.0530848 -1.65177 0.589652)
(-0.00395059 -0.615462 0.0531885)
(-0.0188461 -0.683034 0.14044)
(-0.0183837 -0.56793 0.100089)
(0.0176684 -0.719135 0.0713226)
(0.053305 -0.791046 0.0328499)
(0.0288833 -0.694957 0.0440057)
(0.000559776 -0.619017 0.069211)
(0.00382932 -2.01174 -0.0120901)
(-0.00287099 -1.99034 0.0154987)
(0.00607325 -2.01229 -0.024662)
(-0.00444125 -1.983 0.0174454)
(-0.00236152 -1.96808 0.0131406)
(-1.29321e-05 -1.99217 -0.00713435)
(0.00350771 -1.99819 -0.000268308)
(-0.000299266 -0.140257 0.178889)
(0.0178552 -0.20939 -0.0299697)
(0.0551271 -0.241842 0.00947944)
(-0.0397074 -0.172487 0.101471)
(-0.0380778 -0.1318 0.0206913)
(-0.0249198 -0.191138 -0.064248)
(-0.00553824 -0.203738 -0.00547226)
(0.0351027 -0.319014 0.751007)
(-0.00580944 -0.390744 0.782016)
(-0.0067716 -0.349142 0.716121)
(-0.0242787 -0.231583 0.739621)
(0.0281259 -0.170545 0.776434)
(-0.0111217 -0.23382 0.710601)
(0.0633265 -0.177685 0.801455)
(0.00956275 1.38749 1.80821)
(0.134193 1.44919 1.53869)
(-0.0196106 1.37253 1.62633)
(0.10929 1.80603 0.880426)
(0.000362702 1.72008 1.31674)
(0.200914 1.75263 1.12806)
(0.0831648 1.68319 1.44296)
(-0.0165363 2.48419 -1.43521)
(-0.0871205 2.41384 -1.6451)
(-0.02871 2.41701 -1.61052)
(-0.0144427 2.39565 -1.30204)
(-0.0552387 2.32906 -1.32823)
(-0.140179 2.31325 -1.43416)
(-0.119188 2.31304 -1.47847)
(-0.0182747 0.457404 -0.386942)
(0.0590834 0.0655846 -0.297723)
(0.0205077 0.306256 -0.206339)
(-0.0202127 0.402993 -0.349343)
(0.0393081 0.291032 -0.386743)
(0.133812 0.0385947 -0.32724)
(0.0707696 0.263503 -0.239117)
(-0.021149 -0.155478 0.023319)
(-0.0905902 -0.106899 -0.0171106)
(0.068674 -0.141027 0.0517756)
(0.0245752 -0.11311 -0.0336025)
(0.0182697 -0.0579951 -0.0686789)
(0.00376714 -0.0224013 -0.0847894)
(0.0201975 -0.00335406 0.0254664)
(0.0323343 0.00443527 0.00294748)
(0.00426512 -0.0375255 0.0667522)
(0.0132515 0.0485985 0.0166111)
(-0.0335089 0.0381928 -0.00959641)
(0.00199422 0.0738207 0.019038)
(-0.022244 -0.114875 0.264131)
(-0.148508 -0.0576667 0.2061)
(-0.0669668 -0.260866 0.189919)
(0.15121 -0.0542002 0.110594)
(0.124999 0.151286 0.0200561)
(-0.195189 -0.0364164 0.0159827)
(0.0824564 -0.00917193 0.263882)
(0.0468947 0.0528349 -0.199534)
(0.00567555 0.0371217 -0.177277)
(-0.0227411 0.157833 -0.183885)
(-0.0364822 0.117821 -0.1917)
(0.0109493 -0.011223 -0.0943712)
(-0.0684606 -0.0104794 -0.150628)
(0.0275948 -0.0650588 -0.152059)
(0.042442 0.0135167 -0.156184)
(-0.00111171 -0.0530434 -0.242829)
(-0.00392045 -0.00658187 -0.15889)
(-0.0180729 0.0400462 -0.151069)
(-0.0149936 0.0148745 -0.182802)
(-0.0068861 0.0397276 -0.14726)
(0.0263275 0.0470898 -0.129931)
(-0.0181931 -0.193659 0.0665994)
(0.0193636 -0.178445 0.00435553)
(0.0240831 -0.232617 0.0250063)
(0.0135585 -0.302531 0.068716)
(0.0387395 -0.223312 0.0784893)
(0.070189 -0.221782 0.0254937)
(0.0264996 -0.232121 0.0575364)
(0.186264 0.141714 -1.16243)
(0.132692 0.116853 -1.31392)
(-0.0199738 0.400065 -1.77391)
(0.0103622 0.650582 -2.02568)
(-0.0551224 0.58141 -1.92984)
(0.0937285 0.344027 -1.64703)
(0.0330316 0.330559 -1.64419)
(-0.0143323 0.782082 -2.54242)
(-0.0179329 0.753644 -2.45033)
(0.0261967 0.73148 -2.49193)
(0.0468204 0.751464 -2.53755)
(-0.0647636 0.779876 -2.5013)
(-0.102665 0.764995 -2.39494)
(0.00909186 0.725907 -2.48474)
(-0.0581804 0.0982399 -3.17043)
(-0.0134153 0.787081 -3.22302)
(0.0125778 0.354519 -3.13336)
(0.00208784 0.657783 -3.61198)
(0.00753785 0.745058 -3.50746)
(-0.000962504 0.473324 -3.42456)
(-0.040872 0.415156 -3.52336)
(-0.0333219 -1.74017 0.0459614)
(-0.0866216 -1.45547 0.0518568)
(-0.00237369 -1.75238 -0.0141365)
(0.0496116 -2.19473 -0.0463421)
(0.0180067 -2.12286 -0.0446631)
(-0.0245932 -1.96429 -0.0330775)
(0.0336968 -2.10684 -0.0516068)
(-0.000293865 -0.453436 -0.0389621)
(0.00345875 -0.418738 -0.00424488)
(-0.00264212 -0.512931 -0.0211706)
(-0.00795282 -0.463048 0.149379)
(0.00210455 -0.449641 0.0609968)
(0.0264925 -0.455468 0.110146)
(0.0110757 -0.436827 0.0456139)
(-0.0157721 0.0433037 -0.217005)
(-0.004006 0.0434807 -0.221136)
(-0.00118332 0.0143767 -0.230227)
(0.0134711 0.0283961 -0.223675)
(0.00567963 0.0297316 -0.214731)
(-0.00873917 0.0341689 -0.214659)
(-0.0179009 0.038775 -0.206777)
(-0.00136052 0.284891 -0.109874)
(-0.000520128 0.289213 -0.110813)
(-1.03888e-05 0.280487 -0.113391)
(0.000893253 0.285729 -0.122651)
(0.000534124 0.282782 -0.116715)
(0.000303056 0.290329 -0.116865)
(0.000162602 0.286724 -0.11366)
(0.000457952 0.364454 -0.0613774)
(-0.000640392 0.361049 -0.0593862)
(-0.000360306 0.362803 -0.0589991)
(-0.0021175 0.367938 -0.0692106)
(0.00285829 0.370217 -0.0712102)
(-0.00037652 0.365987 -0.0669101)
(0.00347979 0.369232 -0.067165)
(-0.00176462 0.358895 -0.0311475)
(0.00033596 0.35039 -0.0348348)
(-0.000352479 0.350511 -0.0349007)
(3.61411e-05 0.35294 -0.040886)
(0.00172607 0.357893 -0.0398734)
(0.000218179 0.35184 -0.0390726)
(-0.000798564 0.361965 -0.0361905)
(-0.00164778 0.339875 -0.011616)
(0.000780488 0.338755 -0.0104842)
(-0.000106534 0.34048 -0.0161183)
(-0.000168073 0.334503 -0.0137419)
(-0.000117007 0.332059 -0.0150099)
(0.000854115 0.336281 -0.00997799)
(0.000784032 0.335413 -0.0122161)
(-0.00235972 0.326889 -0.011193)
(0.000472208 0.324741 -0.0116677)
(-8.01186e-05 0.326205 -0.00796674)
(0.00114935 0.328572 -0.0158151)
(-0.00114571 0.330603 -0.0152293)
(0.00153662 0.326231 -0.0153912)
(0.000613993 0.327107 -0.0133222)
(-0.000618993 0.319481 -0.0109809)
(-0.000394978 0.320222 -0.0128938)
(0.000742243 0.319874 -0.0098734)
(-0.000785667 0.323008 -0.0106523)
(0.0011936 0.324513 -0.00831556)
(0.00168045 0.322179 -0.00749564)
(-0.000956223 0.322107 -0.0108833)
(0.000857933 0.309265 -0.0183481)
(0.000381255 0.310429 -0.019448)
(0.000789248 0.308342 -0.0195968)
(-0.00226289 0.310251 -0.0161131)
(-0.00113039 0.309301 -0.0160608)
(0.000432007 0.308377 -0.0158892)
(-3.01331e-05 0.308386 -0.0168878)
(0.000144543 0.302 -0.015526)
(0.000659469 0.299712 -0.013629)
(0.00145469 0.299526 -0.0132971)
(9.20453e-05 0.304363 -0.0142971)
(-0.000659803 0.301972 -0.0132774)
(0.000579697 0.304368 -0.0134551)
(0.000328996 0.300446 -0.0118792)
(-0.00029126 0.275338 -0.0324306)
(-0.000993645 0.268606 -0.0453675)
(-0.000909799 0.269684 -0.0380451)
(0.000420806 0.274613 -0.0354632)
(0.000975881 0.273773 -0.0401347)
(-0.000497487 0.271592 -0.0450325)
(-0.0013984 0.270741 -0.0400764)
(-9.76315e-05 0.188603 -0.103231)
(-2.74852e-05 0.193116 -0.10957)
(0.00037619 0.190767 -0.104439)
(-0.00256476 0.197476 -0.0983025)
(0.000195632 0.200565 -0.100928)
(-0.00116712 0.198089 -0.106788)
(-0.00270567 0.196521 -0.10243)
(0.000293442 0.153159 -0.107111)
(0.000746946 0.160561 -0.108586)
(0.00172833 0.162209 -0.112757)
(-8.60528e-05 0.157066 -0.111297)
(-0.0012461 0.156252 -0.110061)
(0.000642754 0.159849 -0.11144)
(0.00115675 0.160756 -0.114056)
(-0.00345779 -1.89961 -0.00741267)
(0.00410238 -1.89885 -0.0135173)
(-0.00214729 -1.90964 -0.0078864)
(-0.00169995 -1.87761 -0.0154947)
(0.000819909 -1.88079 -0.0234112)
(0.00385623 -1.8816 -0.0291563)
(-1.82148e-05 -1.89397 -0.0233915)
(0.0166489 0.43841 1.07393)
(0.0510885 0.523123 1.08853)
(-0.00185281 0.37153 1.09481)
(-0.0336966 0.509865 1.04031)
(0.00456115 0.585445 1.04962)
(0.0460121 0.549424 1.03955)
(-0.00384536 0.507292 1.03542)
(0.0293454 0.992576 1.07227)
(-0.000787769 1.04831 1.12731)
(-0.00636064 0.942424 1.05258)
(-0.00218368 1.06899 0.982129)
(0.0352746 1.10659 1.0479)
(-0.00281498 0.972089 0.967595)
(0.050873 1.04818 1.01989)
(-0.0156004 0.432318 -0.222719)
(-0.0266861 0.399002 -0.120722)
(-0.00923723 0.488033 -0.244062)
(0.0150438 0.584156 -0.150934)
(0.00545667 0.565952 -0.194846)
(-0.0251578 0.498983 -0.102182)
(-0.0132699 0.487808 -0.194064)
(0.147982 0.00658155 0.0356248)
(-0.0228638 0.157764 0.0752672)
(0.17053 0.0408848 -0.00637566)
(-0.119641 0.223642 0.0590988)
(-0.0495759 0.237401 0.0710661)
(-0.0538606 0.239998 0.0138957)
(-0.00922783 0.20602 -0.0199253)
(0.012442 0.11422 -0.0322081)
(-0.0740964 0.170947 -0.00418778)
(-0.133456 0.0977034 -0.0154564)
(0.0197287 0.174095 0.0240016)
(0.0858503 0.159622 -0.0693714)
(0.00515907 0.366669 -0.133123)
(-0.00805419 0.340968 -0.121708)
(-0.0167173 0.285408 -0.099358)
(0.0159922 0.303176 -0.0984278)
(0.00278132 0.285085 -0.133297)
(-0.0214653 0.280894 -0.123342)
(0.000118382 0.238769 -0.0887963)
(0.0495374 -0.126134 0.0780987)
(0.034541 -0.0104311 0.00454189)
(-0.0640827 0.0722575 -0.00965508)
(-0.0976985 0.211073 -0.0666298)
(-0.0676978 0.0127528 -0.0561238)
(-0.033137 0.0351815 -0.183669)
(0.0933952 -0.125855 -0.0843233)
(0.0497272 0.0624019 -0.213529)
(0.0271485 -0.0752794 -0.0496471)
(-0.111278 0.0740656 -0.0903299)
(0.12231 -0.152869 -0.0769818)
(-0.00458168 0.00338575 -0.0907345)
(-0.0221909 0.906847 -1.80403)
(-0.0311431 1.17518 -1.10963)
(0.0406538 0.976459 -1.71545)
(-0.0628826 0.957822 -1.65048)
(-0.073302 1.04409 -1.44508)
(-0.0784038 1.13222 -1.24481)
(-0.0766361 0.958094 -1.65923)
(0.00163612 -0.739149 0.0831819)
(-0.0251426 -0.912041 -0.00198394)
(-0.0299004 -1.06815 -0.0556482)
(0.0270042 -0.965916 0.0847545)
(0.00268325 -0.79434 0.127887)
(0.00279682 -1.00002 0.0654385)
(0.00658032 -1.1871 -0.0255391)
(0.00309517 -0.522385 -0.0127376)
(-0.00807558 -0.506969 -0.00206775)
(-0.00891587 -0.511085 0.0180565)
(0.0449145 -0.508473 -0.00531747)
(-0.00858652 -0.490019 0.0022252)
(0.0219347 -0.503903 0.0297609)
(0.0466726 -0.540901 0.0339467)
(-0.00341925 -0.309932 -0.152393)
(-0.02507 -0.248624 -0.156124)
(-0.0201188 -0.199523 -0.17586)
(0.0345524 -0.238987 -0.261411)
(0.0297393 -0.289334 -0.232213)
(-0.00281744 -0.246256 -0.220754)
(-0.00426933 -0.200305 -0.233487)
(0.000645028 0.112584 -0.280541)
(-0.002348 0.121885 -0.283628)
(0.000231741 0.102498 -0.27903)
(0.00144093 0.127042 -0.288372)
(-0.00126646 0.115096 -0.290235)
(0.00352333 0.126971 -0.295246)
(-0.0011978 0.115638 -0.29219)
(-0.000104849 0.228498 -0.173081)
(-0.00208528 0.236837 -0.16587)
(-0.000683342 0.244893 -0.16987)
(0.00223243 0.23821 -0.18332)
(0.00138778 0.234926 -0.17702)
(0.00129379 0.239579 -0.174967)
(0.0026401 0.243249 -0.179882)
(-0.00194936 0.40113 -0.0814979)
(-0.00391082 0.408003 -0.0770598)
(0.000158169 0.401128 -0.0861972)
(0.00126597 0.406485 -0.0964488)
(-0.000766197 0.400897 -0.0953027)
(-0.00249634 0.412715 -0.0864687)
(-0.00180438 0.403656 -0.0900198)
(-0.0127276 0.315748 0.00191226)
(0.00642933 0.388211 -0.0253053)
(-0.00327942 0.196051 0.00656197)
(-0.0273819 0.348842 -0.00271832)
(-0.0436839 0.354034 0.0249467)
(-0.0452641 0.38943 0.0252601)
(-0.0199834 0.408817 -0.0174518)
(-0.00198179 0.341175 -0.0155674)
(9.27745e-05 0.351415 -0.0195774)
(-0.00195329 0.34329 -0.0160434)
(-9.51712e-06 0.348977 -0.0129785)
(0.0032902 0.347603 -0.0117504)
(-0.000821807 0.344687 -0.0142628)
(0.000712529 0.344726 -0.0109189)
(0.000509186 0.258136 -0.00244475)
(0.00306098 0.257461 -0.00790622)
(-0.000871607 0.2551 0.0019791)
(-0.00220209 0.247889 -0.00699518)
(-0.00116749 0.2515 -0.00126528)
(-0.000907437 0.250225 -0.0087256)
(-0.00169495 0.254375 -0.00316773)
(0.000869519 0.237712 0.00723192)
(0.00223455 0.234335 -0.00202538)
(-0.00119304 0.237447 0.0110869)
(-0.00406928 0.221232 -0.000674885)
(-0.000251376 0.224485 0.00938163)
(-0.00372683 0.224605 -0.00192666)
(-0.00204575 0.229567 0.00816464)
(-0.00243477 0.0852445 0.0971538)
(-0.0155442 0.0471785 0.116317)
(0.00670692 0.0483315 0.123032)
(0.0157273 0.0711454 0.118163)
(-0.00605617 0.0502874 0.115205)
(-0.0108717 0.0371777 0.116335)
(0.00838612 0.0527967 0.119199)
(-0.0138194 1.1348 0.76734)
(-0.00980629 1.12452 0.881379)
(0.00964745 1.25992 0.891965)
(0.00827355 1.05206 0.838286)
(0.0464121 1.11747 0.915662)
(0.000969562 1.07893 0.764191)
(0.0548786 1.21722 0.935442)
(0.0304401 1.4234 0.537045)
(0.0408571 1.43562 0.466958)
(0.010333 1.21231 0.48887)
(-0.0450327 1.08933 0.303145)
(-0.0232321 1.15578 0.392286)
(-0.00218851 1.36796 0.415103)
(0.0110083 1.38397 0.484665)
(0.0145875 0.790651 0.262402)
(-0.0023741 0.767838 0.235295)
(-0.0104685 0.913349 0.302865)
(-0.0143285 0.762501 0.177907)
(-0.0107504 0.757532 0.158098)
(-0.0270116 0.755705 0.137033)
(-0.0274425 0.73065 0.158251)
(0.000119003 0.613387 -0.186635)
(0.00343321 0.575417 -0.280936)
(0.0130227 0.620572 -0.205348)
(0.00123686 0.464186 -0.259849)
(-0.0204582 0.471938 -0.310547)
(0.00654294 0.521455 -0.234766)
(0.00126017 0.509645 -0.190005)
(-0.0066602 0.380771 -0.319003)
(-0.00758801 0.461688 -0.333182)
(0.0021079 0.468009 -0.354273)
(-0.000495629 0.302224 -0.286031)
(-0.0279047 0.443889 -0.300272)
(-0.0396643 0.437496 -0.298142)
(-0.0188443 0.292217 -0.279256)
(0.0193779 0.0418827 -0.265538)
(0.0170847 0.113632 -0.185509)
(-0.0180995 0.0496371 -0.187646)
(-0.0666688 0.0479176 -0.0280438)
(0.0894102 0.100071 -0.0953251)
(0.115941 0.139786 -0.0512716)
(-0.0205684 0.0114362 -0.00993407)
(0.00716959 0.130802 -0.171774)
(-0.0152948 0.0412713 0.0122757)
(0.0181435 0.0591763 0.018158)
(0.118779 0.126727 -0.473502)
(-0.00349935 0.027585 -0.254607)
(0.0215585 -0.0115534 0.0294544)
(0.170348 0.13448 -0.102367)
(-0.0194376 1.09557 -1.0258)
(0.00255989 1.07242 -0.925832)
(0.0230256 1.11217 -0.977974)
(-0.0163482 1.09318 -0.940883)
(-0.0256951 1.1159 -0.954503)
(-0.0188398 1.13956 -1.001)
(0.023797 1.16406 -0.957691)
(0.0266359 -1.99787 0.0428258)
(-0.0183296 -2.18012 0.0334688)
(-0.00291822 -2.17804 -0.0333033)
(-0.0248951 -2.35097 0.00853626)
(-0.0273982 -2.32624 -0.00881886)
(-0.0217412 -2.30303 0.0336233)
(0.00111984 -2.22535 0.0374843)
(0.00429837 -2.45888 -0.0411633)
(-0.00160919 -2.47255 -0.0328193)
(-0.000866548 -2.45674 -0.0363302)
(0.000558956 -2.47284 -0.0288861)
(0.000813835 -2.47417 -0.025214)
(0.00287707 -2.45931 -0.0386483)
(0.00118192 -2.46376 -0.0337707)
(-0.0271949 -0.916817 -0.340214)
(-0.0135175 -0.842265 -0.369268)
(-0.00193711 -0.979605 -0.346741)
(0.052896 -0.848303 -0.502689)
(0.0303342 -0.926898 -0.443867)
(0.0379787 -0.812373 -0.448768)
(0.0112539 -0.8823 -0.403468)
(-0.0027117 0.168296 -0.432874)
(0.000646085 0.158975 -0.423318)
(-0.000692276 0.149899 -0.431413)
(-0.0010624 0.207715 -0.414241)
(-0.00637342 0.187405 -0.406635)
(-0.00665062 0.18587 -0.410051)
(-0.00595654 0.192938 -0.424054)
(-0.0042349 0.311631 -0.216329)
(9.95047e-05 0.324972 -0.21486)
(-0.000185331 0.297879 -0.222332)
(0.00260208 0.313844 -0.233155)
(0.00150251 0.301846 -0.226409)
(0.00119983 0.325658 -0.22817)
(-0.00276981 0.314456 -0.227697)
(0.00265124 0.262872 0.000675313)
(-0.00668779 0.445861 -0.0101886)
(-0.0255139 0.432025 0.0166915)
(-0.0162139 0.415958 -0.00974294)
(-0.00421324 0.43608 -0.0380378)
(-0.0122291 0.477354 -0.0305488)
(-0.0287876 0.460771 0.00431804)
(0.00285585 0.488464 -0.0140124)
(-0.0061689 0.486027 -0.040715)
(-0.00810572 0.476198 -0.0172805)
(0.00271881 0.466624 -0.0138415)
(-0.00496147 0.477482 -0.0308896)
(-0.0349 0.195868 0.0123911)
(-0.0302546 0.330289 0.00436728)
(0.0031358 0.426959 -0.0361123)
(-0.0079254 0.380211 -0.00511072)
(-0.0208786 0.352457 0.029277)
(-0.0209758 0.396965 0.0157648)
(0.00395645 0.441535 -0.0366921)
(-0.00155595 0.430218 -0.0371625)
(-0.0370011 0.366039 -8.94034e-06)
(-0.00157896 0.438159 -0.0447182)
(-0.00349065 0.43095 -0.0311423)
(-0.0235381 0.404581 -0.00338897)
(0.0134299 0.375875 -0.00488411)
(0.011122 0.403812 -0.00949955)
(-0.00339502 0.389769 -0.0368345)
(-0.0122917 0.400332 0.00979074)
(0.0083521 0.351213 0.0184994)
(-0.00124204 0.225134 0.033274)
(-0.00525402 0.203014 0.0164478)
(0.000236116 0.206275 0.0309221)
(0.00111492 0.225575 0.0277449)
(0.00169252 0.222586 0.0159389)
(-0.00560063 0.210126 0.0155263)
(-0.00175894 0.213142 0.028204)
(-0.000336835 -0.0245058 -0.0832437)
(0.00356981 0.0443315 -0.10096)
(0.0126575 0.0161693 -0.104732)
(-0.0110993 0.00699821 -0.102235)
(-0.000512407 -0.0258973 -0.0969111)
(0.00135805 0.0368631 -0.112924)
(0.0160602 0.0144887 -0.107359)
(-0.000344427 0.0781147 0.0870238)
(-0.00645624 0.0780864 0.0895627)
(0.0026324 0.0550645 0.0778577)
(0.00213594 0.0681055 0.0847377)
(0.000476694 0.0794894 0.093491)
(-0.00908171 0.0768673 0.104309)
(0.000657011 0.0604659 0.0811364)
(-0.000571637 0.0455527 0.079935)
(-6.20868e-05 0.0418261 0.0896936)
(0.00151431 0.045168 0.0787846)
(0.00267437 0.0618791 0.0858002)
(-0.0027386 0.0567391 0.0805244)
(0.00059923 0.0549534 0.0739426)
(0.00239812 0.0540316 0.0819426)
(0.0106688 0.175246 0.159646)
(-0.00173012 0.195873 0.175458)
(0.00432649 0.187421 0.166056)
(-0.00486994 0.198666 0.163974)
(-0.00584212 0.190151 0.172533)
(-0.00554828 0.189596 0.15834)
(0.000516004 0.179275 0.164162)
(-0.000948785 0.196345 0.269133)
(-0.00042811 0.194282 0.290519)
(-0.00650833 0.200559 0.301556)
(0.00568206 0.186725 0.281189)
(0.00215105 0.173926 0.266106)
(-0.00547879 0.183969 0.291817)
(-0.00384447 0.178556 0.267703)
(0.000530108 0.688831 0.250297)
(0.0116946 0.710294 0.286663)
(0.0242267 0.737312 0.353828)
(0.00375916 0.824369 0.405805)
(-0.0239962 0.80207 0.283489)
(-0.00769513 0.798338 0.297333)
(0.0225916 0.823419 0.408836)
(0.000232486 0.944685 0.823894)
(0.0152898 0.942061 0.871459)
(0.00029508 0.930161 0.754802)
(0.00710871 0.917315 0.800358)
(-0.00831636 0.930902 0.768486)
(0.0102014 0.954853 0.869471)
(-0.00608138 0.952137 0.833844)
(-0.00256239 0.961667 -0.0545623)
(-0.0311234 0.965868 -0.0369241)
(-0.000262084 0.932851 -0.0239609)
(0.0227492 0.954524 0.00795713)
(0.008664 0.987994 -0.0111869)
(-0.0175918 0.980106 -0.000741442)
(0.0145758 0.986821 0.00896037)
(0.0192518 0.652022 0.00905941)
(0.0114931 0.94372 0.00196563)
(0.00936465 0.981181 0.00237813)
(0.0116212 1.03248 -0.0126329)
(-0.0193869 1.05927 0.00909835)
(0.0207532 0.140451 -0.200444)
(0.0609531 0.133131 -0.159533)
(0.00240011 0.192945 -0.281271)
(0.00740967 0.191854 -0.299134)
(0.0178749 0.19327 -0.270237)
(0.0974225 0.141359 -0.188435)
(0.0647355 0.155141 -0.215777)
(0.0240814 0.267678 -0.362057)
(0.0125643 0.185104 -0.269197)
(-0.00086213 0.123408 -0.237405)
(0.045728 0.122651 -0.230909)
(-0.0142273 0.144638 -0.285972)
(0.0684539 0.146455 -0.346735)
(0.0660257 0.261385 -0.413172)
(-0.0366899 -0.200211 0.0431843)
(-0.0324015 -0.151021 0.0478601)
(0.0117201 -0.142632 0.0397603)
(0.0113857 -0.159977 0.0290399)
(-0.042931 -0.23537 0.00632938)
(-0.090782 -0.196466 0.0665077)
(-0.105477 -0.239297 0.0865699)
(-0.0597289 0.751618 -0.324519)
(0.0943983 0.591951 -0.386265)
(0.0308491 0.533946 -0.400652)
(0.00501682 0.365572 -0.20055)
(-0.0773384 0.342797 -0.22953)
(-0.0620004 0.465072 -0.360416)
(-0.0340778 0.46026 -0.37193)
(-0.0824271 0.309264 -0.294054)
(0.108518 0.098572 -0.00896568)
(-0.0699736 0.586896 -0.22555)
(0.154763 -0.373647 -0.0457589)
(-0.00394278 0.100009 -0.375343)
(0.110699 -0.540295 0.230497)
(0.0737805 -0.0379909 -0.0817058)
(0.0514634 -2.374 0.0995488)
(0.134554 -2.01845 0.219929)
(-0.0348091 -2.69228 -0.0400076)
(-0.0271351 -2.40116 0.0213135)
(-0.0235964 -2.57198 0.0011554)
(0.043919 -2.02325 0.0936909)
(-0.00410012 -2.35332 0.0418128)
(-0.00487197 -2.366 -0.119451)
(-0.00179406 -2.37654 -0.120997)
(0.0111926 -2.3743 -0.13009)
(0.00625373 -2.35658 -0.152003)
(0.0246286 -2.34375 -0.160946)
(0.00666329 -2.36347 -0.142408)
(0.00815048 -2.35564 -0.130666)
(0.0194889 -0.259835 -0.621774)
(-0.00244349 -0.253697 -0.630139)
(0.00119017 -0.312369 -0.697396)
(-0.010429 -0.206121 -0.664076)
(0.0122136 -0.244762 -0.70134)
(-0.00692018 -0.196936 -0.63167)
(0.0147804 -0.264321 -0.679989)
(0.00593139 -0.325792 -0.641343)
(-0.0152805 -0.293975 -0.631534)
(-0.0281947 -0.246222 -0.634167)
(0.0331843 -0.280048 -0.750516)
(0.0238218 -0.327693 -0.725516)
(0.0189389 -0.280202 -0.700687)
(0.00978381 -0.217705 -0.691468)
(0.0236544 0.365494 0.0028322)
(-0.0013177 0.608553 -0.0076695)
(-0.0249038 0.577462 0.0203349)
(-0.0103538 0.549142 -0.0199075)
(-0.00708502 0.569294 -0.0590747)
(-0.0168865 0.630108 -0.0416207)
(-0.0349077 0.60576 0.00310118)
(0.00444213 0.602279 -0.0225668)
(-0.00815798 0.602936 -0.0554687)
(-0.0126648 0.592874 -0.0267014)
(0.00878592 0.621013 -0.0137803)
(-0.0108087 0.618681 -0.0444637)
(-0.000171889 0.401194 -0.0861262)
(0.00400346 0.407874 -0.0766096)
(0.00197513 0.400999 -0.081303)
(0.000720072 0.400976 -0.0950498)
(-0.00127452 0.406597 -0.0961087)
(0.0024359 0.412692 -0.0859283)
(0.00171732 0.403664 -0.0896397)
(6.48809e-05 0.320383 -0.106467)
(0.000173514 0.321426 -0.109208)
(0.00247437 0.323599 -0.100608)
(-0.000477428 0.315987 -0.0989167)
(-0.00280409 0.315715 -0.101831)
(-0.000152445 0.318147 -0.105521)
(0.00304296 0.317974 -0.0974307)
(0.000319441 0.274062 -0.0814856)
(0.000774566 0.275757 -0.0883015)
(0.000979422 0.276755 -0.0818375)
(-0.000544909 0.272255 -0.078928)
(-0.00230096 0.272721 -0.0815892)
(-0.000525937 0.27382 -0.0882465)
(0.00126323 0.273034 -0.0816864)
(-0.000246019 0.270617 0.0180258)
(-0.000998355 0.274767 0.0160522)
(-0.00120177 0.280453 0.0271906)
(-0.000120538 0.268335 0.0257689)
(-0.00291023 0.279892 0.035973)
(-0.00413494 0.277789 0.0381024)
(-0.00835042 0.299264 0.0601771)
(-0.0320442 0.3134 0.0874427)
(0.00622715 0.282076 0.0409111)
(-0.0214545 0.300834 0.076182)
(-0.000899723 0.294463 0.0462928)
(0.0112002 0.282502 0.0339434)
(0.00476858 0.276532 0.0535872)
(-0.00623864 0.308632 0.0592454)
(-0.0311402 0.326809 0.0762185)
(-0.0177579 0.312413 0.0748764)
(0.000688058 -1.65968 -0.0370623)
(0.000928409 -1.64897 -0.0208286)
(-0.00148002 -1.66131 -0.0517316)
(-0.00366259 -1.62833 -0.0333339)
(-0.000975479 -1.65415 -0.0464083)
(-0.00272178 -1.63452 -0.0251662)
(-0.000570989 -1.65456 -0.0397728)
(-0.0575212 -0.0754168 0.255846)
(0.0224451 -0.0433141 0.199187)
(-0.00141944 -0.183142 0.192495)
(-0.0220837 -0.0261704 0.085612)
(0.0100373 -0.0945458 0.10363)
(-0.0266523 0.00506483 0.101877)
(-0.0738398 -0.0845792 0.125859)
(-9.59842e-05 0.0517862 0.076583)
(0.00414157 0.0549141 0.071502)
(-0.00165201 0.0526604 0.0751739)
(-0.00130856 0.0588056 0.0694683)
(-0.00489019 0.0572284 0.072288)
(-0.000400395 0.0563928 0.0679508)
(-0.00535639 0.0564665 0.0710401)
(-0.00238882 0.107697 0.0870154)
(-0.000369715 0.0990709 0.0936297)
(-0.0053344 0.105772 0.0930574)
(0.00666712 0.0921343 0.0915408)
(0.00409866 0.0921316 0.0907211)
(-0.0027247 0.0959757 0.0974585)
(0.000140255 0.0955924 0.091748)
(0.00483082 0.21268 0.134106)
(0.0103335 0.217514 0.141646)
(0.00116889 0.192491 0.128277)
(-0.00683341 0.216016 0.11551)
(-0.00930319 0.206938 0.112942)
(0.00405431 0.22048 0.130976)
(-0.00128334 0.219235 0.127108)
(-0.00069613 0.359277 0.15216)
(0.00367062 0.33955 0.139986)
(0.0130437 0.336692 0.139701)
(0.00319374 0.366127 0.133563)
(-0.0112429 0.360621 0.122968)
(-0.00649598 0.344948 0.122771)
(0.00879429 0.351204 0.136391)
(0.0220597 0.682775 0.19112)
(-0.0198677 0.638315 0.091017)
(0.00548109 0.557131 0.0550302)
(-0.00174122 0.576365 0.0774436)
(0.0151666 0.615016 0.143633)
(0.000279587 0.634515 0.107508)
(0.041882 0.679505 0.19967)
(0.0129392 0.601262 0.695272)
(-0.0244887 0.471334 0.537983)
(-0.00442359 0.579824 0.612132)
(-0.000244012 0.509798 0.553683)
(0.000607383 0.588683 0.662782)