/*--------------------------------*- C++ -*----------------------------------*\
| =========                 |                                                 |
| \\      /  F ield         | OpenFOAM: The Open Source CFD Toolbox           |
|  \\    /   O peration     | Version:  v2012                                 |
|   \\  /    A nd           | Website:  www.openfoam.com                      |
|    \\/     M anipulation  |                                                 |
\*---------------------------------------------------------------------------*/
FoamFile
{
    version     2.0;
    format      ascii;
    class       volScalarField;
    location    "0.05";
    object      alpha.water;
}
// * * * * * * * * * * * * * * * * * * * * * * * * * * * * * * * * * * * * * //

dimensions      [0 0 0 0 0 0 0];


internalField   nonuniform List<scalar> 
6576
(
0.999896
0.999919
0.999916
0.999987
0.999989
0.999988
0.999988
0.999674
0.999178
0.999962
0.999931
0.999267
0.99927
0.99996
0.995247
0.995247
0.995247
0.99899
0.99937
0.999512
0.999699
0.99927
0.999981
0.999968
0.995275
0.999631
0.998038
0.999964
0.998799
0.998745
0.99997
0.999717
0.999657
0.999451
0.997951
0.995393
0.995393
0.999029
0.995413
0.999426
0.995413
0.999562
0.999685
0.0115891
0.00639966
0.00446357
0.00354536
0.00642664
0.00444164
0.00361217
0.00358146
0.00415201
9.5531e-62
4.65647e-61
1.00243e-61
6.22385e-60
1.58196e-61
5.58918e-62
2.3795e-60
3.7962e-55
4.5302e-55
4.83399e-54
2.46404e-52
9.92473e-54
1.78025e-54
1.70832e-53
7.85446e-42
2.28181e-40
9.50589e-43
7.95885e-42
3.18459e-43
2.19595e-43
1.84893e-44
2.11147e-45
2.11738e-45
3.27373e-44
5.40607e-43
4.10094e-45
7.58852e-44
2.37115e-41
1.57784e-41
4.19846e-37
5.10413e-39
2.48012e-44
3.04639e-42
8.16305e-36
7.15834e-39
0.000727531
0.000363142
0.000165709
0.00011005
0.000413398
0.000331089
0.000981068
0.00216784
0.000523783
0.00670075
0.00277176
0.000220369
0.0165724
0.00704299
1
1
1
1
1
1
0.999996
0.999999
1
0.999985
0.999745
0.99723
0.999996
9.02291e-06
6.26329e-08
2.43968e-05
1.88993e-06
3.99237e-07
1.62564e-05
1.35011e-05
0.447364
0.783921
0.475332
0.96787
0.937429
0.976048
0.970052
4.1262e-10
2.17398e-09
8.49443e-12
1.01057e-06
4.88302e-07
1.08348e-06
3.98654e-07
7.59333e-46
5.06553e-48
4.16309e-47
1.30237e-43
2.32292e-46
3.66204e-48
2.67589e-45
3.18707e-39
4.18566e-38
4.34969e-40
4.74491e-36
3.02985e-38
6.46324e-40
1.38409e-37
6.09385e-34
4.62385e-36
1.77393e-35
6.08684e-35
2.04558e-36
6.98502e-34
1.70657e-32
2.65783e-31
1.4132e-29
3.08655e-30
6.0622e-30
5.44054e-28
2.56584e-28
3.69848e-30
1.41253e-29
4.5708e-31
8.21478e-29
2.85282e-28
6.50501e-27
4.23899e-28
2.23401e-29
2.50507e-27
3.9445e-26
2.15484e-24
1.89232e-23
5.73451e-23
2.58435e-23
4.34041e-22
6.29589e-23
2.79608e-21
1.35967e-22
2.36478e-24
2.46351e-11
4.78111e-11
3.62723e-10
3.63639e-11
3.6829e-10
7.59637e-09
4.78997e-10
1.86332e-10
1.51627e-09
1.23011e-08
7.34801e-10
1.9911e-09
4.86682e-10
2.04423e-09
6.00558e-09
2.896e-08
3.71769e-07
3.00237e-07
9.96587e-07
3.9105e-06
5.77132e-07
1.02118e-06
4.80975e-06
7.7957e-06
2.79435e-05
6.57939e-05
1.42907e-06
1.46703e-06
7.10115e-06
9.01668e-06
0.000154507
0.000360742
0.000366282
0.000275125
0.000186937
9.19495e-05
0.000254221
8.73979e-09
5.94107e-08
1.87556e-07
5.63494e-10
4.72408e-10
1.64136e-09
1.71194e-09
2.06895e-11
1.28474e-10
8.43618e-12
7.2427e-10
1.07371e-10
7.39828e-12
1.71672e-10
3.5424e-12
1.38121e-14
1.4324e-13
1.60796e-11
8.5414e-11
3.07549e-13
7.68089e-13
4.6469e-19
8.71079e-18
1.95495e-18
4.19324e-16
3.14281e-17
1.82376e-16
1.83958e-17
2.38313e-22
4.58886e-26
4.38985e-24
9.78923e-22
1.63933e-20
7.88417e-23
9.85518e-23
1.92067e-24
6.59915e-25
9.10916e-33
3.27177e-36
9.9177e-35
9.73611e-31
4.50372e-32
4.77739e-34
5.85785e-34
1.68494e-59
2.78612e-58
1.11013e-56
1.79057e-64
2.31118e-62
1.13233e-61
6.5082e-62
1
0.999996
0.999992
0.999997
0.999546
0.951684
0.999718
0.991438
0.999997
0.00378043
0.00433838
0.004692
0.0037499
0.00374619
0.00471785
0.00287668
5.35216e-09
8.16934e-09
1.95157e-07
6.77951e-06
3.46845e-07
2.01081e-07
1.08396e-08
6.24495e-07
1.53266e-08
0.00843767
0.00374366
0.00439465
0.0005825
0.00102558
0.000977409
0.00159468
0.00203543
0.00204055
0.000853813
1.70202e-61
1.8923e-59
1.09087e-61
3.04671e-61
2.11738e-63
7.74027e-64
3.88212e-63
2.37037e-20
1.59506e-20
1.12934e-18
5.35812e-20
5.23846e-21
1.0557e-16
4.1894e-18
3.02339e-19
8.20023e-19
5.30172e-57
4.06166e-55
1.38434e-56
1.69098e-54
1.93238e-56
1.28064e-54
1.98894e-56
2.60591e-05
0.000187531
0.000516259
4.54592e-05
6.1418e-05
0.000111009
1.56066e-05
1.24498e-06
2.43172e-08
1.62954e-06
2.04288e-08
1.02807e-08
1.88584e-07
6.03013e-08
4.58433e-07
2.22816e-06
9.15718e-05
0.00855113
0.00265885
8.31099e-05
0.00598319
0.000804237
0.00191843
0.00323867
0.000344484
0.999999
0.999999
0.999983
0.999921
0.999998
0.999106
0.999957
1
1
1
1
0.99999
0.973764
0.998612
0.999982
0.999999
0.00408882
0.00698593
0.00363503
0.0126757
0.0203513
0.0159674
0.00765631
0.00242287
0.00160885
0.00272488
0.00222781
0.0118744
0.00160943
0.00574464
1.03341e-35
1.44973e-32
2.22155e-34
1.29724e-30
4.80877e-32
2.31509e-32
3.81135e-33
5.91337e-35
5.8278e-34
2.03354e-41
3.18712e-41
7.31393e-40
4.5515e-38
2.25256e-39
3.67256e-39
3.46574e-40
4.17013e-43
3.01561e-44
5.19515e-45
8.44797e-43
1.24191e-43
2.5729e-45
2.54229e-44
9.83192e-46
4.56175e-46
8.58984e-26
5.72402e-28
1.68173e-27
1.59629e-23
2.78536e-25
4.52802e-27
1.86344e-25
9.49994e-25
2.54958e-24
1.54936e-22
3.18831e-26
7.13172e-27
4.12406e-26
2.64449e-24
3.35792e-27
4.54345e-25
3.05325e-26
3.2812e-30
3.44713e-29
1.29655e-28
9.70174e-29
2.80295e-32
8.87744e-29
1.13365e-30
5.24072e-30
1.23437e-33
1.54888e-32
1.98852e-31
3.23798e-37
1.02176e-34
5.25739e-36
1.74285e-39
6.53097e-40
7.61678e-37
4.6511e-38
1.32389e-45
3.96919e-47
1.47618e-48
1.22699e-48
3.56432e-50
1.42971e-51
1.54364e-52
1.35867e-52
2.04746e-51
4.12077e-49
1.61771e-50
2.18814e-62
4.86649e-62
1.93165e-60
1.2375e-59
2.46437e-58
9.33035e-69
9.22937e-67
1.9017e-68
1.28348e-69
3.60749e-70
6.01409e-68
1.59002e-69
1.85035e-68
3.04087e-65
7.18911e-67
4.3402e-68
1.79131e-66
1.36416e-63
1.1475e-65
3.12443e-52
5.75822e-50
3.98655e-53
4.95955e-54
1.11701e-52
4.97656e-51
3.30431e-54
7.41713e-73
3.04406e-52
9.58869e-55
3.46462e-49
8.49951e-51
5.39557e-52
1.04857e-50
7.92459e-54
7.00204e-56
1.4453e-52
3.6087e-48
2.1624e-50
9.34069e-72
5.38103e-48
3.2705e-49
2.25493e-47
8.32901e-48
6.26632e-46
5.43467e-45
1.05278e-46
1.25893e-49
2.10932e-50
3.48542e-50
4.03396e-48
1.1973e-47
5.17819e-49
1.12723e-48
8.12662e-52
2.15909e-47
1.87475e-50
9.73328e-46
4.89747e-44
1.84007e-45
2.68848e-46
6.79596e-45
1.04359e-44
1.97834e-43
2.18131e-42
8.18486e-44
4.43071e-41
1.94489e-43
4.44485e-40
8.93853e-40
1.40469e-38
5.25159e-40
6.68691e-41
1.65963e-37
1.9168e-42
8.74766e-39
3.84303e-38
5.49447e-35
1.22563e-38
3.56709e-37
7.57484e-34
4.14163e-34
3.83307e-23
2.14566e-25
3.42568e-29
6.16405e-21
5.50875e-22
4.40041e-28
4.56142e-24
3.43224e-26
2.76397e-28
1.16247e-26
1.0667e-25
1.14377e-24
2.76654e-22
1.92413e-23
3.33593e-21
2.29299e-22
3.03431e-20
7.18588e-21
2.55724e-21
4.73375e-19
8.23703e-19
1.01743e-19
2.74041e-20
2.91535e-23
5.87406e-21
8.8202e-23
4.9852e-19
5.18797e-20
4.26891e-22
7.80806e-22
1.49066e-23
9.08136e-24
8.60658e-22
3.2052e-24
3.15074e-25
3.24064e-19
3.45066e-18
9.46647e-19
5.21659e-17
3.03733e-18
1.04612e-16
1.05456e-17
1.97468e-19
3.6707e-19
6.44866e-18
1.90014e-17
2.97929e-16
1.1411e-17
1.19238e-18
1.51516e-12
4.33504e-12
2.28139e-11
9.75598e-11
6.19193e-10
5.95497e-11
8.32292e-12
1.54763e-26
1.40124e-28
4.75136e-27
1.07046e-29
4.22391e-30
1.51955e-28
4.42818e-28
8.08546e-37
3.39826e-36
1.31998e-34
2.13588e-39
7.32853e-39
3.58127e-38
2.93784e-39
1.81755e-37
2.5477e-36
7.49641e-40
1.05818e-41
3.4447e-42
1.41778e-43
7.78214e-42
2.21638e-44
8.81104e-44
1.63226e-69
4.49643e-71
6.65273e-70
2.05308e-67
2.07769e-69
5.63454e-69
2.95565e-67
3.07813e-69
1.0644e-70
6.11281e-68
5.705e-67
4.42292e-69
6.24172e-65
3.42141e-66
1.40825e-36
7.04876e-39
1.15858e-39
1.51738e-42
4.71815e-48
4.22416e-45
9.44093e-43
1.73218e-27
5.90039e-28
1.20051e-25
2.50069e-25
1.24258e-26
3.09026e-23
3.37742e-24
4.83779e-20
9.80944e-18
3.97884e-20
4.97649e-23
1.15572e-22
3.0099e-19
4.89957e-21
1.28431e-21
2.44449e-23
3.94523e-29
5.01548e-28
5.89757e-27
1.64289e-24
1.00245e-26
7.70388e-27
1.26237e-27
6.32249e-26
7.88362e-28
3.93369e-17
5.50203e-15
2.99079e-17
7.8778e-20
3.18715e-19
3.22186e-19
4.18598e-17
9.92589e-21
5.06544e-19
3.29714e-21
2.09861e-19
3.70099e-17
3.28047e-19
4.14626e-19
9.17861e-20
9.41243e-22
8.09168e-12
3.90955e-10
3.09407e-12
2.96241e-12
5.20406e-14
1.088e-13
5.58233e-06
1.1817e-06
4.16789e-08
6.00352e-06
4.68649e-05
1.65853e-05
1.94101e-06
1.19029e-07
8.37525e-05
1.22021e-05
4.00997e-06
3.20087e-07
0.000347771
2.17727e-05
2.55456e-06
2.79665e-05
0.000150286
0.00204055
0.00199955
0.000449577
8.40669e-05
4.28537e-05
3.78665e-05
0.000208779
7.96746e-05
0.000609132
0.000436216
0.00150441
0.00317021
0.000682875
5.03367e-05
0.000100522
0.0314784
0.0153024
0.00287543
0.00411547
0.00287934
0.00950769
0.00549176
1
0.999997
1
0.999908
0.995971
0.999681
0.999954
0.999963
0.999008
0.999841
0.999547
0.99982
0.996761
0.993158
0.999806
0.99238
0.883226
0.994033
0.961892
0.999984
0.999993
0.998837
1
0.999999
1
1
0.999927
0.99997
0.999995
0.999878
0.999359
0.99996
0.999999
1
0.999998
0.999998
0.999997
0.999411
0.999413
0.999998
0.999958
1
1
1
1
1
1
1
0.977791
0.828749
0.998201
0.999994
0.993696
0.893819
0.988969
0.00167884
0.000575176
0.000738693
0.000869886
0.000570314
0.000451819
0.00033675
0.00439614
0.00814382
0.00339591
0.00339881
0.00414498
0.0185826
0.00877382
0.00122005
0.000187411
9.27521e-05
0.000212241
7.61756e-05
1.64402e-05
1.99486e-06
4.32713e-24
9.53061e-26
5.06268e-25
1.01227e-21
6.59324e-22
7.97535e-23
1.22907e-20
3.52593e-21
9.73118e-21
8.18055e-17
5.65725e-20
4.6325e-20
5.93986e-14
2.39917e-13
5.0166e-18
2.97603e-15
1.40826e-16
5.50548e-14
1.23459e-14
2.43564e-15
2.29493e-15
3.85764e-17
9.6249e-17
1.72653e-21
1.31977e-19
2.23548e-21
1.22615e-22
5.00138e-23
1.78543e-21
2.93821e-23
1.45443e-20
3.59891e-22
1.97831e-17
5.96936e-18
3.11364e-19
4.39514e-19
3.47108e-19
1.26983e-20
1.34981e-20
7.33267e-34
7.3484e-36
1.23379e-35
7.63797e-35
3.74972e-36
1.32506e-34
3.52285e-33
6.67108e-31
4.65931e-31
3.55671e-29
4.85124e-30
3.64671e-29
3.10583e-27
1.07471e-28
2.26035e-25
8.5609e-27
2.53622e-27
8.06457e-33
3.32378e-29
3.5195e-42
5.79976e-40
1.52969e-41
5.48729e-44
3.72851e-47
1.90733e-45
7.08334e-46
3.94594e-49
2.24709e-50
1.17457e-47
6.7161e-53
2.69713e-54
3.65061e-52
1.54418e-53
9.47959e-68
6.22347e-66
4.14302e-68
1.45733e-66
1.66145e-68
7.47812e-64
5.24543e-62
2.16938e-79
2.10759e-79
8.22958e-77
1.68034e-81
3.71606e-80
8.40037e-81
3.15757e-78
1.51778e-74
2.80964e-58
4.10724e-60
1.85125e-72
3.52643e-74
1.04028e-61
1.03499e-63
1.5972e-64
1.71389e-72
1.71475e-64
2.99202e-72
2.05438e-70
1.60818e-62
8.18906e-64
8.16587e-63
4.50609e-69
3.79831e-71
1.16334e-61
3.51406e-60
2.24715e-61
2.04511e-65
1.84143e-65
1.74712e-63
1.20499e-61
1.01338e-61
7.22266e-65
1.65385e-63
3.47825e-63
6.55931e-69
8.51845e-70
1.65745e-70
3.15991e-51
1.6489e-51
1.28209e-49
3.18965e-42
1.1753e-40
5.43825e-45
8.49244e-47
6.25265e-43
1.37095e-41
5.05792e-42
1.0289e-41
2.58459e-40
2.92601e-40
5.09122e-42
2.46035e-37
1.90156e-38
5.52198e-36
1.38339e-35
7.60887e-36
4.01329e-37
1.59142e-34
9.33273e-38
1.63803e-37
3.48898e-36
4.91943e-33
2.32698e-33
9.41518e-32
1.24675e-30
2.5248e-29
2.99542e-28
7.68367e-30
1.52914e-32
3.4014e-32
5.31041e-30
5.91927e-31
4.54199e-29
7.6833e-29
1.65561e-25
4.35706e-26
1.12023e-26
6.19094e-25
2.13814e-25
6.02982e-24
3.66851e-24
2.13722e-23
2.44786e-21
8.66007e-24
1.67062e-22
9.16122e-21
2.57519e-20
1.32092e-18
1.46025e-18
5.65308e-18
8.11092e-18
2.07581e-17
1.01824e-16
1.89554e-17
3.72268e-18
3.39854e-17
1.90953e-18
7.51241e-15
1.22802e-15
5.20649e-17
8.27705e-16
2.28475e-15
4.34781e-16
4.58e-15
1.34197e-16
5.14057e-18
9.33215e-17
1.19142e-17
6.64096e-17
9.96576e-16
1.59978e-12
5.91378e-11
3.19649e-12
1.27323e-09
2.84243e-10
2.41136e-11
2.18375e-11
3.26764e-10
1.9284e-11
1.35366e-11
1.12882e-09
6.47661e-09
3.76771e-08
5.20052e-08
2.78036e-07
3.84927e-06
1.01678e-06
4.61011e-07
1.82077e-07
1.16078e-09
2.44014e-09
2.35026e-08
1.96266e-10
8.96629e-11
1.53128e-09
2.20115e-10
9.18594e-10
5.06007e-09
3.12744e-14
1.96069e-15
7.3861e-16
1.62269e-15
3.32866e-16
2.11974e-17
2.31281e-17
3.0468e-17
3.1026e-16
2.58173e-42
9.0727e-42
4.48554e-40
3.57371e-44
1.87261e-44
1.38053e-43
4.56508e-42
9.18815e-51
1.42677e-50
9.58807e-49
1.7797e-46
1.96761e-48
5.91459e-50
1.23598e-48
5.24043e-55
3.17723e-57
2.04816e-57
4.12919e-55
2.39164e-57
3.16848e-58
1.43199e-59
2.17785e-58
3.80298e-56
9.8897e-71
2.70686e-68
7.37131e-71
1.02919e-67
1.22638e-65
3.46366e-68
1.05638e-69
3.46447e-44
1.22495e-46
8.59222e-47
3.30341e-47
1.29458e-46
5.39506e-46
1.3699e-43
7.16274e-36
3.58778e-33
4.66085e-34
1.28373e-38
5.0187e-38
7.28328e-38
2.47257e-38
1.07426e-35
2.57198e-36
2.63135e-40
1.89485e-42
7.49546e-40
3.02287e-42
4.80333e-42
1.05358e-42
5.47073e-40
4.73311e-34
1.01154e-33
3.65385e-32
1.39701e-33
1.99197e-31
6.49147e-32
1.11958e-29
4.83269e-36
7.11424e-34
6.50073e-36
1.6746e-25
5.60446e-23
3.06795e-25
7.35978e-18
1.35925e-15
1.3433e-17
1.39824e-05
5.66653e-06
3.86521e-06
2.62342e-05
0.000249248
7.67514e-05
1.97668e-05
0.999986
0.999996
0.999296
0.999453
0.999822
0.999648
0.990882
0.950894
0.709803
0.988119
1
1
0.999996
0.999985
0.999993
0.999901
0.99954
0.999982
0.996757
0.999806
0.999999
1
0.999978
1
0.999994
1
1
1
1
1
0.997101
0.999007
0.999856
0.999903
0.997228
0.970007
0.000733248
0.00077787
0.000582092
0.014527
0.0619146
0.00853998
0.0063696
0.00334861
0.0128254
0.00351471
0.00466514
0.00893833
0.014167
0.016771
4.85031e-06
1.35757e-06
6.57156e-07
2.62993e-05
2.32608e-05
5.59889e-05
9.74317e-05
1.21478e-06
1.99169e-06
1.27951e-06
8.0286e-06
3.7082e-06
1.02851e-05
5.15758e-06
3.23185e-12
1.88048e-13
4.04593e-14
9.16512e-15
1.61223e-13
1.73844e-14
2.43202e-13
1.09014e-21
1.17108e-19
8.50066e-22
1.03894e-18
1.42863e-20
8.43906e-19
4.23033e-17
4.28089e-28
5.34404e-26
6.61262e-29
4.31592e-31
8.31163e-32
2.08269e-30
3.45755e-28
1.6232e-41
7.43214e-42
3.75679e-38
1.38817e-36
2.47301e-38
2.22415e-35
6.51904e-34
3.25595e-43
4.60097e-42
9.51857e-47
2.37165e-45
7.19654e-44
7.04216e-46
1.06275e-47
9.60398e-44
6.13831e-47
1.667e-41
8.74247e-45
6.88438e-46
1.80028e-48
4.56247e-43
2.49092e-52
5.76802e-50
1.02497e-51
3.08584e-54
6.44945e-54
1.00658e-51
1.66825e-53
4.1808e-58
9.14391e-60
7.31309e-61
1.87453e-63
3.99362e-63
2.57777e-61
9.37389e-60
3.44274e-67
1.76014e-68
1.75697e-65
3.91817e-71
8.25076e-70
1.27749e-67
3.30376e-69
1.92845e-71
1.52978e-69
3.16853e-71
3.94889e-69
2.38613e-67
2.2337e-70
4.87103e-69
2.30129e-64
4.88334e-65
1.96251e-62
6.21587e-63
6.26631e-75
9.21672e-60
4.88331e-73
8.53021e-74
4.0594e-61
1.24912e-73
2.38171e-71
2.53696e-73
1.07821e-74
2.74178e-75
9.24094e-73
1.21906e-74
1.13652e-72
4.03723e-70
7.11948e-72
2.91385e-72
1.82495e-70
3.57628e-68
2.65902e-70
2.51611e-79
1.56222e-77
1.14818e-79
1.91367e-77
3.12189e-79
1.44079e-74
1.44545e-72
2.53798e-76
1.09068e-77
1.7315e-75
3.65084e-76
7.88567e-73
1.31537e-77
2.67971e-74
4.90392e-78
3.73019e-76
4.9894e-76
6.86262e-78
1.1705e-79
2.95211e-76
8.51049e-68
4.46324e-66
8.03591e-83
1.11567e-55
5.44117e-54
7.64529e-57
1.88568e-53
2.93858e-55
8.12355e-55
1.8777e-56
7.73827e-50
4.35299e-52
1.7858e-51
1.579e-47
5.30649e-50
2.70445e-48
1.1088e-46
1.06167e-54
2.50892e-54
8.81591e-53
2.02211e-45
3.51436e-47
2.1778e-42
2.73321e-46
1.36274e-45
1.44615e-40
2.9687e-39
7.02517e-43
3.28654e-44
3.48445e-41
1.60479e-40
1.80718e-42
2.93813e-38
1.09056e-39
2.35734e-41
1.61041e-39
1.0258e-28
1.9999e-27
1.75016e-25
2.57107e-27
2.86312e-27
2.85282e-24
2.98445e-23
1.20502e-26
2.67277e-24
2.22266e-23
2.75939e-26
3.76541e-25
5.25771e-25
7.78902e-26
1.22745e-23
3.56441e-22
2.51642e-21
2.822e-25
2.74717e-24
1.352e-21
2.00892e-20
3.95331e-20
9.3633e-21
3.50028e-19
2.47192e-18
1.68437e-19
1.9799e-23
4.25751e-22
3.57251e-23
5.18253e-18
1.61882e-18
6.90512e-18
4.02695e-17
9.1148e-18
3.33184e-17
1.06061e-16
8.2867e-19
8.61717e-19
6.20123e-18
1.13711e-14
3.91354e-14
5.21681e-14
2.49006e-14
2.05123e-13
6.51799e-13
1.02668e-13
4.11016e-16
2.83701e-15
3.87553e-14
2.13861e-15
1.76315e-14
2.99992e-13
1.90935e-13
4.81107e-16
2.68462e-16
3.7183e-15
2.23028e-12
2.46197e-12
1.59816e-11
8.99579e-12
7.07445e-12
8.02765e-11
2.5554e-11
2.42542e-12
1.14321e-11
4.3827e-12
1.76761e-10
5.10513e-11
6.2985e-11
2.11741e-10
3.76647e-09
4.11567e-09
4.87866e-09
7.51833e-09
1.3297e-08
2.46594e-08
1.35507e-08
8.63604e-08
3.44817e-08
5.55909e-09
2.56696e-09
6.7243e-09
1.66636e-08
4.56759e-08
1.301e-05
9.72231e-05
1.69684e-05
7.6275e-06
2.68638e-05
8.00495e-05
1.81347e-05
4.31522e-07
2.86624e-06
4.99135e-07
8.39176e-06
3.35176e-05
2.1998e-06
3.75903e-06
3.88091e-07
2.42713e-08
1.0347e-07
1.38766e-08
4.44034e-09
9.23086e-08
3.30463e-08
2.67979e-13
2.71632e-13
7.26623e-12
8.07131e-15
8.68656e-15
5.8024e-15
6.27067e-14
6.2706e-13
1.45906e-14
4.66711e-15
5.2994e-16
2.34673e-16
1.20589e-14
1.82956e-13
1.04702e-14
1.65706e-15
1.90626e-20
1.49214e-20
7.99847e-19
3.37722e-22
1.78341e-21
7.19867e-22
4.06279e-20
3.9415e-31
3.48227e-33
3.94466e-33
3.31968e-35
3.72554e-35
2.10947e-35
4.86767e-34
9.33679e-34
1.92147e-32
6.75389e-39
2.70076e-38
1.04351e-36
1.39139e-42
5.81778e-41
1.29476e-40
8.92865e-42
1.25748e-39
9.82269e-39
2.25466e-41
3.61457e-41
5.33139e-39
2.87516e-43
1.88971e-42
3.49756e-43
1.08328e-40
4.01723e-68
8.4495e-70
1.46839e-65
1.74233e-69
1.59598e-70
2.07149e-71
1.78563e-67
1.37114e-61
3.9749e-59
1.9364e-61
1.17698e-56
1.35407e-58
1.05758e-60
3.15255e-59
2.79811e-53
3.96679e-51
5.79816e-51
6.18555e-55
3.77922e-55
3.54654e-53
6.52752e-53
4.1661e-59
3.49863e-57
8.8495e-61
6.78698e-57
1.11431e-58
6.82768e-59
5.35875e-61
2.21765e-54
4.82245e-55
1.34329e-52
1.63804e-52
5.55488e-50
3.7093e-52
7.83656e-55
9.55913e-50
3.68613e-52
1.73713e-52
3.1345e-46
5.53353e-48
1.85377e-45
2.59451e-43
1.12134e-53
7.44402e-56
2.77955e-56
2.90811e-57
2.96474e-55
7.83527e-53
3.2671e-55
4.78459e-48
9.79836e-51
2.19406e-47
7.13731e-50
1.03253e-44
1.27699e-49
2.63896e-42
9.16137e-45
4.75769e-45
1.89429e-44
4.33368e-42
7.79429e-45
1.91982e-40
1.11635e-42
5.23796e-38
1.66611e-40
5.98459e-38
3.67901e-40
1.64924e-40
2.6102e-05
5.78749e-06
3.79326e-05
2.22669e-06
1.80918e-06
4.95308e-06
7.21905e-05
0.999673
0.99993
0.989649
0.994296
0.957697
0.782041
0.982953
0.999999
0.999997
0.999886
0.999992
0.999995
0.999919
0.999989
0.999202
0.995872
0.999996
1
1
0.999943
0.000499868
0.00141454
0.00217344
0.000499986
0.00143128
0.00411342
0.00141245
0.0144267
0.0185995
0.0128331
0.00622918
0.00709162
0.00979052
0.00713634
4.98603e-14
8.74438e-13
3.30041e-12
4.06718e-15
2.25961e-15
4.8691e-14
1.35098e-13
3.59445e-13
2.10993e-14
2.11813e-14
9.31291e-12
7.33172e-13
3.4877e-13
8.06603e-13
1.64553e-11
1.33494e-10
1.0211e-19
3.02499e-18
2.36603e-19
8.53049e-18
2.28836e-16
7.15063e-19
3.11212e-17
1.84229e-17
7.69156e-19
1.92512e-18
1.32833e-15
8.06334e-17
1.98362e-16
5.27683e-18
3.78463e-15
5.78335e-14
3.7072e-25
1.39698e-23
2.45284e-21
4.21253e-23
1.44592e-24
1.38791e-20
4.82614e-19
5.16089e-22
1.56438e-20
1.12777e-30
7.26703e-32
8.48889e-29
1.86677e-26
1.96425e-28
3.96353e-25
5.89822e-27
1.19346e-59
1.95277e-61
1.59363e-62
5.36905e-66
2.59788e-64
3.15308e-65
1.63025e-66
5.57748e-67
2.88146e-67
3.01023e-65
3.12395e-66
7.68977e-65
8.98569e-65
6.00131e-63
2.27406e-64
2.49365e-62
1.27142e-63
3.73035e-62
3.97631e-60
1.32514e-61
5.45046e-63
1.29935e-69
2.84482e-69
4.24852e-68
2.3743e-67
5.33061e-68
1.50033e-66
6.07531e-66
3.56586e-61
3.7912e-59
1.98673e-61
3.7611e-60
1.2293e-58
9.56545e-71
1.35145e-69
1.48722e-69
1.95265e-67
6.50896e-69
8.45446e-58
4.05561e-60
1.76253e-57
2.33312e-59
5.55306e-61
8.6764e-70
7.44601e-68
1.2823e-65
3.18946e-67
6.76959e-69
8.07136e-75
1.07667e-74
7.41107e-73
3.29676e-65
1.97573e-63
1.2101e-61
6.64824e-72
1.10111e-73
1.72172e-69
8.66563e-71
1.38343e-67
3.86381e-66
1.73777e-64
2.4539e-68
9.86617e-67
2.11952e-56
6.06371e-55
4.22185e-58
8.72053e-61
8.03268e-62
2.43595e-58
7.6848e-60
6.20894e-53
2.32784e-51
4.22918e-54
9.34699e-52
2.98278e-53
1.39727e-55
6.16839e-54
4.44229e-45
2.02258e-43
8.28321e-47
6.05182e-55
7.06265e-50
8.57531e-45
1.66921e-46
1.96697e-28
3.60471e-27
3.44628e-27
2.31614e-27
7.82723e-26
7.16035e-30
2.76391e-25
4.59366e-14
1.59844e-12
3.86248e-14
5.94318e-11
1.52319e-11
2.01958e-13
8.25244e-13
4.11653e-12
2.11555e-12
1.91012e-11
1.37298e-09
2.27887e-09
1.71033e-09
4.01956e-09
8.26319e-09
1.40998e-08
6.80082e-09
5.5022e-10
2.17491e-09
1.55412e-09
6.29536e-08
5.70372e-08
2.80969e-07
2.2751e-07
2.04649e-07
6.63171e-07
7.84949e-07
4.10379e-08
4.13074e-08
1.28885e-07
6.31114e-06
3.96128e-06
2.02065e-06
2.09815e-06
3.93549e-06
1.23394e-05
1.10886e-06
1.83921e-06
2.38319e-06
0.000168285
0.000534408
0.00205663
5.49216e-05
0.000391238
0.00105786
0.000207943
0.367989
0.606041
0.695965
0.977039
0.976588
0.956362
0.936206
0.0047195
0.00083151
0.00794381
0.0015671
0.00366349
0.0135694
0.0241055
0.00089088
0.00089088
0.00089088
0.00282607
0.0049025
0.00217958
0.00173354
0.000887759
0.00120779
0.000380023
9.68378e-05
0.000224009
0.00042223
0.000128943
0.00145653
0.00208437
0.00293661
0.00212274
0.00423702
0.00217268
0.00600466
8.87643e-12
1.75296e-12
5.34811e-12
4.47803e-10
7.33855e-11
1.94705e-11
1.44591e-10
1.52501e-11
7.02779e-11
1.48524e-12
2.51681e-14
2.02154e-14
5.21764e-13
8.12439e-13
5.82441e-13
7.04028e-14
1.84025e-16
5.83644e-17
1.34711e-15
6.30511e-14
5.01813e-15
1.63111e-15
1.57881e-14
4.01447e-18
9.5181e-21
7.96436e-20
2.51033e-19
4.03618e-22
1.30408e-20
1.7459e-21
6.08453e-28
3.21593e-27
2.03589e-26
8.6897e-26
4.58558e-27
1.47477e-24
2.16221e-26
1.51127e-39
2.02837e-37
6.60499e-45
1.27875e-41
1.16429e-40
5.40101e-39
1.20759e-46
3.35758e-68
1.8331e-68
1.07667e-66
1.01928e-64
1.77619e-64
2.60001e-66
1.24041e-66
7.15979e-72
5.35015e-74
3.50687e-74
5.78215e-74
1.22231e-74
1.6908e-74
1.95547e-72
4.3331e-63
2.66196e-62
1.47062e-64
4.06847e-67
1.58972e-66
3.03295e-65
2.01805e-64
5.39653e-67
3.54504e-66
1.50804e-68
1.70554e-72
5.08873e-70
4.43852e-72
7.56557e-69
3.34013e-71
8.4025e-69
1.48331e-64
9.56904e-66
2.92501e-63
3.17188e-62
1.13268e-65
6.93278e-64
2.0037e-60
4.28316e-68
1.97371e-66
1.58329e-64
5.32782e-61
3.53827e-61
1.57388e-63
5.53939e-60
1.32191e-57
5.56121e-62
5.51241e-60
7.0403e-54
1.91628e-51
8.26974e-53
1.17245e-48
1.85906e-50
1.77141e-52
1.1006e-50
1.38852e-58
3.48303e-59
9.85862e-56
1.09642e-53
7.97962e-52
6.44601e-51
4.39051e-47
1.34343e-46
1.84719e-44
1.8856e-46
1.70099e-48
2.03057e-46
2.9029e-44
1.7471e-11
4.83815e-11
3.35812e-14
6.8498e-18
1.27554e-17
1.7234e-14
5.48124e-15
6.58751e-08
7.79034e-06
5.76273e-07
1.08429e-06
1.6899e-06
1.84681e-06
1.59114e-07
0.0168857
0.00126235
0.0476098
0.000348444
0.0015358
0.0103044
0.0268211
0.0264939
0.00805307
0.0274256
0.0597697
0.0243128
0.0132079
0.0934812
1
1
0.999995
0.999999
0.999971
0.999991
0.999756
0.995619
0.999973
0.99993
0.999999
0.999999
0.999834
2.3396e-61
2.96103e-58
4.01407e-56
1.79987e-58
1.41651e-57
1.01405e-53
1.42049e-55
2.18501e-54
4.68795e-54
6.10626e-52
6.75146e-52
3.60466e-53
1.47208e-49
1.84638e-51
1.88952e-50
2.00338e-48
3.41925e-50
5.28363e-48
4.16537e-46
6.93392e-48
2.43901e-49
1.28912e-51
3.96194e-50
4.81035e-52
4.93579e-51
3.46201e-49
2.94496e-48
2.01162e-50
9.8044e-55
3.64657e-54
5.20194e-53
1.1486e-50
9.03496e-53
3.7463e-52
3.90191e-54
2.72645e-54
2.73234e-56
3.61263e-56
4.80866e-55
4.94701e-57
1.59976e-56
1.3293e-54
9.48673e-53
9.53224e-56
3.07174e-54
5.02917e-59
4.82978e-61
2.1615e-60
1.12143e-56
1.49509e-58
1.58186e-59
5.93639e-58
1.87063e-65
7.21438e-65
2.07722e-63
4.69131e-61
6.96235e-63
3.82976e-62
1.01163e-63
4.19956e-65
1.47493e-62
2.00488e-65
4.65597e-62
5.04022e-64
4.20243e-60
4.22992e-62
2.19387e-19
4.49556e-19
1.95945e-20
2.33883e-17
1.02594e-18
1.35688e-19
5.49589e-18
1.66815e-16
5.25061e-17
1.46637e-15
3.54511e-15
2.16018e-16
3.31425e-15
5.78694e-14
2.0967e-08
1.45665e-09
4.51264e-09
8.90391e-11
1.19924e-10
1.79848e-06
1.27564e-07
4.54997e-07
1.84538e-06
3.82673e-07
9.48151e-06
1.89194e-06
0.0430479
0.0283595
0.0170441
0.0820967
0.0316483
0.0332209
0.0371633
0.00104072
0.00223811
0.00538676
0.000297102
0.000437293
0.00161145
0.00239677
4.72465e-05
1.10694e-05
6.77404e-05
4.86568e-05
1.5477e-05
5.56106e-05
0.000266242
7.10494e-05
3.07617e-05
6.259e-06
1.54754e-06
4.15675e-07
4.15675e-07
1.07339e-06
3.96309e-06
4.23834e-07
1.58701e-06
5.26802e-06
3.50023e-06
1.43061e-05
8.89715e-09
8.83219e-09
3.91795e-08
1.99654e-08
1.47848e-07
1.04501e-07
1.07796e-09
2.90607e-10
3.53864e-10
6.12738e-11
1.43347e-10
3.6621e-10
1.12309e-09
4.92241e-12
5.08759e-13
2.46278e-13
2.52682e-12
2.91382e-13
6.80004e-14
4.77108e-13
2.99583e-26
1.37141e-24
9.6389e-23
2.16771e-26
2.75813e-25
6.44238e-24
1.24305e-27
3.51004e-32
3.71445e-30
1.63506e-36
3.96079e-34
5.0097e-33
1.63522e-31
5.3961e-38
5.65338e-40
8.865e-38
2.11249e-41
1.11351e-41
2.56243e-40
9.37594e-39
1.8206e-40
2.61299e-43
2.20144e-52
1.27223e-45
8.60494e-48
1.91795e-47
3.78394e-51
3.30641e-46
8.08702e-54
1.46113e-44
3.89e-56
1.59598e-54
2.79828e-58
5.47214e-60
1.61534e-58
6.2473e-61
3.03604e-61
3.93761e-79
2.44908e-76
2.00667e-77
1.92132e-80
2.79067e-81
2.2992e-78
2.25065e-79
1.04959e-75
1.67187e-77
7.59634e-74
3.95187e-80
3.83204e-82
1.84427e-82
1.55601e-82
4.68543e-82
2.27913e-84
3.77009e-84
2.26812e-73
5.36671e-75
5.52518e-72
3.58229e-78
2.84797e-76
5.69633e-77
1.88545e-72
9.53614e-73
2.81595e-70
1.47399e-69
1.37523e-71
4.65036e-73
1.16986e-72
1.2937e-70
1.61288e-67
8.38981e-70
4.93345e-67
8.3857e-70
3.01263e-68
8.62429e-61
9.83228e-63
1.42857e-64
2.04407e-62
1.82178e-64
3.52085e-61
6.37187e-63
2.55173e-46
2.20248e-44
4.34215e-47
2.43525e-55
1.17625e-49
9.64393e-53
5.58581e-49
6.31096e-23
3.03257e-21
8.99203e-24
1.51892e-19
1.19674e-20
3.06143e-19
3.09444e-18
3.93941e-20
2.96989e-21
8.00992e-21
2.2593e-17
2.31637e-18
7.9741e-13
5.96737e-13
7.41946e-12
2.05307e-11
1.7514e-10
3.72977e-12
1.16431e-11
3.54521e-16
1.76655e-17
2.57977e-16
8.29653e-15
2.12631e-16
1.92658e-07
1.07945e-06
8.10326e-07
2.04514e-05
6.09838e-06
6.45289e-06
1.22965e-06
8.32946e-05
0.000212209
6.32435e-05
1.11907e-05
1.79877e-05
1.97729e-05
1.61725e-05
0.00370514
0.00186443
0.00129311
0.006186
0.00322273
0.00143548
0.00206687
1
1
0.999999
1
0.999999
1
0.999999
1
0.999999
0.999976
1
1
0.999998
0.999991
0.999993
0.999785
1
1
0.999997
1
0.999981
0.999995
0.999833
0.999994
0.999995
0.999805
1.13582e-45
8.05156e-45
3.65415e-47
1.472e-43
1.03341e-45
2.34785e-44
4.34844e-42
3.39807e-43
2.22732e-40
3.51491e-43
1.71737e-43
1.39405e-45
5.65377e-46
1.38248e-43
7.1821e-42
5.95716e-46
3.24928e-44
2.58119e-53
1.23677e-51
1.94709e-53
2.20561e-49
1.96089e-49
2.04528e-51
2.63198e-51
1.17496e-56
3.91685e-56
2.79121e-54
1.4302e-56
1.9893e-58
9.84969e-57
1.08087e-54
1.88139e-16
5.71874e-17
9.38727e-18
4.87101e-15
2.54059e-16
2.09668e-16
3.51681e-15
1.61255e-14
6.3566e-14
2.5381e-13
1.45889e-13
1.10924e-12
1.01467e-12
1.1754e-11
1.30457e-10
1.25468e-11
1.09996e-11
6.74631e-10
5.7776e-11
8.8032e-11
8.00979e-10
1.03984e-08
2.09645e-08
5.65761e-08
5.91312e-08
1.76748e-07
1.03663e-06
3.35773e-07
3.54662e-05
4.4039e-05
0.000133512
0.000117404
0.000199859
0.000187522
5.84814e-05
1.43322e-05
6.41459e-06
4.09596e-07
1.09592e-05
4.8005e-06
4.27873e-07
1.03487e-06
7.83047e-06
2.33441e-06
4.89831e-07
4.85203e-07
2.73764e-07
3.64121e-06
2.21732e-06
1.40902e-06
7.49263e-07
1.08742e-09
2.6203e-10
3.79209e-09
6.17242e-11
9.72571e-11
1.07333e-09
2.86459e-10
4.88612e-10
1.96005e-09
1.96316e-09
6.79488e-14
1.91465e-14
2.07549e-14
9.80362e-14
4.0084e-13
3.87681e-14
1.56044e-13
5.1485e-12
1.11814e-12
2.58544e-12
1.93527e-17
1.11206e-17
6.77124e-16
1.12485e-16
2.5326e-15
3.26014e-15
2.83557e-19
3.46509e-20
4.85918e-20
2.81231e-21
1.54467e-20
6.34416e-20
5.38963e-19
6.36893e-30
1.0706e-28
3.64601e-31
1.2271e-30
2.20236e-29
2.76521e-34
1.01821e-33
1.58846e-33
1.91639e-34
2.17775e-59
9.18312e-52
2.18944e-49
3.86256e-54
9.17349e-53
6.12356e-51
3.90372e-61
7.30659e-61
3.06828e-65
2.31325e-63
4.83955e-67
1.54368e-62
8.37674e-66
1.85912e-64
5.97512e-83
7.8211e-75
9.02389e-78
1.53339e-73
1.46556e-71
3.88345e-75
1.59795e-73
2.3566e-78
1.19455e-79
2.13094e-77
3.19682e-87
2.89019e-76
9.48231e-75
1.15756e-85
6.10042e-80
1.32283e-82
2.82682e-78
1.17932e-83
4.29664e-86
8.38311e-87
1.09696e-80
7.30758e-82
5.26357e-84
1.25959e-80
7.86776e-81
1.38639e-78
7.41301e-69
1.92921e-67
3.69703e-68
6.16564e-67
2.12803e-65
2.32697e-66
1.22906e-65
1.42828e-66
2.50891e-68
1.54444e-69
3.3109e-66
2.70103e-64
3.43978e-69
5.14678e-67
1.09778e-68
5.45182e-73
1.66172e-71
1.11963e-70
1.06369e-71
1.19485e-73
7.11092e-73
4.14235e-65
8.81228e-67
2.91715e-67
1.14233e-64
9.05832e-63
9.36802e-65
1.62181e-66
7.48079e-56
2.28199e-57
2.74028e-57
3.80075e-55
4.01612e-57
3.4696e-54
1.13986e-55
3.42047e-36
2.62523e-38
8.97838e-38
5.58086e-39
1.39405e-37
1.28116e-35
5.27106e-37
2.17245e-28
7.16766e-27
4.94843e-28
2.00186e-26
4.81604e-25
2.1809e-26
1.84898e-27
5.91045e-35
1.3051e-34
3.99797e-33
3.2792e-31
4.05936e-33
1.4082e-17
8.21251e-19
4.61018e-19
4.20535e-17
7.07286e-16
2.56917e-17
3.14113e-18
1.81924e-15
4.78941e-17
1.56391e-16
1.67295e-18
2.35261e-18
1.07624e-17
6.79324e-17
3.01348e-13
1.59131e-14
1.22787e-13
1.08241e-11
4.84789e-13
2.80298e-14
1.05768e-12
1
0.999999
1
1
0.999999
1
1
0.999999
0.999999
0.999955
1
1
0.999998
0.999994
0.999834
0.999994
1
1
0.999994
0.999999
0.999964
0.999988
0.99953
0.999988
0.999991
0.999482
3.36661e-31
2.17827e-29
6.56261e-32
1.33338e-26
2.66113e-27
6.98272e-29
1.03318e-29
5.16687e-32
5.90753e-30
3.4045e-32
1.1409e-32
6.57308e-32
2.56313e-34
5.55974e-34
7.31502e-40
3.93117e-38
1.51056e-39
4.52011e-36
1.38825e-35
9.3323e-38
2.46373e-37
8.09759e-31
1.70656e-30
1.87339e-28
2.13395e-41
1.40845e-39
3.6033e-40
3.34533e-35
1.16791e-34
3.94661e-33
9.52626e-31
9.84746e-33
3.00366e-32
7.38779e-34
2.71988e-36
9.8744e-34
4.67209e-36
1.15533e-35
2.56559e-37
1.57453e-33
2.94583e-35
1.89964e-31
3.59699e-33
1.34375e-06
3.33712e-07
1.47675e-07
4.04938e-07
1.54284e-06
1.64729e-06
7.71619e-06