/*--------------------------------*- C++ -*----------------------------------*\
| =========                 |                                                 |
| \\      /  F ield         | OpenFOAM: The Open Source CFD Toolbox           |
|  \\    /   O peration     | Version:  v2012                                 |
|   \\  /    A nd           | Website:  www.openfoam.com                      |
|    \\/     M anipulation  |                                                 |
\*---------------------------------------------------------------------------*/
FoamFile
{
    version     2.0;
    format      ascii;
    class       surfaceScalarField;
    location    "0.5";
    object      alphaPhi0.water;
}
// * * * * * * * * * * * * * * * * * * * * * * * * * * * * * * * * * * * * * //

dimensions      [0 3 -1 0 0 0 0];
oriented        oriented;


internalField   nonuniform List<scalar> 
13152
(
9.66144e-07
2.0267e-05
-1.59348e-06
-1.96396e-05
1.86876e-05
-1.71211e-05
-6.00396e-07
-3.47719e-06
4.24318e-05
-3.46561e-05
3.54127e-05
-2.35012e-06
2.12097e-05
-7.55054e-05
2.85206e-05
-2.4432e-05
6.04562e-05
-1.61124e-05
-2.95623e-05
-2.84146e-05
7.40894e-05
3.88008e-07
-1.68023e-05
3.01808e-07
-2.99073e-05
7.32975e-07
7.85315e-06
5.16204e-06
-2.98175e-05
7.82666e-06
3.28301e-07
-5.07667e-06
-1.55112e-05
-2.98219e-05
-8.64551e-06
-1.46306e-05
-5.13321e-06
2.84093e-05
-7.08512e-08
-8.66249e-06
8.78339e-08
-1.41588e-05
-5.42632e-07
5.65822e-06
-3.05624e-05
1.62417e-05
-2.93549e-05
2.98799e-05
2.93681e-05
-5.29399e-07
3.58198e-08
-1.52187e-05
-2.99024e-05
1.16269e-07
-7.49386e-05
3.29278e-07
1.60003e-05
3.02063e-05
2.94943e-09
7.46158e-05
3.58129e-05
1.26694e-05
2.53833e-05
-7.38656e-05
3.46517e-07
-6.89949e-07
3.61563e-05
1.24155e-05
2.61366e-07
-1.87686e-05
7.36159e-05
7.78439e-05
2.91394e-05
-7.2906e-07
-2.93769e-05
9.66475e-07
-1.63959e-05
-2.68956e-05
7.24309e-05
1.82125e-07
-1.73071e-05
-8.07676e-06
8.00656e-06
2.52327e-07
5.29286e-06
-3.06767e-05
-4.96303e-06
-1.3926e-05
-2.9047e-05
-1.38024e-05
1.28784e-07
2.91368e-05
2.18577e-07
2.59015e-05
-1.93354e-06
-1.24346e-05
-1.18564e-05
-2.21502e-05
2.39834e-06
4.20946e-05
-1.13773e-05
-8.87955e-06
-3.74563e-05
-1.73294e-05
6.53032e-05
-3.48826e-06
-4.64851e-05
4.64589e-06
-3.4366e-06
-1.20797e-05
1.21084e-06
-5.01174e-06
-9.80011e-06
-7.10858e-06
-1.67559e-05
-1.67093e-09
5.94608e-09
-6.05276e-10
-3.54279e-09
1.12282e-08
-7.93784e-10
-1.3025e-08
-4.21963e-09
-9.48786e-09
3.06602e-09
1.04718e-08
-1.37808e-08
4.91948e-09
-2.24349e-09
-2.75568e-08
2.82998e-08
-2.69744e-08
-4.65678e-09
-1.01245e-08
-3.03533e-09
1.85378e-08
-3.16665e-09
-4.37456e-09
3.81222e-09
-5.49105e-09
-4.0873e-09
7.60875e-09
1.0541e-08
-2.33601e-08
2.34184e-08
-1.60743e-08
-4.23608e-09
2.56799e-08
1.88258e-09
3.02241e-09
8.91295e-09
1.57868e-08
-2.43567e-08
2.87705e-09
9.42614e-09
-9.17233e-09
8.20802e-09
3.52377e-09
5.73114e-09
1.24818e-08
-8.55441e-09
1.13058e-08
1.13907e-08
-3.79652e-09
2.44453e-08
1.2412e-08
1.02945e-06
7.53248e-07
3.60004e-07
-2.19283e-06
-6.23933e-08
5.21721e-07
4.65149e-08
-4.48664e-08
4.77394e-07
-8.62066e-07
1.32165e-07
9.70284e-07
5.6391e-07
-1.12902e-06
5.07409e-07
-2.91329e-10
1.57331e-06
-6.96426e-08
1.0428e-07
4.44505e-08
-1.12136e-07
1.2881e-07
1.2753e-08
-2.27138e-07
1.36424e-08
1.93641e-07
-8.67711e-08
-3.47503e-08
1.56129e-07
-1.7908e-07
-1.37552e-07
2.06075e-07
-4.01107e-07
1.72658e-07
-9.9523e-08
1.10366e-07
6.95785e-07
-7.0827e-07
6.09376e-07
1.44789e-07
-1.15636e-06
2.40576e-07
3.56912e-07
-2.03061e-07
-2.01231e-07
5.89788e-07
-3.01076e-07
3.63017e-07
-8.42207e-07
7.09163e-07
-6.54607e-07
-4.98828e-06
-9.88034e-06
-4.95701e-06
1.35933e-05
1.05621e-06
-8.3076e-07
-7.0887e-07
-1.48579e-05
1.16766e-06
-1.14834e-06
4.26606e-06
-3.81457e-06
2.28492e-06
-2.82357e-06
1.97903e-05
-3.2346e-05
2.40554e-05
6.00055e-06
-6.16535e-08
-5.98468e-06
1.33171e-07
-1.30778e-05
-4.53046e-06
2.34474e-05
-2.5686e-07
-1.34473e-05
-4.42239e-06
-2.83338e-05
3.05396e-05
-2.48433e-05
1.44265e-05
-2.55785e-05
-1.0332e-06
-6.43936e-05
1.31942e-05
1.25901e-05
3.22504e-05
-6.00321e-05
-9.95183e-07
6.89081e-06
7.18821e-06
4.31696e-06
7.16755e-06
1.3694e-05
2.4214e-05
-2.25344e-06
2.10623e-05
1.20313e-05
-4.63313e-157
1.24332e-18
-2.37174e-18
1.81826e-18
0
0
0
-8.1559e-20
1.4768e-18
3.01331e-23
-7.25934e-23
1.0871e-22
6.81356e-24
2.73987e-23
-2.85257e-18
3.1675e-18
-4.83433e-18
1.82259e-05
6.79825e-07
-1.49736e-05
-1.79227e-08
-2.26945e-05
-2.64655e-05
6.92277e-05
4.10258e-07
-2.1628e-05
-2.30282e-05
2.53626e-05
-1.02921e-06
1.69088e-05
-6.31252e-05
-1.76673e-06
6.70993e-07
-2.87856e-08
-7.26108e-84
0
0
0
0
0
-5.182e-84
0
0
1.0443e-55
7.49504e-57
-1.11648e-55
-8.64174e-42
8.76697e-42
8.25555e-57
2.76262e-58
-6.04285e-42
-6.14522e-06
-4.66082e-06
5.54022e-06
5.69265e-06
-5.46549e-07
1.20929e-05
-1.73715e-05
6.6581e-06
-1.47414e-05
2.75964e-06
-9.19876e-06
8.64765e-06
-8.92857e-06
1.5419e-05
-6.30515e-06
1.2277e-05
-1.04335e-05
6.98302e-07
5.24419e-07
4.08439e-07
-1.74961e-06
-3.12983e-07
1.8814e-07
4.18684e-07
9.83295e-07
-1.06838e-06
3.20204e-07
-4.43489e-07
3.15939e-07
-3.74052e-07
1.02678e-06
-4.01808e-07
9.56006e-07
-4.57972e-07
1.75622e-09
-6.02667e-09
1.03434e-08
-5.24806e-09
-2.00961e-08
6.17709e-08
-8.7434e-08
2.48163e-09
-4.9152e-08
-4.61244e-07
-4.19452e-08
4.97112e-07
-1.22301e-07
-5.67933e-07
1.65811e-07
-4.13037e-07
8.89188e-08
-3.12172e-08
3.05556e-10
1.20592e-08
1.24109e-08
9.02023e-09
-6.60394e-09
-3.09636e-08
-1.03972e-08
3.00045e-08
-8.18547e-09
1.83663e-09
1.65675e-08
-4.30643e-09
-8.98053e-09
6.88398e-08
-3.94984e-08
-5.82245e-08
2.03472e-09
9.30162e-08
2.28165e-08
-5.61026e-08
2.70319e-08
1.82428e-09
-5.98767e-09
1.47496e-09
-5.49188e-10
-1.13583e-08
-2.44413e-09
1.08058e-08
2.62045e-09
-2.21483e-08
-4.99764e-09
-2.42321e-08
-3.03587e-08
9.37899e-09
-6.13717e-09
-4.29053e-08
-2.7569e-08
-2.09017e-08
-3.84656e-09
-8.68429e-09
3.10974e-08
-1.11787e-09
-2.28647e-08
5.96274e-09
-1.32919e-09
-4.30541e-09
-3.16074e-08
-2.78584e-08
4.80294e-08
-2.21684e-08
-3.31966e-08
-2.67696e-09
3.55347e-08
-4.02732e-08
3.67007e-08
-4.51924e-08
-1.0678e-08
2.40961e-08
-8.54878e-09
2.61957e-11
3.71071e-13
-1.10018e-10
7.20515e-12
-9.99513e-11
-4.4191e-12
5.71116e-11
5.08689e-11
-4.58087e-10
4.26751e-11
-1.00956e-10
-1.04673e-10
-3.89731e-11
4.52636e-11
-6.66755e-10
1.37953e-10
2.05083e-10
-2.0215e-11
-1.85444e-09
1.63866e-10
-4.72406e-10
1.82779e-10
1.44998e-13
1.48262e-12
-3.33117e-12
-9.44436e-13
1.16515e-12
1.3061e-12
-8.39458e-12
4.79935e-14
7.25324e-13
-1.41947e-11
2.51067e-12
7.16164e-12
7.05107e-12
-5.94818e-12
4.23168e-12
-1.1005e-11
1.08582e-13
8.25345e-13
2.79006e-13
-3.98518e-12
5.91627e-13
-1.97183e-12
5.34828e-15
-7.02396e-13
8.55142e-13
-5.96572e-12
1.85856e-12
1.21223e-12
6.79847e-12
-2.59769e-11
3.61333e-13
1.51349e-12
2.43796e-13
3.67594e-14
-2.37219e-14
-1.82882e-13
1.25048e-14
-1.98452e-13
-1.05865e-13
2.1435e-13
-6.65086e-13
1.22255e-13
1.92604e-13
1.36121e-13
-2.38244e-16
2.86323e-14
-7.22585e-13
4.18202e-13
-1.78639e-12
4.96979e-27
4.70788e-27
4.7338e-27
-1.43022e-26
-4.70115e-25
4.22289e-25
5.11198e-26
1.22851e-23
-1.28192e-23
-3.52875e-22
-3.6423e-24
3.6923e-22
-4.6098e-23
-3.18678e-22
3.75563e-24
-4.98453e-23
5.2463e-25
3.0002e-13
-4.43031e-14
-8.81861e-14
4.42249e-13
-4.77794e-14
1.59718e-13
4.18084e-13
2.35115e-14
-2.31746e-15
4.80983e-13
-9.02969e-14
-3.8865e-13
1.59137e-13
1.00409e-12
-3.97266e-13
9.23479e-13
-2.96345e-13
-1.00248e-13
-1.56843e-13
-1.44913e-13
3.57678e-13
-1.1566e-13
-3.13064e-13
-9.00162e-14
-8.00484e-14
3.64178e-13
-7.81483e-14
-6.12831e-13
-2.7019e-13
4.45128e-13
-6.73104e-14
-7.04352e-13
-3.57704e-13
-1.86348e-11
3.57883e-12
3.00074e-12
-2.93232e-12
3.18931e-11
-2.26381e-12
-8.64737e-11
5.56291e-13
1.60663e-11
-6.97668e-12
5.42983e-13
4.21116e-12
-1.73441e-11
2.2821e-11
-7.67881e-11
1.07398e-11
-1.15576e-10
-1.11996e-09
3.42113e-10
4.99051e-10
-9.22178e-10
-4.40108e-11
3.19567e-10
3.31334e-10
-3.11987e-09
1.69714e-10
-1.4728e-10
-1.27894e-10
-4.66881e-11
3.56493e-10
3.06518e-10
-3.02493e-10
4.01483e-10
-2.43859e-09
-6.78542e-10
3.85132e-09
-4.43727e-10
9.29614e-09
-2.83343e-09
5.51518e-09
-4.8588e-09
-2.10611e-09
4.45486e-10
4.10818e-09
-7.08389e-10
-4.0011e-09
-8.35986e-10
-6.24442e-10
1.64761e-09
3.94216e-10
-2.21751e-09
1.5887e-09
-4.27861e-09
5.45644e-09
-1.02697e-09
-9.23223e-08
-7.23723e-10
3.62635e-08
-1.71398e-07
-3.57707e-10
1.72667e-07
-6.79814e-07
-2.51343e-08
3.02475e-09
-3.17699e-08
-1.28278e-09
-7.42314e-08
3.15037e-08
-4.60925e-08
3.76609e-07
2.24497e-07
-2.92975e-07
-3.09994e-07
-1.77635e-08
-2.22765e-07
5.64847e-07
-2.93256e-07
4.27115e-07
3.91396e-07
2.0093e-07
-9.70115e-07
1.12706e-06
-8.61689e-07
-2.68743e-07
1.17077e-06
-5.69832e-07
-1.13663e-05
4.5778e-06
8.73577e-06
-2.13407e-06
1.89289e-05
1.52774e-06
-3.18807e-05
6.24762e-06
1.45591e-05
-7.04498e-06
1.3884e-05
1.82375e-06
1.65932e-05
-2.21046e-05
1.42038e-05
-4.07993e-05
3.28654e-05
-2.39104e-05
5.56092e-05
8.90668e-06
-3.30975e-05
-1.9816e-06
-2.79819e-06
-5.68482e-08
4.21096e-06
-1.07762e-06
7.03101e-06
7.19951e-07
-1.04101e-05
-1.03594e-06
9.31359e-06
2.82452e-06
1.12974e-05
-1.30887e-05
1.6449e-05
-9.95503e-06
2.11936e-05
-5.38998e-06
4.63565e-05
-2.79644e-05
-7.38113e-06
-1.73566e-05
5.14082e-05
1.10426e-07
-3.14735e-05
-1.27671e-06
-9.67391e-06
1.6433e-07
9.217e-06
5.92445e-06
-2.71076e-05
7.94416e-06
5.16352e-07
5.21687e-05
-2.18043e-05
-6.33538e-05
-2.88981e-05
6.13361e-05
3.44702e-06
-2.00162e-05
-1.60952e-05
8.0244e-06
8.83244e-06
-2.73526e-05
-3.0939e-06
-3.29812e-06
4.45216e-07
1.95212e-05
-1.81851e-05
-2.79162e-06
1.2204e-05
-1.04265e-05
6.5273e-07
-1.92347e-05
4.98794e-05
4.75602e-06
2.4347e-06
-1.84871e-05
5.62987e-06
2.04269e-07
-3.01481e-06
-1.09064e-05
-1.90839e-05
2.05392e-05
1.01286e-05
-1.10732e-06
-2.92075e-05
-5.79674e-06
4.80186e-06
1.51572e-05
-8.56864e-06
8.15479e-06
-1.04557e-05
-2.55607e-06
1.71608e-05
5.02625e-06
-1.7157e-05
1.89607e-05
-2.31234e-05
2.21198e-05
4.80901e-06
1.12315e-07
-3.7136e-06
-6.04701e-07
-7.98806e-07
-7.64572e-07
6.61232e-06
-6.51037e-07
-8.85148e-09
5.5366e-07
-4.9233e-07
-3.74433e-06
-5.16604e-07
3.42763e-07
1.01041e-06
3.97634e-07
-2.0404e-06
1.07778e-06
-1.6718e-09
-1.64035e-07
7.46444e-07
-2.53366e-07
4.10346e-06
4.64928e-06
-5.03104e-06
-5.28667e-06
-2.05587e-06
-8.22252e-06
1.35994e-05
-1.83723e-05
2.21399e-05
-6.43645e-07
1.24046e-05
-1.79359e-05
1.0435e-05
-1.47303e-05
-1.26955e-05
1.74827e-05
-2.04098e-05
-6.2767e-08
-3.09238e-07
1.44835e-08
3.54636e-07
-6.07706e-08
3.08903e-08
-3.87644e-08
-2.48853e-08
-3.49531e-07
-7.97838e-08
-6.55761e-08
1.71686e-07
-4.11824e-08
-7.52345e-08
9.66402e-08
-1.65783e-07
4.2354e-08
1.86054e-07
1.7458e-07
5.76602e-07
-8.96211e-07
-1.62254e-07
1.17567e-07
2.64719e-07
3.20301e-07
1.72308e-06
-1.91427e-06
5.41934e-07
-7.7069e-07
2.86417e-06
-9.51018e-08
-2.91419e-06
1.04874e-06
-6.66429e-07
-2.04038e-07
-1.30726e-06
9.33651e-07
-3.73199e-06
-8.98644e-07
1.84068e-07
2.0473e-06
-1.35712e-06
1.80285e-06
3.44211e-06
-6.23106e-06
1.7474e-06
2.0752e-07
-2.52929e-07
7.79118e-07
1.52172e-06
2.90187e-06
2.85766e-07
-6.21617e-06
-3.15092e-06
1.06085e-05
-1.58747e-05
5.10202e-06
2.5559e-06
-1.54895e-05
1.92638e-07
1.01222e-05
4.41461e-08
-1.14256e-05
1.26326e-06
-1.31961e-05
-5.06303e-06
2.83863e-05
1.36123e-06
-1.44949e-05
-7.75567e-06
-3.10012e-05
3.26994e-05
-3.96998e-05
2.05239e-05
-3.49498e-05
2.0519e-06
-8.89284e-05
-7.07889e-06
-5.80101e-06
1.39691e-05
-1.92269e-06
-1.09836e-05
5.15333e-06
-1.20614e-05
2.73248e-05
-7.12494e-05
-5.74708e-06
-5.02154e-05
-1.44179e-05
3.15725e-05
2.15614e-05
-7.7486e-05
1.23379e-05
2.21123e-05
-2.96715e-06
-4.32646e-06
-3.16786e-06
1.10182e-05
-1.09607e-06
-2.42794e-06
6.75298e-07
-3.06773e-06
-1.20751e-06
4.83889e-06
6.58375e-07
-8.39554e-06
1.31565e-05
-2.37729e-06
3.48055e-06
-5.14302e-06
1.5719e-05
-3.97549e-07
-5.2662e-07
-3.46936e-07
1.23052e-06
-1.13281e-07
-4.19843e-07
8.85652e-08
-5.3419e-07
-1.26017e-07
9.17083e-07
1.67863e-07
-1.65123e-06
1.00626e-06
-2.31401e-07
6.20631e-07
-8.82696e-07
1.27369e-06
2.77517e-06
-1.02791e-05
4.81724e-06
-1.70341e-05
-1.44757e-05
3.70214e-06
1.4312e-06
1.44039e-05
-3.58998e-05
-1.44475e-06
-8.02466e-07
3.18394e-06
-2.03935e-06
5.95026e-07
-7.40094e-07
-6.203e-07
-1.03686e-07
-2.22664e-06
-1.89109e-06
1.37666e-06
9.0809e-07
4.04621e-06
4.69824e-06
6.32082e-06
8.14203e-06
-2.78745e-05
2.16251e-06
1.64554e-06
-2.887e-06
1.49212e-06
1.38956e-06
-1.11481e-06
-1.67464e-06
2.13883e-06
-7.61945e-06
2.37244e-06
-7.22038e-06
2.47064e-06
-2.28964e-05
1.04134e-07
1.89717e-08
9.67422e-07
-1.10146e-06
-2.92024e-06
1.34305e-06
1.26539e-06
4.92682e-06
-7.58962e-06
-2.33328e-07
-1.13123e-06
2.92165e-06
-5.98507e-06
7.22092e-06
-2.19939e-07
-1.06726e-06
9.83591e-08
-2.78444e-06
-3.36226e-06
1.65496e-07
2.02892e-06
9.18533e-07
1.13465e-06
8.59223e-08
-1.17907e-06
-4.84368e-08
-1.60873e-06
-7.16462e-07
3.57015e-06
-2.95352e-06
1.61487e-06
9.1876e-07
3.97147e-06
-6.22735e-06
8.63354e-07
-2.19415e-15
1.55718e-07
-8.55885e-16
1.2869e-06
1.44638e-06
-3.73887e-05
-1.41301e-06
3.7057e-05
-3.83022e-05
3.58439e-05
3.88401e-06
3.38772e-05
-0.000109781
3.75518e-05
-3.34292e-05
-5.13232e-06
-3.46667e-05
0.000109408
-3.3326e-06
4.36122e-06
-3.06362e-06
4.05757e-07
3.06983e-07
-1.68084e-07
-1.32247e-06
1.25292e-07
-5.16396e-07
3.57236e-07
-3.74517e-07
5.0731e-07
-1.03295e-06
4.72465e-07
-5.05839e-07
1.31205e-06
-5.67073e-06
1.0578e-07
-6.29807e-07
4.61938e-07
2.47067e-06
8.24432e-07
-5.21859e-06
-2.19228e-06
-1.0923e-06
-5.15622e-07
1.54676e-06
-2.91888e-06
3.73676e-07
-2.71749e-06
-1.46431e-06
1.90058e-06
-5.96231e-06
-9.13664e-06
1.729e-06
-1.24765e-05
3.07e-07
1.0504e-05
3.72028e-06
-1.07301e-05
-4.69372e-06
-6.40685e-06
-1.76836e-05
3.46616e-05
-1.42234e-05
1.14143e-05
3.12504e-06
2.03645e-05
-3.30372e-05
1.52922e-05
-1.72254e-05
9.5332e-06
-1.20114e-05
1.5626e-05
3.48834e-06
-1.09566e-05
-1.12443e-05
3.07042e-05
-1.44211e-05
-1.18384e-05
3.38509e-05
-8.37759e-06
-8.06733e-06
5.55937e-07
-4.39835e-06
-3.49309e-06
-3.74907e-06
-2.97472e-06
-1.07729e-05
1.68763e-05
-1.90981e-05
5.66628e-06
-6.88138e-06
-2.47765e-06
9.76884e-06
2.02009e-06
1.90664e-05
-5.19262e-06
-2.6468e-05
1.89834e-05
-1.73964e-05
-1.59627e-05
5.37198e-05
-3.05111e-06
-1.65277e-05
-2.1543e-05
2.8691e-05
-1.08259e-05
1.4288e-05
-5.12456e-05
-2.94141e-05
5.56387e-05
-3.91335e-05
-8.49308e-06
-1.2419e-08
5.12477e-07
1.24789e-05
1.98226e-05
1.56474e-05
-4.41306e-05
2.19326e-05
4.67571e-06
5.3254e-06
-4.19397e-06
3.24051e-07
-3.19895e-06
2.22359e-05
5.6736e-06
7.15264e-06
2.46315e-05
4.96856e-06
2.21929e-05
-2.41893e-06
-1.54679e-05
1.41938e-05
-2.06625e-05
1.20227e-05
-2.22625e-05
6.04492e-05
-1.57784e-05
2.06425e-05
2.05462e-05
-5.23824e-05
-3.83637e-06
9.46592e-06
-4.91829e-06
1.69281e-06
-4.88961e-06
1.0572e-07
3.12451e-06
-1.67688e-05
3.71458e-06
4.7196e-06
1.03538e-05
-3.40142e-05
7.26346e-07
-1.46087e-06
3.49384e-07
-2.71558e-07
3.71089e-06
-3.00953e-06
4.24334e-06
3.71793e-06
4.70104e-06
1.19929e-05
3.5833e-06
-2.11977e-05
4.16646e-07
3.68936e-06
-1.23192e-07
7.8968e-06
1.1611e-06
4.04453e-06
2.08057e-05
-2.1237e-05
1.44156e-05
-7.62273e-06
-1.36207e-05
3.929e-06
-9.60956e-07
-1.00746e-06
2.08744e-06
1.14289e-06
2.17741e-06
1.78838e-07
-2.19952e-05
6.5293e-07
-1.0445e-05
-5.35634e-05
-7.65621e-10
-3.10992e-08
-2.15222e-08
4.71321e-08
-5.80165e-08
-5.74828e-08
1.03887e-07
-6.72921e-08
-4.97145e-08
3.35534e-08
-1.09499e-07
2.37607e-09
-7.91198e-08
8.44895e-08
-9.562e-10
-1.86375e-07
-2.09068e-07
7.59688e-08
4.43962e-08
-2.06621e-07
-1.20578e-07
-2.32994e-08
-4.65693e-08
1.23724e-07
-1.49041e-07
1.24052e-07
1.92886e-07
2.35516e-07
-1.02111e-06
2.38025e-07
-2.75795e-07
-6.46634e-08
2.14582e-07
-3.34667e-08
-1.14322e-07
2.57062e-07
1.80081e-07
-1.12033e-07
5.74731e-08
4.80297e-08
-3.86381e-08
2.30603e-07
-3.66208e-08
-4.61701e-07
1.68383e-08
2.13375e-07
-2.78539e-08
2.63946e-08
4.30546e-08
-1.75885e-08
-5.17648e-08
-2.60074e-08
2.59238e-08
2.19043e-08
-1.99472e-08
-3.23748e-08
9.13504e-08
-2.12352e-07
1.0895e-07
-1.2263e-09
-2.63039e-08
-1.33476e-08
-2.03339e-08
3.64639e-08
-4.12122e-08
-1.48666e-08
2.43717e-10
-7.22572e-08
-8.58135e-08
-5.94597e-08
-6.35798e-08
6.45654e-08
2.38101e-08
-4.11369e-07
-1.78817e-07
2.80597e-09
4.19924e-09
-4.45309e-09
-3.63783e-09
2.86985e-09
-8.52578e-09
6.70762e-09
-1.63232e-08
-2.8182e-09
-2.16857e-09
-7.46588e-09
3.7958e-09
-1.85713e-08
4.39843e-09
-7.35998e-10
-4.18029e-08
-1.38946e-08
-9.98665e-09
-1.37656e-07
-3.94161e-09
8.12107e-08
-1.11078e-07
7.14282e-08
-9.56061e-08
2.3861e-08
-4.19498e-07
3.18106e-08
-3.1291e-08
-1.08301e-08
1.91344e-08
7.4596e-08
1.9289e-08
-1.86933e-08
-3.83656e-08
-1.99903e-08
5.2982e-08
-3.91963e-08
7.02341e-08
-5.61434e-08
-1.02306e-07
-4.97393e-09
4.44216e-08
3.62965e-08
4.07118e-08
2.44187e-08
-2.0399e-07
-9.49384e-10
2.54304e-08
1.02259e-08
-1.0092e-08
-2.72616e-09
-5.92744e-09
3.13619e-08
1.63639e-08
-8.81982e-09
4.16739e-08
7.46607e-10
4.03082e-10
-1.66091e-09
-2.81201e-10
-6.66447e-10
-6.96219e-10
1.7259e-09
-3.91424e-09
1.33091e-09
2.18624e-09
-6.225e-09
5.4164e-10
-1.27996e-10
-3.45881e-09
2.68993e-09
-6.64184e-09
3.38353e-08
4.65818e-08
7.48183e-09
-1.14617e-07
4.72852e-09
2.64103e-10
1.55517e-08
1.67365e-08
1.5125e-08
8.91545e-09
-1.13864e-08
-4.00399e-10
-8.60211e-10
2.02104e-08
-1.32076e-08
2.30096e-08
-2.44835e-08
-1.39724e-09
-1.85371e-09
1.73599e-09
3.68756e-10
-1.1365e-09
-5.2456e-09
-6.01953e-09
-1.96945e-09
4.47369e-09
1.26457e-09
-5.7105e-09
-7.31634e-10
1.62161e-10
6.40162e-09
9.08237e-10
-1.26841e-09
-5.4142e-09
-6.02021e-10
3.75451e-10
8.15516e-10
-8.66337e-10
-1.513e-09
-5.96415e-12
9.05193e-10
2.82245e-09
-6.25199e-09
3.31185e-09
-2.25686e-08
-7.97245e-09
2.29205e-09
1.97241e-08
2.09136e-08
-2.39976e-09
-5.08234e-08
7.37762e-09
-6.28292e-09
-1.52499e-08
-7.7561e-10
1.75516e-08
-2.72219e-08
-5.02802e-09
3.26568e-08
-7.57346e-08
2.72482e-08
4.33532e-10
1.01858e-09
2.75763e-09
-7.10022e-09
-2.04606e-10
9.72336e-10
-9.48961e-10
5.14837e-11
1.66773e-10
2.43936e-10
-3.9728e-10
3.94925e-11
4.71241e-10
-2.45363e-12
-5.92047e-10
1.89987e-09
8.79687e-10
1.93982e-09
4.35614e-08
-4.93822e-08
-2.06402e-09
3.21009e-08
-8.83933e-09
3.71288e-09
1.33483e-09
7.44506e-08
9.05389e-09
8.99018e-08
-1.16273e-07
2.13761e-08
2.11506e-09
2.60885e-08
4.84838e-09
7.28304e-08
4.76218e-09
-2.46517e-08
6.91689e-09
1.3024e-08
-3.21237e-08
1.55733e-08
2.13463e-08
-2.80943e-08
-2.86474e-08
-4.86507e-09
2.11358e-08
-2.4595e-09
-8.53052e-09
1.67232e-08
-3.87565e-09
3.72776e-09
2.14526e-08
-1.96228e-09
-8.65482e-09
-3.66984e-09
1.72902e-08
-2.80269e-08
2.25457e-08
-2.44241e-08
1.8822e-08
-1.77549e-08
-2.5592e-08
-1.61372e-08
5.3067e-08
-3.30653e-08
-1.04684e-08
-2.18119e-08
-4.42416e-08
5.18726e-08
1.02415e-09
-4.55712e-09
-4.15911e-09
-6.29832e-08
-1.40888e-08
-4.41273e-06
-2.6796e-06
1.71255e-06
7.18175e-06
1.69209e-06
-6.87937e-07
-4.76773e-06
2.9129e-06
-1.49781e-06
-4.30057e-06
6.79041e-07
6.21966e-06
-1.11088e-06
-5.05559e-06
4.40727e-06
-6.36895e-06
6.54681e-06
5.32562e-08
1.89332e-08
1.58321e-08
-5.80869e-08
5.16732e-07
1.84196e-06
-5.8213e-07
1.01012e-06
1.34499e-06
9.53255e-08
7.76183e-08
-1.35893e-07
5.8359e-07
1.52677e-06
6.62503e-07
7.4185e-07
3.5008e-06
1.00914e-08
7.85597e-09
1.12371e-08
-3.19005e-08
9.85575e-09
2.18278e-08
-1.52797e-08
1.88475e-08
2.15947e-08
9.83637e-10
-3.30524e-08
5.46486e-08
-1.81876e-08
4.12531e-08
-1.78122e-08
7.88766e-09
-1.59957e-08
1.1839e-06
-7.93457e-10
-1.15962e-06
-4.88971e-08
-1.0355e-06
-4.38783e-07
2.53349e-06
-1.13968e-06
1.31624e-09
4.99708e-08
-1.2507e-06
-3.88229e-08
-3.84148e-07
4.6296e-09
3.84998e-07
-2.77664e-06
8.05321e-09
-3.78709e-06
-9.03221e-08
4.15596e-06
4.04848e-07
1.01726e-06
2.22061e-06
-7.62687e-06
-7.62539e-07
1.19538e-06
1.10306e-05
-1.24661e-05
-1.09362e-06
-3.99276e-06
1.64266e-05
5.46423e-06
1.29958e-05
-2.65383e-05
3.87432e-06
4.56979e-06
-6.45529e-08
3.85839e-08
4.07901e-09
-3.69374e-05
-2.1741e-05
-7.82511e-06
6.64758e-05
1.71849e-07
-3.82148e-05
-2.56475e-05
6.30106e-07
8.48399e-06
-4.14596e-06
-3.00722e-05
8.2899e-06
2.4161e-07
9.88145e-06
1.3842e-05
-2.78719e-05
2.8352e-05
-1.09256e-05
4.64952e-05
-7.08792e-05
6.7016e-05
-2.00104e-05
-4.42356e-07
2.15085e-05
6.37205e-07
1.17556e-05
1.75095e-05
-4.85267e-05
-2.62149e-07
1.19318e-05
1.66973e-05
-1.41437e-05
-6.73939e-07
-6.52969e-06
3.52178e-05
1.01989e-08
2.49098e-05
-7.70724e-07
2.05358e-05
4.2788e-07
-2.55279e-05
5.91444e-05
-1.79555e-05
-1.0816e-05
-2.23848e-05
6.8416e-05
-1.15326e-05
1.15815e-07
1.10277e-05
4.28691e-06
-2.67851e-05
1.11782e-05
2.74517e-08
9.37309e-06
-2.39047e-05
3.43131e-05
-1.36788e-05
7.10877e-05
-1.03242e-05
-1.59971e-07
6.93949e-06
1.8787e-07
2.09124e-05
2.5562e-05
3.35856e-07
1.31847e-05
1.85821e-05
6.28334e-07
-6.36116e-06
3.62457e-05
-2.60614e-07
1.2511e-05
1.57651e-05
3.12586e-06
-3.12524e-05
-8.56676e-07
1.29355e-05
7.0356e-07
-1.70375e-05
1.00083e-05
-4.07703e-05
8.06073e-06
5.57464e-06
3.65822e-06
-1.5546e-05
6.34158e-07
8.60224e-06
6.72471e-07
6.95474e-06
7.35378e-06
6.49015e-06
2.74255e-06
1.32861e-05
5.65514e-06
8.46391e-07
1.48983e-05
2.39423e-05
7.72089e-06
2.57799e-05
-2.37825e-07
-2.71136e-05
-2.77161e-05
-6.02441e-05
-9.79369e-06
-1.11738e-06
1.78703e-05
-1.8205e-06
-9.16877e-07
-1.4541e-06
-1.3036e-06
-9.52076e-07
-1.14686e-06
1.20605e-06
-1.36526e-06
-8.80407e-07
3.76369e-07
-1.08969e-06
-5.96089e-07
-2.09176e-06
-9.8219e-07
-2.36931e-06
-2.91789e-06
-2.65696e-05
-9.93565e-07
1.0921e-05
1.59636e-05
-5.12158e-05
-5.09483e-08
1.35699e-05
2.71482e-06
-1.48348e-05
1.41794e-05
3.35312e-05
1.76955e-05
1.84736e-05
-5.09982e-05
1.25841e-05
1.92979e-05
8.83899e-06
-2.24555e-05
1.57541e-05
-2.30699e-05
1.12135e-05
-1.58682e-05
2.30357e-05
3.9439e-06
1.78593e-05
2.49877e-05
1.17603e-05
2.88632e-05
3.62338e-07
-7.05259e-06
4.23388e-07
-1.50964e-05
-1.41511e-05
5.77469e-05
5.79273e-07
-1.75816e-05
-1.67527e-05
1.25512e-05
1.20171e-06
7.7721e-07
-3.306e-05
-1.34896e-05
1.6773e-05
-1.36073e-05
-9.99956e-06
-3.31708e-05
5.21286e-06
3.80848e-05
3.4687e-07
-5.90254e-06
2.63665e-07
-7.76046e-06
1.21285e-06
-8.94019e-06
-7.95923e-06
3.54044e-05
-2.68253e-05
1.50327e-05
1.87359e-05
4.12607e-06
-5.58234e-05
1.26051e-05
5.21003e-07
1.96965e-05
-4.34349e-05
2.5628e-05
-1.45244e-05
-3.62041e-05
1.21724e-06
5.29777e-06
4.46884e-06
5.10618e-07
-4.96047e-06
-4.09933e-07
-2.11722e-05
-5.70219e-07
2.64642e-05
7.12572e-07
-1.91755e-05
5.93886e-06
-2.19041e-05
6.50787e-06
-1.57176e-05
1.68075e-05
-2.00509e-05
2.11964e-05
5.52882e-07
7.25374e-07
-3.95299e-05
2.29417e-05
-1.92192e-05
2.88138e-05
-9.95837e-06
-1.01612e-05
-2.92652e-06
2.45353e-05
-6.49929e-07
-7.67923e-06
-1.39955e-07
-6.35993e-06
3.23232e-06
-3.16984e-05
1.05814e-05
1.67247e-05
7.45952e-06
-3.65924e-05
-2.81302e-05
-1.21157e-05
-1.83412e-05
-3.46301e-08
3.28486e-07
7.23005e-06
-1.59837e-07
-6.80904e-06
9.26364e-08
-1.35697e-05
-2.7511e-06
2.40183e-05
-2.65011e-07
-1.1831e-05
3.2213e-06
-2.22083e-05
1.25882e-05
-1.02841e-05
9.94296e-06
-1.18114e-05
-9.44906e-07
-4.97417e-05
-1.76194e-05
-1.57468e-05
-1.7375e-05
1.08118e-08
-1.48651e-05
3.78006e-08
-1.33475e-05
1.4157e-05
-4.3375e-05
7.29653e-06
-2.01174e-05
3.33851e-07
-7.69407e-08
2.55634e-07
1.01976e-06
1.54724e-06
6.32677e-07
-3.11241e-06
5.4324e-08
-4.82876e-08
1.03803e-06
1.59141e-06
2.39569e-08
2.25054e-06
-1.65869e-06
-7.80408e-07
4.23596e-06
-2.207e-06
2.98243e-06
-3.27296e-06
-1.74231e-06
-1.1419e-06
-1.23328e-07
2.8778e-06
-8.34323e-09
-1.42695e-06
-3.4599e-08
-9.32812e-07
-4.51695e-09
1.43779e-06
3.73375e-07
-2.63326e-06
1.67651e-06
9.11192e-08
1.81377e-06
-2.7521e-06
3.44819e-06
1.05392e-08
-8.1755e-09
-1.4523e-08
2.61856e-08
-1.48806e-08
-6.29755e-09
3.79773e-08
-4.92613e-09
-2.67794e-09
1.81295e-08
-4.49847e-09
-3.22655e-08
-1.14019e-08
2.3192e-08
7.76134e-09
-1.7292e-08
-6.37272e-09
5.55301e-09
2.46475e-09
3.72349e-09
-1.1927e-08
1.97955e-09
-1.6471e-09
5.84229e-09
1.44268e-09
3.33326e-09
5.22925e-09
-1.69805e-08
1.43067e-08
-4.91183e-09
1.62895e-08
-1.27646e-08
1.27401e-08
-2.22858e-08
-4.95103e-09
-3.82957e-09
5.51743e-10
9.09948e-09
2.78636e-09
2.53339e-10
-7.4086e-09
8.32167e-10
-3.84552e-09
3.4825e-09
3.78303e-09
-7.11673e-09
-1.0596e-09
5.06961e-09
-7.97357e-09
5.81594e-09
-1.37275e-08
2.58069e-08
1.39352e-08
2.55034e-08
-8.56424e-08
-4.54387e-09
-1.65077e-09
2.51701e-08
1.75353e-08
-8.16037e-09
2.5062e-08
-2.48749e-08
-2.17327e-08
1.50869e-10
3.7779e-08
7.79313e-09
-5.774e-09
-5.18766e-08
-9.26021e-09
1.12681e-08
-7.15043e-09
1.52672e-08
6.81913e-09
4.13622e-08
1.16391e-08
-5.32905e-08
-8.41831e-08
-1.60518e-08
3.87588e-09
5.6976e-08
2.43436e-08
-2.97717e-08
-4.73849e-08
1.725e-08
-8.52591e-09
-8.43948e-08
-7.85971e-09
3.06368e-09
2.17349e-08
1.09026e-08
-3.02923e-08
-2.255e-08
2.29645e-08
-9.3988e-08
1.10575e-06
-5.9063e-07
-2.45731e-06
1.55099e-06
-1.22144e-06
-1.56599e-06
3.43743e-06
-2.24505e-06
-1.03342e-06
-3.87535e-07
-3.23204e-06
9.2996e-07
-1.3625e-06
-7.41201e-07
7.02504e-07
-1.91174e-05
-2.36195e-06
-2.00992e-08
2.12387e-08
-9.88977e-08
1.12146e-07
8.82494e-08
-6.02371e-08
-1.63846e-08
-2.75338e-07
4.07161e-07
5.98139e-08
4.35936e-09
-8.71064e-08
1.10837e-07
-5.81778e-08
1.86739e-07
1.09708e-07
1.03988e-07
7.31783e-09
2.82357e-09
-9.73893e-08
-5.87079e-08
1.04155e-07
1.53485e-07
-1.52827e-08
-4.00329e-09
4.82772e-08
-7.62581e-09
-4.04339e-08
-1.40178e-09
1.81766e-07
2.61611e-08
-5.86746e-08
8.89133e-09
2.55766e-09
1.64839e-08
-6.38347e-08
1.35631e-08
-2.27921e-08
3.15561e-08
1.24286e-08
-2.11843e-08
2.22353e-09
6.47921e-06
2.18104e-06
-5.25009e-06
-2.05375e-06
-7.68763e-06
-1.29929e-05
2.78688e-05
-1.70932e-05
1.22075e-05
4.27659e-06
9.02416e-07
-2.28585e-06
6.61801e-06
-3.76883e-06
-1.06419e-05
4.61326e-06
-2.66713e-05
-1.69528e-06
-1.90532e-07
-1.37538e-06
3.27576e-06
1.22876e-06
-2.35336e-06
-1.14532e-06
-2.22409e-06
3.23226e-06
-1.14633e-06
3.94878e-06
-4.95395e-06
5.29891e-07
-2.65961e-06
2.94122e-07
-2.08352e-06
2.51511e-06
-8.91883e-06
7.80252e-07
1.90037e-05
-2.4543e-06
8.81223e-06
1.9136e-06
-1.93212e-05
1.54483e-05
1.38918e-06
-2.4204e-06
5.77345e-06
1.15259e-06
2.10175e-05
-4.48717e-06
-7.4593e-06
4.93164e-05
1.52813e-07
-1.71135e-05
6.73579e-07
-1.10733e-06
1.74065e-05
3.36729e-05
3.19853e-05
-8.28117e-05
3.15192e-05
2.71783e-06
9.21567e-06
-1.00458e-05
-3.00771e-07
-5.00219e-06
3.24246e-05
6.40705e-06
1.55011e-05
3.28637e-05
2.28638e-06
2.60909e-05
-2.69654e-05
-1.68216e-06
2.30793e-05
-2.6378e-05
5.46734e-06
-2.76974e-05
7.65917e-05
2.56132e-05
2.85253e-05
-8.12891e-05
2.65474e-05
-2.31842e-06
4.27095e-06
-3.56504e-06
-1.04986e-05
-3.15455e-05
-2.46971e-05
6.64327e-05
9.20899e-07
-2.93224e-07
-1.12004e-05
-3.39476e-05
3.34467e-06
-1.61666e-05
1.63392e-05
-5.11568e-07
8.52853e-06
-3.59339e-05
2.74844e-05
-5.28463e-05
2.94702e-05
1.43642e-05
8.11855e-06
2.3464e-05
1.42404e-05
-7.56231e-05
2.19745e-05
1.21168e-06
-3.18575e-05
6.83154e-05
-3.79339e-05
7.73046e-06
1.99849e-05
1.27807e-06
1.65525e-06
-2.47006e-05
-1.22279e-05
-1.21173e-05
2.25816e-06
-1.33736e-05
-3.89488e-05
2.93702e-05
1.36315e-05
1.13821e-05
-6.62828e-05
-1.52865e-05
4.70023e-06
4.93342e-05
6.01529e-05
-6.65673e-07
2.10246e-05
1.0672e-05
7.69548e-06
-2.79446e-06
1.89466e-05
-2.40216e-05
-1.30855e-05
1.15861e-05
7.33524e-06
2.68987e-05
-3.29672e-05
-1.60951e-07
-2.58713e-05
3.7688e-05
-1.70151e-05
2.39076e-05
-1.704e-05
2.69528e-05
-2.39267e-05
-2.13354e-07
-3.82357e-07
-2.49143e-07
-1.34307e-07
-4.03659e-07
9.20834e-08
-2.43811e-07
-6.36491e-07
2.91125e-07
3.87868e-07
-1.45449e-06
1.23231e-06
-2.69688e-06
-2.06189e-07
5.73748e-07
-4.92916e-07
-6.856e-09
1.03418e-07
1.60081e-10
-2.32634e-07
6.84503e-08
-1.94202e-07
-5.22755e-08
-1.55501e-07
2.3959e-07
-3.19543e-07
9.90151e-08
2.89408e-08
-2.92521e-08
-9.89752e-07
8.00648e-08
-5.31089e-07
-3.54013e-08
1.2903e-08
-1.66248e-08
-5.73027e-08
-8.1832e-08
-1.2073e-08
-1.11672e-07
4.01257e-08
3.48113e-08
-6.99469e-08
3.80581e-08
-1.02799e-08
3.1512e-08
-3.02626e-07
-5.82029e-08
-3.27021e-09
7.61815e-08
-2.5559e-08
-5.15248e-08
4.36704e-08
-6.18676e-08
5.90657e-08
3.13836e-09
1.63365e-09
-5.86067e-09
-4.6522e-10
7.9687e-10
-1.34005e-08
-2.0174e-09
-4.99303e-09
-1.75991e-09
-2.10596e-08
-2.01562e-09
-1.39601e-09
-1.04349e-08
1.16692e-09
1.45468e-09
-7.68293e-10
-2.28374e-09
-5.86603e-11
-3.38343e-10
-2.44284e-10
-2.3172e-10
1.05412e-10
-2.96435e-10
-2.49326e-10
-5.05308e-10
-1.80914e-09
2.23279e-12
1.19221e-10
-7.65704e-11
-7.76241e-11
1.28876e-10
-1.0612e-10
-2.32631e-11
-2.14579e-10
-3.26703e-10
-3.71139e-11
-7.49839e-11
3.41753e-11
-2.80687e-11
-1.04157e-10
1.48251e-10
-3.14448e-10
-1.80237e-10
-1.51315e-10
-1.80384e-10
-9.24524e-11
4.47461e-10
-3.24849e-11
-1.47657e-10
9.47803e-11
-8.11905e-11
-1.39585e-11
-1.61085e-10
-6.01588e-10
6.9638e-10
-2.06469e-10
-6.00289e-11
2.1342e-10
-4.50375e-10
-6.71485e-11
-3.05733e-10
-1.24173e-11
6.90945e-11
1.90424e-10
3.82529e-11
2.04901e-11
-4.39092e-10
-7.24843e-12
3.21029e-11
9.52386e-11
-5.61243e-11
-3.84636e-11
-8.10155e-12
1.34161e-10
-5.93272e-11
1.97671e-11
8.8396e-11
1.22154e-11
-6.50476e-11
1.06508e-10
-1.5589e-10
1.10467e-10
3.20004e-11
-8.98389e-12
3.24432e-11
-6.50918e-11
-7.98583e-11
3.39273e-11
4.84424e-11
2.61563e-10
-3.93898e-10
-5.11946e-12
-2.98379e-11
6.03762e-11
-9.62178e-11
-1.8345e-11
1.64977e-10
-1.84382e-11
1.77993e-12
4.12353e-12
-4.30401e-13
6.73271e-13
-6.41982e-13
3.4712e-13
9.10048e-14
2.48755e-12
1.46191e-12
-2.5563e-13
2.78137e-13
8.59201e-13
1.19664e-12
8.0377e-12
-2.37325e-10
7.21397e-11
6.40146e-12
-3.26214e-10
1.23334e-11
-1.50085e-09
-5.21935e-11
9.12519e-11
3.02182e-11
-2.75585e-11
1.87165e-12
1.40357e-11
3.24477e-11
2.84138e-11
-1.37371e-10
1.13899e-12
1.32581e-11
1.11333e-11
-2.87574e-11
3.34215e-12
-5.55885e-12
2.0185e-11
3.19455e-11
-5.94809e-11
-2.60981e-11
4.68156e-11
1.06765e-10
-2.90617e-10
8.71543e-11
-1.29398e-10
2.86056e-11
7.12667e-11
-6.60081e-10
4.83453e-11
3.40705e-10
-3.21402e-10
-1.4271e-09
-2.7029e-10
1.08476e-11
2.02743e-10
9.74052e-11
-9.66397e-10
8.55585e-11
-2.32739e-10
7.60316e-11
1.28903e-09
-3.10668e-08
-4.25041e-08
2.65614e-08
-3.98999e-08
-2.11339e-08
3.83543e-08
-4.95688e-08
-2.05552e-08
5.74958e-09
-2.42526e-08
-2.38085e-08
-1.23661e-08