/*--------------------------------*- C++ -*----------------------------------*\
| =========                 |                                                 |
| \\      /  F ield         | OpenFOAM: The Open Source CFD Toolbox           |
|  \\    /   O peration     | Version:  v2012                                 |
|   \\  /    A nd           | Website:  www.openfoam.com                      |
|    \\/     M anipulation  |                                                 |
\*---------------------------------------------------------------------------*/
FoamFile
{
    version     2.0;
    format      ascii;
    class       volScalarField;
    location    "0.5";
    object      p;
}
// * * * * * * * * * * * * * * * * * * * * * * * * * * * * * * * * * * * * * //

dimensions      [1 -1 -2 0 0 0 0];


internalField   nonuniform List<scalar> 
6576
(
-377.588
-400.337
-368.553
-375.623
-384.874
-364.183
-364.153
-351.237
-370.848
-368.291
-368.225
-358.973
-346.408
-361.447
-272.304
-289.625
-325.764
-320.251
-294.084
-287.529
-327.47
-356.323
-365.174
-435.777
-265.636
-224.307
-150.809
-406.833
-406.278
-403.734
-395.556
-386.25
-347.979
-250.868
-232.966
-248.444
-275.517
-273.739
-265.32
-268.806
-304.362
-350.439
-298.737
700.801
372.427
1129.26
540.837
609.183
1108.26
1030.03
684.563
865.149
-3.44223
-3.16189
-3.33522
-3.74075
-4.54921
-5.25405
-3.97976
-3.64562
-3.56871
-3.55538
-3.47705
-3.55996
-3.75478
-3.55617
-2.76459
-3.00426
-3.04047
-3.2467
-3.04376
-3.3069
-3.13005
9.91876
5.09381
10.76
8.17062
11.1461
11.0067
10.0186
4.39242
3.57722
3.95058
4.24679
5.47663
4.10701
3.55158
19.2667
19.1122
20.4777
15.5969
14.4808
19.6509
15.7356
210.877
216.527
290.51
187.313
214.083
212.441
179.392
379.702
355.798
319.133
360.234
459.476
339.088
365.733
1117.78
1169.44
1200.26
1036.23
1231.76
1578.86
-3.08336
-2.96187
-2.45039
-2.56938
-3.14317
-2.33037
-2.85639
-9.27903
-34.5817
-93.6025
-84.3118
-7.77318
-33.798
8.50758
-2.51868
-3.06096
-2.95956
-3.32585
-3.13614
-3.47306
-3.3939
-38.2052
-42.564
-38.3225
-13.7854
-34.2333
-37.5206
-15.4339
-7.05631
-7.10424
-9.69225
-6.96808
-7.95706
-7.38738
-5.98512
-3.40317
-3.56739
-3.35771
-4.75733
-3.406
-2.46587
-3.31077
-3.68099
-3.74022
-4.38767
-4.26714
-4.12814
-5.90411
-6.65728
-5.22359
-5.95619
-1.94261
-1.70613
-1.97343
-3.0869
-2.30911
-1.15634
-1.97118
-2.96009
-3.00959
-3.83844
-3.27976
-2.90972
-5.02327
-4.55321
-4.42106
-5.45255
-2.3007
-2.20123
-2.38063
-2.31609
-2.33789
-2.59237
-2.1859
-2.32809
-2.48398
-2.37554
-2.34907
-2.24804
-2.51046
-2.19328
-2.55194
-2.44301
-2.66384
-2.55606
-2.41963
-2.72537
-2.63202
-2.57852
-2.55608
-2.35704
-2.18725
-2.3127
-2.41093
-2.59626
-2.37079
-2.2059
-3.08173
-3.19827
-3.24892
-2.96036
-2.90189
-3.19113
-3.32501
-2.69384
-2.65048
-2.55184
-2.58421
-2.67242
-2.65504
-2.58898
-2.55356
-2.55726
-2.45811
-2.56486
-2.52284
-2.41341
-2.46586
-2.3749
-2.32445
-2.31654
-2.4133
-2.48042
-2.30444
-2.33474
-2.01759
-2.12005
-2.10776
-2.14707
-2.14575
-2.06357
-2.04822
-1.79209
-1.78514
-1.27382
-1.98735
-1.83723
-1.85624
-1.91287
-1.80103
-1.46587
-2.66335
-3.48672
-2.81535
-2.65229
-2.54812
-3.17011
-3.26236
-91.4087
-89.3891
-94.3378
-95.0913
-94.3414
-91.0322
-95.3481
1333.07
1184.64
1023.6
1609.95
1056.46
1004.48
1754.85
958.285
1811.48
1388.76
1411.12
1264.52
1277.04
1059.72
1148.5
820.129
125.024
130.454
216.277
207.26
261.247
146.676
129.338
176.929
162.416
1468.83
1419.14
1409.82
444.033
522.111
283.323
663.7
603.437
435.461
543.703
48.5525
51.5886
65.3034
59.8372
51.9385
61.0704
68.8438
-0.923353
-1.5746
-0.568277
1.08413
-0.761807
0.672187
1.50479
0.304619
1.29543
6.41302
2.20857
-2.25599
3.65135
-5.0104
-1.63783
-0.0757817
54.8416
56.1193
59.311
54.1996
55.0489
57.4342
57.672
64.2042
61.1884
52.9205
55.5614
47.6764
59.8061
59.0363
57.0283
58.347
163.452
168.875
182.546
159.046
185.387
144.178
220.396
230.784
150.463
475.102
888.267
422.583
508.23
557.608
402.657
574.9
1845.42
1502.02
1599.8
1578.38
1325.66
668.362
1199.43
1525.7
2142.9
109.563
69.9365
100.7
101.689
120.155
100.391
143.619
60.0477
56.0794
59.6761
59.6696
62.8311
57.6565
61.7899
42.6283
56.4896
43.8562
58.0144
59.3573
58.0137
59.2481
53.5677
54.7149
61.2097
56.7165
58.47
56.6175
59.5676
52.5865
54.0326
9.97517
30.9732
36.8128
57.672
32.866
30.9191
41.5549
38.6328
18.0346
11.7423
7.74806
10.4689
7.93225
10.2627
9.69205
8.91498
3.18666
-1.79826
-11.3922
15.8648
4.97278
14.9056
11.5215
-2.90462
-1.30723
-3.77644
-2.06315
-3.74348
-1.59093
-2.85551
-4.31094
6.47457
-4.954
-5.26131
-5.76899
3.60901
-3.04091
-3.10694
-3.50328
9.01329
-11.7629
-18.0047
-19.9921
-11.8247
2.26496
81.848
20.5188
-7.22519
62.9526
-42.6993
-20.425
4.33966
-19.6613
44.9092
123.433
64.3209
80.5802
97.0195
160.678
102.587
128.765
230.826
161.873
102.579
144.429
144.063
147.089
145.721
120.71
157.428
169.102
199.999
142.695
143.632
1.00786
-0.254468
61.4981
7.57049
33.7114
10.5049
45.649
150.735
76.1045
104.748
81.1701
67.4186
92.1922
71.3581
27.4174
44.0245
19.2062
85.3053
85.5688
208.763
-8.49856
-9.57861
-8.07
-9.90145
-9.19388
-8.2414
-8.16163
-9.62924
-11.3141
-10.4697
-10.0049
-9.45943
-13.2011
-9.97447
-11.4077
-9.24317
-11.7933
-5.14259
-7.23965
-5.57538
-5.38287
-4.68875
-5.7612
-5.39287
-6.5235
-6.45759
-5.32603
-6.31925
-6.24216
-4.53762
-5.04852
-7.10417
-6.54977
-5.70904
-7.52221
-3.64942
-3.80995
-3.48972
-3.74847
-3.80282
-3.67686
-3.68803
-2.97448
-3.21735
-3.71256
-2.81589
-3.56763
-3.10694
-3.48588
-3.31843
-3.3606
-2.55346
-3.06022
-2.5326
-2.48192
-2.86331
-2.54065
-2.66939
-2.66234
-2.72013
-2.54191
-2.59202
-2.60274
-2.64651
-2.58088
-2.31876
-1.98723
-2.32589
-2.06268
-2.29205
-2.47143
-2.15596
-1.76571
-2.1527
-1.98335
-1.83148
-1.27595
-2.34047
-2.62739
-2.12351
-2.02195
-2.03264
-2.27605
-2.1381
-3.91033
-4.0312
-3.63054
-2.89667
-4.1575
-3.42975
-2.94365
-6.84843
-7.35774
-6.62554
-5.01801
-6.0926
-6.68247
-5.57169
2.3448
2.63092
2.32908
2.77593
2.74362
2.51965
2.40899
3.50644
3.01491
3.06531
3.52043
3.67222
3.4689
3.52057
3.19955
3.16785
4.16372
3.78824
4.09853
3.7353
3.62137
3.96873
3.92313
59.6202
57.111
62.2293
61.4214
57.1958
56.8781
60.6691
52.3058
51.0926
53.8973
51.9367
51.7476
51.8869
54.086
52.9386
52.9899
52.8145
52.6568
52.5682
52.8289
52.8678
54.4003
54.7706
53.7497
52.8425
53.4957
54.517
53.9847
66.1829
66.5028
69.5944
54.3332
62.8875
56.0413
59.8782
58.3527
60.4787
81.2048
56.134
93.5383
45.0455
12.8301
22.0796
-20.1902
111.841
97.312
63.3406
146.465
73.2664
95.5626
83.0528
69.1981
125.403
42.7028
111.745
86.8887
149.057
199.633
137.309
128.682
81.4952
55.3207
75.9966
114.177
89.498
56.0316
96.312
64.4774
384.344
232.622
273.057
188.706
201.855
87.9316
55.7344
71.9865
124.354
84.7549
141.211
103.823
276.539
174.236
166.318
165.039
210.423
611.479
675.642
616.379
58.8474
132.368
95.8836
99.5761
148.819
139.54
95.8471
372.016
201.474
263.422
153.978
114.26
921.254
581.656
613.587
933.422
181.597
582.03
1073.95
744.686
728.443
1443.25
72.8023
116.237
89.0084
128.494
64.5575
125.396
62.7566
330.816
224.468
221.712
228.519
277.016
185.304
142.99
198.078
178.75
477.853
322.717
307.708
64.4098
36.5368
39.9134
79.5619
68.3049
82.247
130.264
66.5146
66.9027
67.678
179.722
148.583
142.323
134.219
137.751
66.5364
154.646
154.994
118.393
139.875
67.3279
93.6203
192.967
110.482
105.168
140.174
87.0472
73.9535
127.782
78.5032
79.7946
65.7084
109.02
60.7744
62.935
59.5751
63.3368
67.2109
64.4908
65.3354
59.8229
56.2815
57.232
57.2654
57.1818
58.7483
60.7509
57.9272
57.5178
57.7213
57.7381
57.3993
57.7511
57.4624
56.2404
56.1902
55.9696
56.0419
55.851
55.8437
56.1208
56.7245
56.7865
57.0927
56.9688
56.9485
57.2671
57.2601
56.718
57.126
56.7307
57.521
57.5721
57.2811
57.3051
56.9148
56.904
56.0043
56.0069
56.3692
56.45
56.4349
56.3461
56.2952
56.149
56.0571
72.2775
59.1787
64.4635
78.6868
67.988
72.0745
69.1701
-8.05808
-8.28179
-8.34026
-7.64742
-6.12267
-7.40205
-7.83879
-7.89272
-9.62942
-9.02579
-9.46935
-9.6861
-10.0322
-9.00489
-5.10086
-4.02093
-4.93527
-6.51405
-4.25712
-70.6264
-53.9567
-58.4525
-67.7383
-74.7537
-64.8992
-62.6623
-56.3381
-66.1839
-65.8217
-73.2146
-66.8821
-65.1574
-55.7358
-67.4908
-58.1911
-50.9246
-51.2285
-40.8605
-44.603
-53.919
129.389
211.923
49.6109
6.72398
125.154
-69.0372
-25.8939
33.8219
-2.81774
45.6645
49.8159
48.926
-9.62547
15.103
139.308
84.0446
124.855
33.6053
162.782
108.547
70.4321
141.981
193.084
42.4041
72.0771
-6.36507
66.7884
46.3501
179.973
189.592
78.1403
173.725
90.4695
191.33
118.945
145.758
102.239
220.082
54.364
33.6311
67.9928
52.0484
40.4661
68.9333
65.5671
-7.62704
-5.34418
-4.99512
-5.23156
-1.96958
-5.40113
-7.20685
-5.06268
-4.91074
-6.06112
-3.79541
-4.15938
-4.07907
-4.644
-3.79612
-4.20338
-4.06966
-2.82631
-3.35745
-3.77541
-3.78065
-3.32715
-3.45543
-3.48263
-3.39471
-3.645
-3.11101
-3.56912
-3.4176
-3.25253
-3.03428
-2.98655
-3.34233
-3.02556
-3.01969
-3.01468
-2.98894
-3.00371
-2.96365
-2.98186
-2.97813
-2.95696
-2.97229
-2.99616
-3.10337
-3.00846
-2.9642
-2.97435
-3.00543
-3.02122
-3.03746
-2.89741
-2.9794
-2.99372
-2.97472
-3.0244
-2.99433
-2.95083
-2.96342
-2.48069
-2.52088
-2.42309
-2.65107
-2.5872
-2.5326
-2.59953
-2.35309
-2.33968
-2.39036
-2.48743
-2.34263
-2.41117
-2.38523
-2.53478
-2.32323
-2.18826
-2.38547
-2.58531
-2.65548
-2.67216
-2.65959
-2.75009
-2.73768
-2.61068
-2.65618
-3.79148
-4.5426
-4.0017
-3.02997
-2.86135
-3.15165
-3.57115
-4.23347
-3.71321
2.28241
2.53054
2.26902
2.23392
2.51064
2.06194
2.24412
2.38401
2.16378
3.87161
3.86954
3.78226
3.88979
4.22352
3.98161
3.92402
4.36375
3.92934
4.13527
4.10579
4.18846
4.40344
4.18706
4.39762
4.8202
5.34973
4.61467
4.9711
4.49338
5.62942
5.22035
4.3694
24.3101
26.1273
15.0888
-1.50243
13.6483
23.3546
25.1588
41.8741
34.0143
88.5231
28.5367
22.6724
158.436
88.8308
84.5147
75.9557
105.487
53.887
97.1076
52.6593
78.9072
54.5464
96.6155
98.6241
46.9844
80.4267
93.6099
81.05
116.044
66.3067
7.34618
72.0217
36.6265
62.5186
169.003
45.2385
104.133
-7.65705
128.719
60.6315
-45.5004
95.8702
-4.61423
127.013
144.146
136.174
54.9638
54.4343
56.7553
57.0411
56.3175
54.9988
55.0439
158.399
92.3699
102.509
108.927
90.8834
88.7787
88.1418
65.5373
60.2493
93.5088
160.123
65.5382
113.08
82.2402
111.877
107.235
82.8352
42.3847
86.3863
117.576
153.918
62.9229
106.842
130.685
69.9
82.9281
129.664
106.981
139.259
195.902
135.086
67.5508
138.652
43.9352
76.0346
81.0989
59.109
59.121
61.4238
57.967
61.8682
57.8481
56.7834
58.9154
58.421
56.1117
57.4655
53.4454
58.9473
57.4623
59.0347
58.9432
59.5201
59.9552
61.4301
59.3174
59.1911
59.4541
59.8054
60.1925
60.3526
60.3568
59.8487
59.4729
99.6014
91.055
90.755
83.6298
128.153
64.5927
106.236
35.2183
36.6607
23.1417
72.3188
34.5131
62.9182
74.5194
30.9858
50.5619
26.337
21.9481
16.3016
19.5886
32.6741
11.3571
11.2528
12.3261
11.1874
10.3671
9.2734
7.21486
3.16363
3.3078
2.70813
1.94439
2.68826
1.71766
2.04164
-20.094
-9.55263
-7.31194
-37.7753
-49.0151
-35.8949
-17.7951
-91.4162
-91.04
-88.5422
-94.3572
-103.548
-96.5279
-92.9322
-90.3654
-84.5176
-88.7419
-91.4895
-89.3583
-86.5813
-88.3856
-82.5837
-86.7953
-91.4089
-90.922
-85.6798
-83.002
-82.9503
-78.4668
-96.8231
-93.7728
-74.623
-81.2732
-75.7386
-85.9422
-60.4897
-61.7994
-67.4517
-63.7171
-65.3627
-83.1091
-72.2474
-71.6549
-75.2238
-181.515
45.3135
-139.439
-183.623
-139.458
-132.664
-154.356
-76.5085
-76.524
-70.562
-115.416
-74.5522
-105.069
-90.3219
-43.0309
105.075
83.3037
-34.5427
-44.1718
38.8451
2.18943
-97.4102
-86.1645
-177.653
104.363
-79.2133
99.8706
-59.1331
-91.7889
41.4872
-62.9869
171.631
80.4055
30.0821
216.033
26.3124
-95.2519
75.7409
32.7342
41.5865
-19.3614
33.2593
41.5169
33.4399
-2.91688
29.3622
86.5039
-32.6391
-14.2461
84.0463
74.8011
93.0487
51.3279
87.5137
89.2973
69.9968
-44.3871
-40.3883
-44.1315
-28.4331
-46.8053
-43.7754
-51.5267
17.6414
29.271
2.60018
0.587829
10.5504
14.9086
18.1758
-3.33497
-2.85695
-3.71665
-2.90534
-3.8927
-3.13218
-3.33744
-3.2639
-3.13984
-3.3274
-3.17886
-3.40274
-3.53613
-2.98995
-2.57595
-2.86379
-2.83344
-3.05717
-2.99779
-3.29313
-3.03422
-3.15867
-2.99789
-2.94151
-3.0526
-3.08436
-2.97414
-2.9371
-2.98876
-2.98254
-2.94164
-2.98297
-3.02697
-3.01296
-3.00081
-2.95795
-2.97491
-2.97464
-3.06205
-2.97139
-2.96744
-2.97982
-2.963
-2.9503
-2.9318
-2.97779
-2.98175
-2.97256
-2.96066
-2.96165
-2.96254
-2.96869
-2.95366
-2.97469
-2.96231
-2.94703
-2.94841
-2.9576
-2.95807
-2.91604
-2.92823
-2.91429
-2.93486
-2.92876
-2.90781
-2.9232
-2.91308
-2.92499
-2.93206
-2.90684
-2.94741
-2.9435
-2.92717
-2.95261
-2.92045
-2.92202
-2.94459
-2.82801
-2.87191
-2.84096
-2.86125
-2.83448
-2.89509
-2.85109
1.32317
1.41209
1.48515
1.22703
1.08793
1.31126
1.38743
1.53017
1.59693
1.61947
1.5305
1.62419
1.4732
1.5809
1.10122
1.10479
0.885843
1.13746
0.982824
1.00938
0.827742
1.97768
1.87468
1.8207
1.81427
1.84233
1.92463
1.85733
1.90116
1.99997
2.10954
2.06671
2.10695
1.98582
2.01743
2.09207
2.00639
2.25289
2.25972
2.1622
2.34093
2.22521
2.32269
2.21445
3.40312
3.74196
3.51755
3.58682
3.15382
3.43364
3.15028
3.59313
3.27678
3.89499
3.48204
3.62751
4.11333
4.25831
4.00484
3.99618
3.71923
3.73659
4.59881
4.50845
4.50964
4.59985
4.41833
4.65351
4.5337
59.7944
53.0774
66.72
72.6992
68.4959
72.3078
75.4746
73.6023
78.2093
81.1449
66.4043
77.9391
79.9421
73.7968
57.524
56.9584
59.7206
57.4759
63.1627
56.3516
54.4853
66.3856
55.2124
64.2241
58.447
67.3954
82.6552
82.6668
58.3275
67.7838
60.3737
59.8086
63.602
62.7944
63.8842
-5.37046
52.1731
-22.8394
53.0437
45.0677
53.3749
52.849
59.72
13.0459
41.1869
69.0674
69.9527
59.1198
42.9655
126.023
96.9588
130.289
21.0738
55.8196
92.2853
97.4597
5.30058
-2.99419
16.3389
36.6039
-14.3853
42.6467
54.6048
44.8251
60.3629
48.1237
108.341
154.982
55.4498
55.5427
55.2773
55.2535
54.8995
55.1684
55.3785
143.5
181.385
92.4656
129.904
74.0521
55.5435
113.624
175.009
140.419
75.0889
155.001
178.423
197.101
118.826
116.071
139.618
157.861
145.467
130.316
121.364
71.6821
71.9224
66.3047
70.802
75.0233
71.9625
68.2639
65.8109
63.8326
64.2668
65.4621
65.0703
64.2877
64.8511
-50.3211
-62.152
-98.2402
-1.25063
-18.1477
-29.3196
-23.8673
-57.149
-18.7459
51.4041
-67.9356
-24.2476
-71.9912
-174.702
-92.6966
-138.199
22.1931
-103.032
-60.1815
22.0418
-56.8611
-57.83
-66.581
-54.3606
3.16967
-0.0742887
14.7847
-1.7911
-1.47444
-1.53512
0.84049
9.59291
-0.635077
-1.10684
-1.41836
-0.896496
-1.28091
-1.43304
-1.50885
-1.40897
-1.42367
-0.36531
-0.502542
-0.323837
-0.511896
-0.412201
-0.637113
-1.16747
-114.675
-110.173
-114.246
-112.149
-114.561
-115.768
-116.091
-117.613
-105.852
-112.902
-99.2767
-106.828
-107.931
-109.357
-61.8537
-90.8199
-133.337
-130.949
-43.5084
-77.4571
-169.04
-77.3479
-97.0688
-121.285
13.5044
-47.408
-78.0711
-11.3254
-135.898
-3.65859
-138.717
-75.8911
-32.2934
-104.071
-36.6503
-33.179
-8.08411
-49.7844
-20.5173
-131.773
-63.2448
-109.086
-112.091
58.0182
35.7897
3.20691
-99.4158
-49.4581
-147.685
51.5851
-68.0199
-69.6798
-65.9046
-73.4722
-72.9616
-73.9248
-83.3325
-90.0052
-85.7131
-84.2202
-92.7051
-85.5505
-88.087
-63.6016
-74.2432
-80.5404
-61.0135
-73.78
-71.1682
-69.675
-75.9728
-84.5981
-80.8551
-83.3929
-78.0078
-83.242
-80.7058
-41.5136
-48.4024
-45.403
-46.4297
-48.6733
-47.7143
-44.4725
-1.4232
-3.74995
-0.801436
1.55829
-1.73443
-2.75355
-1.83281
-2.70327
-2.74034
-2.65975
-2.70015
-2.73986
-2.73555
-2.70856
-2.95198
-2.91825
-2.92191
-2.89762
-2.92291
-2.90232
-2.8947
-2.92689
-2.9117
-2.8985
-2.90751
-2.94882
-2.90976
-2.94393
-2.92388
-2.93784
-2.89776
-2.9017
-2.89994
-2.90396
-2.9325
-2.89693
-2.88074
-2.86695
-3.07043
-2.8094
-2.88482
-2.81948
-2.79357
-3.07027
-2.84051
-2.84147
-3.35809
-3.67574
-3.95971
-3.75177
-3.71607
-4.38857
-3.84899
-6.67798
-14.9441
-12.9499
-27.929
-19.8878
-19.7259
-28.2672
-1.08317
-4.04455
-4.45597
-4.22928
-4.6723
-5.8685
0.715467
-2.40358
-1.49359
-2.74807
-3.90555
-4.58332
-2.42482
-4.47297
-2.06994
-1.71749
-2.35127
-2.36289
-2.31293
-1.76343
-1.93089
-0.915923
-0.930989
-0.809376
-1.44562
-0.407452
-1.28566
-1.29147
1.43493
1.24006
1.16266
1.23284
1.01904
1.13554
1.14874
-0.437897
-0.223529
-0.2233
0.46122
-0.197223
-0.647436
-0.0880803
0.00138139
-0.449824
1.85939
1.70884
1.66975
1.60805
1.48135
1.46955
1.63743
1.69033
1.87048
1.60287
1.6822
1.82763
1.47621
1.495
1.67148
1.67594
2.06993
1.72902
1.82753
2.04548
2.2066
3.39445
3.4601
3.90624
3.69124
3.30059
3.57336
3.69587
183.447
189.281
171.221
148.265
178.578
163.001
164.614
236.359
153.159
231.55
190.035
200.719
309.954
226.173
173.308
220.949
192.389
136.127
220.541
174.748
183.547
226.376
227.348
264.919
179.84
195.664
180.863
213.003
234.28
246.619
129.806
98.4954
102.825
107.254
130.503
127.228
117.02
117.78
158.173
113.049
116.426
110.251
92.6635
127.658
81.7333
92.2043
77.8915
64.1623
73.7179
64.2788
59.6938
56.2743
72.2246
53.0706
142.891
96.7345
98.7364
10.5595
14.6553
31.7572
55.9328
57.9813
56.3639
54.2406
55.5341
58.9998
55.5893
57.4791
57.4816
57.1369
57.0007
56.9737
57.3394
57.3596
58.6151
58.5105
58.8464
59.3009
59.2377
58.8157
58.9522
56.5601
66.8313
56.7677
60.9816
60.6814
57.7522
53.5302
66.1112
64.206
62.6452
67.4784
63.0774
64.7237
66.886
361.645
116.968
196.538
289.519
221.926
196.209
262.007
105.995
145.782
-1.76884
178.107
-4.3314
95.9947
-139.954
-135.761
-136.142
-139.657
-136.204
-135.554
-133.474
-131.619
-126.721
-129.692
-127.244
-122.678
-127.355
-131.05
-114.023
-133.767
-134.791
-148.125
-127.098
-125.704
-111.776
-209.404
-173.972
-115.387
-361.419
-244.059
-236.38
-281.732
-46.6026
56.7258
30.6132
17.8722
-14.0294
5.65083
-42.7728
-17.4582
19.0768
-39.4697
-102.938
-103.324
-117.131
-93.7163
-100.468
-108.285
-115.132
-123.113
-120.362
-127.262
-121.393
-118.889
-113.152
-119.53
-121.788
-125.298
-124.805
-126.471
-126.322
-126.044
-124.146
-123.433
-122.721
-127.255
-120.265
-123.284
-121.564
-125.181
-8.96603
-11.7122
-8.67593
-13.0346
-10.8648
-8.04658
-10.4253
-4.77742
-4.7407
-4.22921
-6.39453
-4.74688
-5.1434
-8.05621
-3.41878
-3.71821
-3.10343
-4.58035
-4.1932
-2.98981
-3.26557
-3.51215
-3.68873
-4.2862
-3.59942
-4.28082
62.7387
-7.03813
28.1874
18.7827
6.63689
-0.731564
10.0672
-2.57747
-3.9824
-5.87113
-1.24292
0.0282534
-1.57582
-2.66399
-0.187306
-0.1676
0.410196
-0.522471
-0.658289
-0.234466
-0.608297
-2.10453
-3.15282
-2.59597
-3.37527
-3.01766
-2.68864
-3.98087
-3.0024
-2.93434
-2.35545
-3.23608
-3.71018
-3.31097
-2.1556
-2.75223
-3.26182
-2.65966
-3.02041
-2.99259
-3.98955
-3.75503
-3.77716
-2.16857
-4.12794
-2.96277
-4.58421
-4.45689
-3.13465
-4.14761
-4.3637
-3.61194
-3.73788
-3.82141
0.617653
0.441669
0.466515
0.426111
0.345798
0.479396
0.632057
0.96666
0.980789
1.22006
0.896704
0.844916
1.08819
1.28316
1.25329
1.59108
1.70196
1.17968
1.19858
1.46376
1.48101
1.21449
0.638159
1.28964
1.65231
1.02091
1.42099
1.12362
0.741956
1.13729
2.10211
3.42325
4.09851
2.36238
3.15891
4.05675
4.15451
216.231
209.583
275.776
152.55
182.971
174.943
216.523
272.113
193.692
201.519
202.412
192.348
155.636
209.445
202.174
166.23
173.596
281.314
216.954
202.046
286.409
325.368
226.747
168.792
146.799
270.846
204.885
291.947
239.507
184
211.97
149.316
213.611
178.177
213.021
195.28
77.2499
137.127
141.143
149.258
159.117
126.367
163.019
53.4553
53.9033
53.5993
54.3347
55.2314
55.2211
55.4672
56.4491
56.2882
56.1502
56.1072
56.3828
56.8762
56.8142
56.655
56.5613
56.6399
56.7175
56.7377
57.1994
57.7376
58.0696
58.6534
58.439
58.2429
57.9929
57.0875
56.9054
57.2107
57.1374
56.583
60.5865
59.9631
61.0201
61.9879
62.0153
61.3456
61.6908
60.9324
61.1614
60.4765
60.1267
59.9992
60.5931
60.462
64.8391
65.1088
64.1609
63.9237
63.7905
63.1437
63.1772
340.821
174.711
201.161
3090.16
1551.7
2351.7
2067.27
1327.14
2928.94
2406.21
1053.83
229.322
1614.03
777.289
1484.23
1534.42
1426.62
882.544
859.64
753.09
881.589
76.9739
640.231
1003.31
3968.34
2740.75
-130.804
-18.1474
35.4955
16.5671
14.4798
-257.748
-118.115
-283.414
-182.834
4.69441
-111.99
-106.296
-104.702
-115.177
-109.597
-116.602
-109.807
-5.66898
-2.6717
-7.00765
1.54784
-3.74084
-6.00243
-2.20993
-14.6275
-16.4477
-14.5112
-30.1266
-32.6059
-22.403
-15.9443
-3.45155
-2.3682
-4.43597
-1.31037
0.770335
0.143818
-0.756082
-7.17623
-10.4857
-7.24389
-5.60652
-9.13011
-3.78945
-6.95258
-2.60844
-2.67429
-2.98194
-1.88806
-0.895801
-1.52255
-1.94632
-3.65375
-4.17404
-3.13571
-3.51426
-3.57207
-3.51787
-4.01408
0.829168
0.894082
0.706532
1.10166
0.952184
0.884384
0.962257
0.810659
0.331207
0.598416
0.56526
0.0662082
0.733497
0.894435
0.889604
0.632673
-1.00161
-1.67396
-1.55273
-0.724934
-0.555445
-1.19221
-1.20046
-4.27831
-4.93582
-4.27159
-4.8978
-4.94597
-5.12734
-5.1767
-3.08809
-3.1402
-2.48117
-2.38456
-2.72793
-2.55025
-2.83087
-2.71671
-2.61033
-2.58505
-2.07261
-2.72071
-2.70425
-2.65162
-2.50826
-2.92442
-2.48336
-2.64776
-2.59109
-2.79729
-2.89432
-2.7935
-2.7036
-2.65971
-2.64607
-2.63079
-2.25844
-1.66936
-1.99627
-2.18353
-1.64368
-1.67335
-1.95697
-1.67861
-2.05566
0.222066
0.136345
0.876733
0.166358
-0.0489823
-0.0294205
-0.769555
2.23039
3.19995
1.40091
6.94876
1.89483
8.8747
1.7039
69.2496
58.3771
64.5483
61.0967
57.477
64.4738
67.2751
82.808
78.9968
85.3574
79.9992
72.1434
76.7833
85.9529
83.5064
76.8074
68.8973
144.537
152.888
99.4737
132.489
109.851
93.413
225.931
244.587
243.882
92.8428
116.834
86.5518
77.356
91.7791
83.9382
70.3159
12.1283
8.04429
12.6131
13.6565
3.81392
10.6928
21.903
51.9317
54.8608
58.613
53.2108
52.865
40.2339
56.1942
3.70285
13.8458
34.9736
-3.89716
-0.935275
-1.06138
9.92321
27.1894
16.6233
24.2966
7.69613
4.61727
-13.0987
-7.22631
65.8033
60.5231
53.1813
49.5193
43.1372
37.0193
49.1436
56.2351
56.0438
58.2568
56.9682
59.0375
60.0328
58.3567
53.9656
57.4631
56.4983
56.6908
56.2055
57.429
57.6574
57.0211
57.0179
58.8983
57.7324
56.419
56.2488
56.007
56.4361
55.9509
55.9069
56.0509
56.0634
56.9705
56.3843
57.1877
58.0368
57.0168
56.6058
57.6144
1730.19
1169.25
791.925
354.121
265.982
689.735
23.4541
138.794
21.5929
65.982
-488.305
155.446
578.063
171.19
251.956
-131.611
-23.4422
189.691
110.697
-185.983
81.5456
-76.6256
90.4936
-99.7724
17.8137
15.1597
6.17894
19.0109
18.4732
37.7825
12.0436
40.0601
32.7057
-51.1277
-6.77584
-6.02917
-55.6681
-75.1711
73.5895
-11.1596
20.2488
-37.5879
-23.4291
50.0471
-13.0918
120.316
12.6005
-78.4029
-85.1765
67.4308
-5.80298
31.2767
115.508
-37.3129
-33.844
-35.2568
-19.7858
-13.8523
-35.628
-45.0864
-92.9896
-64.1538
-76.3114
-47.9961
-90.8087
-37.8401
-59.0541
-45.0895
-75.8164
1.77684
1.89276
1.91071
1.92334
1.94588
1.91377
1.88406
1.88735
1.75528
1.79959
1.80054
1.71838
1.80589
1.79484
-0.77
-0.582905
-0.372307
-0.321757
-0.52684
-0.696871
-0.573598
-2.62099
-2.55085
-2.66203
-1.38195
-0.847056
-1.53292
-1.48792
-1.82213
-0.878147
-1.2535
-2.84839
-2.97414
-3.04298
-3.89366
-2.68385
-2.989
-3.24603
-3.34449
-3.01488
-2.72002
-2.90804
-2.76682
-3.14307
-3.39813
-3.69764
-4.68866
-4.06029
-4.39998
-4.45197
-3.67689
-4.31823
-4.70228
-4.0332
-4.78679
-4.4307
-4.471
-4.78942
-4.28534
-3.53215
-3.91028
-3.73463
-3.48896
-3.79373
-3.70746
-3.62441
-1.09317
-1.99788
-1.43339
-1.48251
-1.37476
-1.49923
-1.87672
4.04076
9.52287
5.32996
5.88413
2.41146
3.79695
28.184
51.1137
25.7759
5.77017
11.828
33.2857
15.3152
15.5143
54.0337
58.7936
76.8092
2.44044
1.69635
3.39006
1.91989
1.22172
0.217471
1.01321
5.56356
5.40515
13.591
14.3068
17.6379
4.18198
6.86126
71.4961
23.3282
86.5525
55.4384
34.2878
34.592
57.1012
32.886
27.3368
43.7435
13.7107
12.1679
16.1978
23.0179
113.604
104.642
99.5684
92.1751
85.9138
89.7325
92.7258
5.79274
3.91573
11.0033
3.43386
1.40785
6.3184
6.67605
26.7974
-5.30619
15.9172
12.1943
22.4458
12.9849
24.2355
4.53372
4.62886
5.0267
4.99279
5.2883
4.63674
4.58414
3.68738
7.0677
6.38161
6.57236
7.00977
9.75283
7.16095
5.98928
5.15544
4.79065
4.69526
4.39598
4.31164
4.91933
6.24222
4.45769
6.18823
4.44042
4.64372
5.52893
5.44803
4.9954
5.07944
5.53137
5.16485
4.54793
4.68682
4.89137
4.70485
4.38243
4.44778
13.2802
-0.29121
-1.17596
0.808119
0.501783
1.49144
17.1014
21.5932
16.1011
20.8476
26.4708
23.7263
23.5354
7.95745
19.514
12.2283
11.2905
4.15074
16.2348
11.9341
57.7368
109.572
57.2585
69.2529
69.5542
58.2237
56.795
56.2784
61.0652
53.1038
65.8068
56.8956
63.0052
58.9382
94.1889
88.1992
126.09
82.8083
95.7231
80.9828
110.058
-207.6
6.16056
-45.309
160.168
19.1971
98.6118
94.1408
30.0633
194.809
113.048
200.51
95.8017
72.3862
90.9232
-101.122
50.6383
-60.9344
153.36
87.9264
31.6223
32.215
57.7993
29.4039
2.00733
-1.93036
-97.0973
55.9797
16.484
58.2594
31.6008
52.892
-51.5181
20.1226
72.5414
32.2142
13.9256
-11.7014
18.1388
104.827
24.5757
6.52948
-179.84
-217.932
-170.622
-143.034
-269.377
-212.697
-124.798
-3.838
-0.956043
0.704304
-14.6145
-2.89763
-67.6905
-22.3463
-15.9035
-53.6476
6.701
8.54079
2.70777
5.37163
6.19009
-1.44315
-3.6256
-0.819361
-0.571286
17.1997
17.0485
16.5876
19.219
16.9862
17.1804
16.6529
18.728
15.791
16.3868
16.4271
17.2178
15.9899
16.566
39.2832
39.7511
69.6542
34.3039
31.2325
35.2209
50.2331
63.8823
62.9999
75.3782
77.9421
72.2512
68.3801
65.2724
52.6668
42.7972
45.7769
64.7413
57.3952
57.8314
58.076
47.6287
125.945
58.2781
18.0235
119.407
-66.3574
44.4114
123.224
114.977
-65.5615
166.81
6.70629
-35.9386
44.3097
62.4895
-28.7499
-24.9175
-16.0952
138.988
14.3772
32.8487
8.38869
75.2367
84.3868
56.7292
57.6107
45.9847
53.3733
56.1602
58.8361
55.3502
48.0628
47.2543
26.0647
39.801
51.7403
59.0649
35.2425
31.1114
21.6127
28.2908
29.2923
30.0958
38.1774
35.0073
173.27
-117.8
169.521
153.166
155.858
21.653
-244.528
990.803
1114.03
1082.63
454.964
934.657
1334.75
397.224
505.116
662.807
588.883
509.581
170.91
401.524
251.346
255.316
324.72
600.793
452.875
520.218
591.332
15.5275
15.1195
17.6386
15.931
16.6564
19.7723
20.1572
16.5387
15.9736
15.8596
18.5517
16.8918
16.4393
16.4389
15.6477
15.6668
15.8743
16.2565
15.3684
15.8592
16.5929
4.3144
3.83265
4.19642
4.14231
4.71832
3.71925
3.91227
-0.246431
-1.16473
1.69676
0.261491
2.52308
4.93583
3.03937
6.80074
5.784
4.92252
4.12231
4.3304
5.64801
4.37266
4.71367
4.0058
5.26268
6.08103
9.25967
5.02793
2.96675
4.58573
7.47356
19.8002
25.7117
1.12575
11.5594
-0.41203
4.25237
5.51042
3.29192
-5.95989
3.89026
3.98428
-11.9764
5.26177
0.0303157
8.71548
3.91445
-8.98661
10.9298
-9.40461
4.83621
-0.968733
2.29884
7.577
2.26318
-0.359775
-2.18828
1.56639
1.58328
0.874115
1.60037
1.01523
1.29986
1.5086
2.2493
2.197
2.15997
2.38216
2.24523
2.18526
2.25159
2.41074
2.10779
2.13748
2.41852
2.60558
2.07158
2.01862
2.34328
1.88034
1.95735
1.91909
2.02951
1.02521
1.11303
1.22472
0.8742
0.724119
0.832952
0.99471
0.229537
0.0265383
0.2903
0.180668
-0.0109121
0.175151
0.362258
-0.693154
-0.869618
-0.442086
-0.394821
-0.440313
-0.538101
-0.616917
-1.89586
-1.49544
-1.358
-2.27407
-2.44575
-3.05571
-2.78077
-3.02909
-3.17385
-3.01798
-2.6885
-2.98351
-3.84291
-3.80285
-3.66087
-3.38561
-3.55734
-3.70477
-3.5989
-3.47913
-4.01402
-3.79805
-3.59749
-3.40226
-3.5898
-3.69419
-3.56392
-3.6149
-3.53711
-3.44325
-3.5231
-3.78767
-3.62501
-3.75138
-3.55746
-3.5091
-3.30876
-3.47987
-3.50904
-3.58432
-3.63051
-3.44165
-3.55224
-3.44488
-3.14239
-3.28262
-3.61348
-3.76703
-3.6537
-4.08411
-3.82533
-7.70586
0.368458
-6.12345
-7.27042
-5.25964
-6.92806
-2.47173
-10.8221
-5.54688
2.4728
-6.87545
1.52867
-0.107365
-0.680209
-1.10444
-2.75577
-3.23914
-2.17739
-1.73901
-1.38143
-2.54137
-3.26405
-1.04171
-0.998063
-6.92799
-5.69881
-5.94533
-3.52039
-3.66081
-5.80674
-1.90422
0.770117
1.10246
0.909228
0.76998
0.853415
1.02373
1.11466
0.970305
0.894011
1.1298
0.676737
1.04608
0.739462
0.906525
1.59535
1.5894
1.6631
1.82241
1.94361
1.617
1.754
0.633383
1.03865
1.6897
0.907648
1.47616
1.35913
1.60061
1.78251
0.409111
1.17174
0.106252
0.487293
3.08284
1.43862
2.24939
3.33665
2.29993
1.59568
2.70616
2.34003
5.35656
6.26641
5.65464
5.92378
6.84277
4.48334
3.94247
3.75059
4.02239
3.83199
4.09189
3.72705
4.48748
4.17409
4.21116
3.78364
4.57892
4.67607
4.39515
4.58765
4.54029
4.10706
5.30554
4.6349
4.5515
4.0296
3.85672
4.21608
3.93799
3.81892
3.81707
3.97343
3.6077
3.7081
3.63085
3.58198
3.51973
3.55138
3.40443
3.63692
3.50528
4.35306
4.02121
3.99046
3.79234
3.77282
3.86236
4.04193
3.45827
3.23317
3.6094
3.47946
3.55089
3.8025
3.75441
3.85706
3.65393
3.6264
3.7164
3.70363
3.50215
4.21113
3.89196
4.00933
4.42738
3.93764
3.94647
14.5866
11.6367
6.52343
9.84345
5.50488
12.3952
15.2445
13.2483
11.2667
13.4621
7.51575
3.01925
5.50836
1.44975
47.4342
39.1656
33.7298
32.2798
29.3471
38.3546
49.8873
33.9144
37.3394
56.6789
56.141
43.9477
67.7826
56.1922
32.1949
39.9793
43.4562
33.9374
11.005
51.4901
57.0466
58.2419
61.0176
59.0032
54.4282
57.4633
86.0341
57.1708
49.5045
67.2598
64.2725
41.1766
36.5757
93.989
-48.5235
-12.3628
93.6368
-82.7344
139.644
-154.458
-132.092
-35.5659
-42.5813
-218.877
-67.7557
-211.164
299.506
205.58
214.161
514.708
315.574
286.579
385.978
264.622
0.602733
275.308
123.516
115.308
155.588
150.53
104.292
145.979
-34.1516
33.484
19.1042
96.7752
73.6165
-20.9586
38.0055
40.1396
43.4602
193.668
86.8439
68.2089
238.94
103.124
42.4226
-8.79546
103.775
103.53
172.796
41.8365
53.2528
120.737
154.89
37.5717
58.6604
94.5334
78.2545
239.283
78.1559
104.914
164.115
175.517
98.2392
1.59271
73.5035
36.2493
53.4092
165.427
99.4705
272.861
310.209
195.619
-304.962
93.7335
-7.877
122.153
101.974
113.908
135.59
113.296
140.149
127.384
370.531
336.147
384.23
212.734
344.73
294.464
362.158
446.591
404.228
386.5
229.342
282.522
284.725
478.24
209.587
255.383
286.616
354.703
314.681
313.958
290.362
312.484
327.056
350.345
296.921
385.296
359.178
264.246
322.076
310.863
313.107
237.714
290.9
35.7791
116.24
-13.1579
11.7393
34.1843
51.1924
-73.8192
-7.15232
10.6577
-29.3755
-34.7837
-88.1698
2.55126
-1.23985
-1.8955
8.71752
2.42046
-1.01079
-1.60738
0.724942
0.682906
4.69974
0.577992
0.809146
-1.18976
-1.71173
-1.79776
-2.3487
-1.83899
-1.69422
-1.50365
-3.56221
-5.20592
-3.39904
-1.9557
-5.10308
-3.20032
-3.48458
0.761885
-1.56831
-1.85942
0.888183
-1.38897
-1.15313
0.036368
0.0064214
-0.0601553
-0.0754634
1.03774
0.759585
-0.20038
0.600871
14.9151
-4.1264
7.73809
39.8994
25.3698
7.33984
11.5765
14.4214
7.89358
6.38057
16.3181
16.8852
37.3708
33.1671
41.8716
49.4761
82.2346
25.9556
42.295