/*--------------------------------*- C++ -*----------------------------------*\
| =========                 |                                                 |
| \\      /  F ield         | OpenFOAM: The Open Source CFD Toolbox           |
|  \\    /   O peration     | Version:  v2012                                 |
|   \\  /    A nd           | Website:  www.openfoam.com                      |
|    \\/     M anipulation  |                                                 |
\*---------------------------------------------------------------------------*/
FoamFile
{
    version     2.0;
    format      ascii;
    class       volScalarField;
    location    "0.5";
    object      p_rgh;
}
// * * * * * * * * * * * * * * * * * * * * * * * * * * * * * * * * * * * * * //

dimensions      [1 -1 -2 0 0 0 0];


internalField   nonuniform List<scalar> 
6576
(
2808.17
2784.54
2791.75
2797.85
2813.17
2820.7
2796.15
2798.23
2815.48
2805.74
2845.13
2829.81
2817.8
2827.33
2792.03
2799.26
2765.58
2793.19
2794.8
2840.65
2776.15
2834.1
2837.53
2791.5
2821.59
2850.63
2899.58
2817.1
2780.8
2783.34
2803.81
2763.96
2802.24
2824.86
2818.2
2839.58
2814.96
2841.31
2800.58
2821.66
2787.75
2778.54
2805.66
739.927
462.361
1227.69
634.584
728.69
1170.76
1120.49
772.19
973.584
-0.145855
0.509576
-0.000203912
-0.213581
-1.32836
-1.69909
-0.267933
0.463216
0.508694
0.512644
-0.0755482
0.527643
0.361267
-0.260895
0.671109
0.310398
0.285849
0.0989781
0.445349
0.0632763
0.390375
57.4506
23.2632
49.7804
26.6934
32.9486
29.8095
43.7215
15.4381
14.9863
15.1455
17.9594
23.8223
25.8223
15.9057
33.3722
30.0924
46.1601
33.6248
39.1959
31.0505
44.4973
274.942
234.491
346.863
208.715
234.564
320.932
302.336
387.417
376.683
344.017
384.528
467.113
371.664
383.952
1141.94
1193.38
1204.61
1078.81
1253.98
1596.27
-0.172799
-0.0250043
0.460166
0.35696
-0.216834
0.569655
0.0436375
633.049
2164.1
2517.62
2546.66
2418.3
2675.54
2445
0.407654
-0.134628
-0.0227
-0.425843
-0.236132
-0.562535
-0.483372
1481.19
1465.95
1383.78
1207.12
1119.61
854.161
614.895
58.5097
80.9311
75.4726
34.3415
23.6276
20.5903
8.67272
2.76073
5.92109
6.80201
19.9455
67.8189
50.9681
17.2672
-0.36755
-0.238789
-1.0936
-0.9748
0.0886103
4.02595
-0.711542
2.78489
0.0806412
1.43416
1.84609
1.02267
-0.138584
1.67488
4.18467
1.01126
0.971982
0.230221
-0.529576
0.622171
-0.0684157
0.452785
1.0059
-0.407639
-0.0559461
0.0816641
0.20727
-0.00453338
0.0599252
0.0597022
-0.219752
0.183081
0.046376
-0.104227
0.107764
0.12114
0.261413
-0.0531066
0.238894
-0.0684014
0.014587
-0.193779
-0.0728531
0.0897921
-0.268248
-0.200843
-0.121404
-0.0728819
0.213621
0.396543
0.244824
0.120338
-0.0387326
0.186745
0.325393
-0.257145
-0.399985
-0.463712
-0.214602
-0.129832
-0.392814
-0.55299
-0.0179221
0.0385168
0.110813
0.0521974
-0.00971147
0.0076577
0.0474202
0.0346571
0.05724
0.116979
0.0233726
0.0391065
0.122252
0.0960735
0.0914726
0.106242
0.13728
0.0658866
-0.0271204
0.125601
0.119075
0.439786
0.308756
0.399963
0.241426
0.282255
0.326993
0.368118
0.845856
1.06721
1.97558
0.608241
0.840364
0.728636
0.783423
0.847475
1.38358
7.36131
13.7405
53.1892
2.29025
7.3548
4.12748
23.289
-30.1448
-68.9427
-74.451
-75.4007
-34.5744
-69.8751
-71.9021
1347.53
1217.41
1056.7
1633.58
1098.71
1069.81
1797.98
1014.4
1842.35
1460.37
1462.15
1337.37
1338.25
1132.83
1217.68
899.224
336.947
248.08
331.712
364.541
376.646
350.847
345.264
373.445
328.647
1513.7
1479.31
1465.07
557.832
657.016
407.691
768.365
736.992
553.105
650.797
1062.29
759.709
982.731
570.634
655.937
948.816
971.158
248.864
93.5618
30.5699
63.9976
52.9899
34.0777
40.0536
37.5764
32.9056
721.309
709.334
962.371
742.245
948.257
979.86
1121.29
56.7199
58.0662
61.0494
56.3532
57.48
59.3094
59.6881
67.7624
65.1427
59.1508
75.6777
57.9301
67.8666
62.332
62.4398
67.6617
170.044
181.202
189.695
166.084
195.363
172.674
296.228
326.555
171.063
486.8
899.965
426.893
534.574
587.776
422.277
597.649
1856.75
1515.13
1603.58
1601.47
1358.01
733.058
1245.64
1562.67
2165.56
129.006
75.6377
134.126
105.092
157.885
103.715
160.119
63.7731
58.4766
65.2726
62.0885
67.6575
59.3684
64.6857
647.516
222.273
750.692
141.943
106.908
191.227
160.881
469.349
247.909
965.806
250.618
359.472
177.401
252.784
204.08
724.956
113.963
208.443
577.628
437.633
401.447
220.931
564.731
573.284
277.816
38.844
58.454
135.994
77.7184
35.0224
24.6993
118.427
1438.3
1437.72
1461.09
1159.75
1349.22
1435.64
1458.64
81.5802
55.2853
70.2438
196.069
357.111
119.995
135.012
709.539
280.116
249.552
413.18
1692.96
508.564
253.598
1749.11
2021.23
2123.02
1825.87
2044.23
2081.54
2117.87
1743.25
1631.94
1835.86
307.405
572.552
1762.55
849.752
1293.5
995.125
2126.27
2386.56
1835.41
1556.13
1902.12
1914.23
1100.24
1799.04
1719.45
2264.05
1781.08
1848.25
1895.43
2440.72
1906.59
2396.19
2482.98
2146.41
1700
1849.59
2453.03
734.591
1441.8
2064.2
471.284
1044.81
1216.39
929.106
2243.5
1616.69
1646.85
2504.86
1630.1
2091.13
2350.16
728.159
508.03
506.883
2497.99
1633.73
2594.23
0.718406
-0.480663
1.0142
3.85377
0.0119263
4.33942
5.52018
45.2202
18.4994
21.5856
69.4639
18.458
31.5667
11.2897
-1.58762
-0.0297444
8.78143
14.3426
27.679
13.0292
5.21529
0.936124
3.57599
5.09013
17.5384
10.0304
-0.0296658
-0.672653
1.98875
0.753322
4.07893
1.46699
13.8858
10.3289
0.287952
0.325156
0.195166
-0.0429585
-0.10665
1.22375
0.849796
-0.28757
8.10981
19.2944
26.4534
0.837203
2.31312
2.89774
2.31447
11.0679
13.2481
4.96888
4.39209
1.29816
0.371097
1.163
1.14986
2.09284
-0.0215808
-0.0414337
0.145188
0.150565
0.0636757
0.0726617
0.244998
4.0618
1.51327
2.07279
0.753299
1.06892
0.994108
1.42166
0.711271
0.38587
0.841605
0.68771
1.35303
0.0497753
-0.212571
0.211144
0.367824
0.34235
0.140224
0.260405
-0.864567
-0.31334
-0.740662
0.0468209
-1.10318
0.633753
0.214987
-4.4584
-5.06244
-4.42055
-2.7719
-3.89362
-4.44286
-3.2656
18.6156
8.12901
13.5393
8.42894
7.73428
10.7219
9.14958
12.2943
12.0154
11.9241
8.71897
12.3893
10.2085
9.40047
12.1292
11.9556
11.0303
7.80535
10.9508
7.25506
7.05038
7.56949
6.91796
366.514
245.041
380.49
230.898
230.667
227.264
225.114
55.3607
129.733
197.69
55.3624
81.5069
110.982
196.167
54.6388
56.162
56.2796
55.4395
55.2911
54.6441
56.3719
90.7889
76.7905
88.6159
68.5578
59.1985
70.2323
63.3076
151.934
97.228
101.964
423.454
223.367
197.248
137.122
108.517
108.629
504.829
464.476
438.367
425.588
356.565
421.224
364.512
520.347
521.531
263.864
456.896
408.531
425.706
436.066
277.719
326.277
322.456
323.743
448.159
486.936
520.35
473.324
388.056
432.763
416.57
143.472
337.841
331.634
298.309
170.303
133.94
563.535
426.049
468.674
382.198
380.843
139.213
99.3386
136.289
154.412
128.17
173.763
139.107
416.068
369.169
368.241
216.181
384.073
714.7
763.224
731.808
75.5667
139.551
110.56
102.335
154.659
151.334
103.781
493.635
265.041
388.97
161.381
137.123
1004.35
683.116
724.237
1030.64
319.741
608.051
1125.42
779.779
772.263
1469.1
88.9834
143.313
111.503
136.828
75.439
135.68
76.5319
361.113
231.58
232.196
249.379
284.799
210.98
149.985
202.926
184.322
499.976
326.373
329.3
67.8541
46.0053
43.8
90.135
81.6171
93.663
141.68
74.8954
92.3587
74.6816
186.725
150.684
156.427
146.059
146.026
80.815
171.699
178.09
136.269
147.517
88.4079
118.732
200.603
117.297
115.714
147.566
113.344
82.0024
156.377
96.1613
87.9239
96.0409
142.851
64.4249
65.9062
63.2222
68.8887
71.0694
67.7769
68.0617
63.0118
58.8394
59.4338
59.318
61.4464
62.6029
63.7551
58.5144
58.0642
58.4412
58.2389
57.9001
58.2527
57.9977
57.2584
57.1527
57.014
56.9309
56.7863
56.865
57.3042
57.3815
57.4792
57.7993
57.682
57.5929
57.8986
58.1496
60.3325
59.3978
59.1745
60.0612
59.5509
60.8875
59.6813
58.951
60.441
59.2567
58.094
59.4018
59.2516
58.3473
58.2374
58.5564
58.2134
60.3029
167.6
108.067
160.143
125.718
90.4516
213.701
134.049
5.14893
5.45243
4.58801
-0.679268
4.37494
15.9267
1.07155
-1.58944
2.12074
11.5836
-3.64389
-2.34244
4.06871
11.3824
0.284808
0.317036
0.487698
-3.20802
-0.980946
1202.27
1579.3
1593.76
612.428
1410.75
1525.8
1568.4
83.6702
341.516
70.7959
341.68
29.8501
69.9844
86.2368
816.346
236.553
1088.68
274.276
1467.52
1118.75
123.863
1702.43
1755.21
1614.82
1509.92
1701.69
1416.69
1545.77
1610.04
1582.98
1649.77
1598.29
1615.63
1557.95
1600.19
1812.28
1603.22
1770.55
1549.96
1662.26
1729.94
1704.79
1797.66
1740.72
1686.44
1725.34
1626.97
1685.19
1518.85
1653.27
1640.1
1875.34
1725.37
1548.7
1905.35
1860.61
2457.5
1798.65
2421.66
2335.34
2094.63
2276.83
2418.18
2215.22
2389.02
2410.05
60.6878
42.4054
57.9538
135.855
200.849
103.197
80.8599
36.9321
27.6247
16.0709
31.7502
72.5348
39.9857
9.09171
0.59947
0.767309
3.75609
10.4494
3.84452
14.0586
3.26082
1.60538
5.26723
4.46734
-0.300923
-0.425103
-0.00734212
0.196404
-0.349233
0.0826021
-0.0265708
-0.01694
-0.395354
-0.0827006
-0.0900267
-0.0664499
-0.0439127
-0.0613973
-0.0102631
-0.0547379
-0.0566993
-0.0263822
-0.034476
-0.0320128
-0.17003
-0.0753518
-1.44911e-05
-0.0640213
-0.111306
-0.0801929
-0.256695
-0.14266
-0.189817
-0.188466
-0.145752
-0.221405
-0.218033
-0.148643
-0.134921
0.0845801
0.0600176
0.121637
-0.0339388
0.00574427
0.0359418
-0.0102528
0.108618
0.134728
0.0972544
0.000201426
0.171179
0.0764974
0.128595
-0.162066
0.0434476
0.169335
0.0232875
-0.20195
-0.270938
-0.311912
-0.289348
-0.366582
-0.328027
-0.225362
-0.246089
-1.52066
-2.30225
-1.74515
-0.710274
-0.545158
-0.842541
-1.2562
-1.96839
-1.44117
12.359
9.57365
13.7402
13.7058
7.42453
13.7544
13.6209
10.7983
13.7831
9.54117
7.18698
7.04876
8.88503
9.28962
10.6
9.00158
12.2066
9.67778
10.0753
10.0928
9.9909
12.3035
9.25721
24.5297
27.4782
36.0208
15.8702
44.581
19.1509
60.9867
71.2206
15.5117
1267.94
1281.35
1235.44
977.256
1122.7
1266.95
1292
598.682
558.594
614.458
622.048
601.367
716.323
676.642
556.678
509.032
604.398
547.45
633.384
591.259
602.163
520.49
611.203
641.032
548.351
586.719
595.322
602.7
641.279
610.486
484.085
533.4
496.467
457.575
615.02
345.103
540.92
476.646
591.122
445.577
351.654
470.038
384.89
461.716
412.27
343.632
56.142
56.754
60.3733
58.9325
59.6303
57.0916
57.565
175.165
102.006
130.426
118.166
104.31
96.9502
132.988
100.772
70.7737
124.132
162.82
70.996
118.168
88.8936
120.355
109.728
99.6396
66.9291
100.918
137.904
174.636
91.5696
131.535
139.84
89.0415
105.735
146.361
150.202
158.645
203.492
157.312
73.1074
169.213
66.0855
107.325
100.146
62.1343
63.4088
63.9323
61.2179
66.2324
61.3772
60.9447
63.1079
60.5287
63.5589
59.9196
59.2629
60.9652
61.2329
59.7232
59.4553
60.5381
60.5261
62.3138
59.831
59.8487
60.1089
60.4588
60.8572
60.8594
60.8259
60.3927
59.9793
178.855
222.618
172.661
171.154
277.769
221.748
189.759
576.325
695.493
827.207
786.455
850.424
855.099
837.299
42.3778
61.6498
37.8806
34.6558
28.3012
31.2841
45.4864
26.3998
46.7872
28.6539
36.0651
56.116
54.0436
48.6494
6.74545
9.83695
6.90506
13.5641
9.37762
5.88894
7.68154
1477.16
614.73
604.375
890.866
1445.52
1112.35
163.422
215.614
1.2178
16.7436
0.50123
187.915
-6.71117
-22.8268
-11.1624
15.7348
9.52315
-54.9642
-55.4213
-59.5037
-67.1978
-26.9003
4.06657
-17.0428
15.5316
-37.2525
49.8039
-5.47433
94.0481
247.601
73.7772
500.08
140.191
125.744
153.103
222.932
212.58
368.955
269.799
141.936
350.5
131.3
132.58
352.462
842.153
1235.62
1068.07
877.957
900.043
1068.22
1062.97
1134.15
1027.7
1161.88
1087.07
1111.56
1094.22
1026.15
1063.99
1197.89
1191.74
870.037
1075.58
905.237
490.401
1241.65
1237.11
1160.04
881.728
892.682
886.895
1376.16
1012.77
802.681
644.532
1544.3
1510.14
1540.29
1820.05
1613.58
1409.11
1002.98
964.994
943.927
996.494
1027.22
952.599
1072.16
1154.78
1292.51
697.356
232.409
243.27
1802.99
1867.33
1830.95
1130.39
945.423
1585.78
1782.8
546.756
104.594
710.055
859.431
280.455
101.042
1271.92
1898.38
1714.83
2202.98
2199.34
2186.98
2215.99
2242.14
3.57444
4.98576
3.39994
4.20757
8.38536
0.0375718
-0.283298
-0.165361
0.128232
0.291045
0.167777
0.619322
3.65893
1.77602
2.29374
0.627334
0.463179
0.546727
1.03894
-0.44785
-0.171187
-0.340211
-0.096148
-0.0643783
-0.220622
-0.241879
-0.0653135
-0.0414889
-0.0667055
-0.0773407
-0.00793956
-0.0748936
-0.156623
-0.108626
-0.110553
-0.105512
-0.0429979
-9.34062e-05
-0.1697
-0.0147137
-0.049522
-0.0584058
-0.0366916
-0.0648526
-0.0765159
-0.0749571
-0.0152318
-0.00581004
-0.00302277
-0.0208626
-0.0293485
-0.0378923
-0.047435
-0.0233284
-0.0379351
-0.022459
-0.0080246
-0.0263904
-0.0107809
-0.00713047
-0.0245171
-0.000950163
-0.0208851
-0.0422536
-0.0573635
-0.0228287
-0.0634973
-0.0472612
-0.0246719
-0.0293527
-0.0233792
-0.0457486
-0.0338024
-0.0285623
-0.0226695
-0.0417763
-0.0380796
-0.0251964
-0.042783
-0.0512364
-0.0583323
-0.0578533
-0.0659405
-0.0482623
3.84612
3.91476
3.97165
3.96114
3.71489
3.84067
3.94446
4.17355
4.07661
4.16076
4.02526
4.06104
4.09513
4.05081
3.67811
3.70793
3.48935
3.64216
3.50099
3.592
3.38271
4.53831
4.57034
4.3644
4.26192
4.31353
4.51707
4.35077
4.37329
4.63303
8.14466
7.45744
6.67087
4.91188
5.47751
6.14122
7.07348
6.2955
7.03306
5.98745
6.68352
6.49951
5.7184
5.65626
8.83679
9.70228
10.1228
7.83427
7.39768
6.54133
6.31084
7.63372
7.01316
11.2145
10.9546
8.06372
9.70676
10.9027
7.85241
8.57961
10.3646
6.82057
9.79394
11.1976
11.5365
11.9652
8.03068
7.97328
7.56193
751.086
1102.16
294.8
280.354
503.661
1448.8
1073.5
276.723
274.248
353.577
257.7
278.916
750.326
625.216
155.667
110.28
126.814
147.091
120.606
111.402
143.385
630.88
160.49
896.227
219.567
580.361
690.521
923.057
741.861
729.211
675.77
389.92
193.791
279.821
715.761
605.11
676.003
236.084
666.701
663.534
627.615
284.124
746.085
714.607
744.342
422.889
412.873
488.271
536.334
732.681
692.569
765.704
680.937
666.787
661.043
652.428
575.455
574.65
588.205
593.224
565.105
410.995
625.901
616.691
647.288
545.746
621.353
657.151
56.3936
56.5455
56.963
56.2996
56.2069
56.3575
56.6744
170.901
221.347
139.865
179.088
141.679
81.2324
162.725
178.305
160.363
90.2659
159.661
182.513
200.764
129.339
142.454
159.456
165.624
167.563
142.572
164.746
73.0441
73.1921
67.3737
71.577
76.6411
73.5247
68.7343
66.2697
64.528
64.8326
66.1545
65.9588
65.6557
65.4639
12.4495
-3.00276
-36.6243
65.1987
33.9393
32.2963
40.1649
68.6031
93.6647
199.603
473.919
19.1538
-30.448
-70.8509
-51.4097
39.9403
42.6462
-42.5586
-40.0692
342.583
64.7442
455.571
38.1398
-21.7066
76.5767
17.1469
83.5102
69.4421
64.8136
10.1139
64.169
76.1558
7.58805
3.02921
0.179953
2.63239
0.364744
0.144886
0.0189461
0.189371
0.127806
1.4241
1.94417
2.02413
1.27625
1.71395
1.23241
0.754831
-104.578
-99.4746
-97.5761
-101.942
-104.524
-99.2836
-105.892
-90.6021
-69.8165
-43.3493
-68.5067
-89.8106
-36.4778
-89.7248
705.735
677.287
616.168
468.177
136.132
97.1068
740.503
1056.99
1036.12
1006.24
1132.13
1090.36
1047.86
860.776
756.915
770.886
756.36
289.026
112.815
1030.47
1085.43
1101.39
1134.33
1084.47
169.551
525.427
52.7743
-7.45693
1.98652
1230.97
1181.61
1140.92
761.251
1114.09
1070.67
1292.58
1071.17
136.18
195.872
300.618
128.939
131.465
-46.4205
54.046
51.114
51.8729
12.8457
-41.5458
-62.2438
351.653
89.4293
394.302
359.786
378.65
59.2094
380.246
100.399
62.5332
101.606
-35.0511
-0.795023
14.2223
-2.38626
101.874
93.7142
133.952
93.1301
277.808
93.2772
97.6442
67.2075
29.9653
28.9092
111.362
34.6906
53.5846
31.0927
-0.0404976
-0.0642386
-0.0232658
-0.0373944
-0.0507265
-0.0728372
-0.072145
-0.0395761
-0.011315
-0.0382784
-0.00422475
-0.00321068
-0.013265
-0.0275901
-0.0334576
-0.0357868
-0.0488807
0.000492873
-0.0145625
-0.0280458
-0.0175774
0.00247139
-0.000976511
0.00229195
-0.00163858
0.0106332
0.00660892
-0.0263046
-0.00387689
-0.000832117
0.0409807
-0.136195
0.0853927
0.0231181
0.0621577
0.114363
-0.177231
0.0656648
0.0383686
-0.590466
-0.9344
-1.17893
-0.984163
-0.97475
-1.62102
-1.05515
892.258
2204.72
2686.07
2645.14
2710.68
2598.95
2569.02
3.2157
3.59519
-0.407053
20.9803
4.73083
-1.83355
5.69377
12.3313
60.5688
15.2728
47.947
9.24001
181.543
24.0561
1.10764
1.1928
0.544037
0.537097
0.560857
1.08333
0.941989
2.10348
3.01638
5.03912
1.47368
3.27746
1.6648
8.48938
3.87953
3.70163
3.6639
3.70081
3.51224
3.66926
3.65471
2.17755
2.36568
2.35332
2.99802
2.3658
1.96799
2.50108
2.56432
2.13935
4.23812
4.15896
4.1296
4.00289
3.89181
3.87721
4.03832
4.13599
4.25251
4.06222
4.06946
4.18913
3.8567
3.8675
4.26392
4.19479
4.68309
4.20023
4.68871
5.07193
5.70866
7.90835
10.4729
8.39528
7.9381
6.88795
7.70775
9.17264
1542.27
1385.42
1519.82
868.755
979.688
1046.01
1024.51
1281.56
1215.48
1295.61
1209.82
1225.49
1399.73
1226.46
1172.39
1202.51
1200.03
1144.61
1246.65
1191.2
1167.86
1252.63
1203.39
1167.93
1055.41
1054.65
1054.93
1087.27
1123.57
1219.36
1074
1025.54
1028.01
1033.67
1040.39
1009.17
666.371
1045.97
1112.1
1049.82
917.745
932.484
916.543
964.304
837.625
782.6
754.517
715.509
145.26
506.205
128.359
142.868
630.824
121.727
839.232
467.313
828.929
292.036
690.991
297.159
158.884
218.934
211.692
158.072
162.738
223.345
157.145
58.043
58.0973
57.7526
57.6336
57.5721
57.9378
57.9235
59.138
59.1111
59.5814
59.8432
59.7379
59.282
59.4521
59.4157
76.2232
64.1021
66.6991
61.625
58.8787
57.645
68.6413
65.5781
66.6851
73.0425
67.0002
66.8302
75.3316
376.14
131.496
201.901
326.968
259.372
224.664
286.665
133.438
153.104
27.52
207.395
35.9407
147.201
-131.051
-127.167
-126.702
-131.204
-127.606
-127.243
-123.817
-119.176
-98.354
-89.8629
-116.847
-95.6437
-112.506
-88.1563
85.01
264.513
-61.1852
316.455
-12.9388
-47.6166
152.651
481.314
594.443
901.107
617.391
488.204
760.641
730.217
811.566
903.101
873.638
476.562
347.653
838.382
321.21
829.826
869.032
263.274
151.894
67.6213
-51.095
175.099
-22.9025
72.3616
-49.3158
-83.3635
-86.9937
-110.489
-106.743
-77.1231
-86.3177
-106.775
-109.476
-115.485
-112.299
-117.578
-113.728
-117.019
-114.974
-104.068
-110.711
-112.139
-111.089
-114.236
-112.563
-116.325
-6.41708
-9.59253
-5.42539
-10.938
-8.71793
-4.64411
-7.74511
-1.61908
-1.12757
-1.29392
-3.19374
-1.71263
-2.2123
-4.87238
-1.14043
-1.44151
-0.792815
-2.30956
-1.85826
-0.690668
-1.00584
-1.23923
-1.44214
-2.06587
-1.32655
-2.03411
2272.64
1582.59
2388.54
1541.75
1986.55
423.305
2135.01
9.11371
20.6184
15.2083
10.3285
14.8248
22.8119
14.9436
5.90597
3.51086
4.69875
3.15176
3.09853
4.3575
6.84256
0.775311
-0.24668
0.297051
-0.406729
0.0304816
0.376665
-1.01731
-0.0746429
0.0352394
0.686449
-0.317763
-0.660311
-0.374048
1.09997
0.491156
0.027163
0.409738
0.291573
0.0746373
-0.815968
-0.507394
-0.728725
1.04935
-0.909371
0.115584
-1.41765
-1.6831
-0.388209
-1.3613
-1.56271
-0.839511
-0.938443
-0.993433
3.14907
3.07654
3.0203
3.31662
3.86667
3.51537
3.37165
3.70982
3.72054
3.91741
3.82098
3.84298
4.13665
3.99155
3.91603
4.64257
4.87159
3.85449
3.93291
4.33239
4.23108
10.5173
17.7326
13.3992
10.0123
8.50471
13.2535
7.20074
21.0832
8.13628
28.4364
20.393
38.6819
48.7861
37.8236
56.6011
104.835
1495.99
1400.18
1164.52
1778.11
1782.2
1708.19
1539.09
1146.81
1096.23
1168.03
1208.42
1561.92
1403.46
1594.98
1756.11
1671.42
1770.36
1386.06
1100.22
1323.92
1150.79
1430.51
1101.69
1131.93
1118.36
1273.67
1273.54
1379.01
1297.87
1148.86
1161.06
1152.11
1194
1159.56
1086.26
1099.38
543.062
1142.55
1144.18
861.917
1178.38
548.683
688.799
85.1188
66.9698
91.6751
74.2217
69.7863
68.3992
68.9195
60.0155
58.2733
62.4197
58.0349
58.2358
57.7562
57.8201
57.657
57.4771
57.6785
57.5924
57.4961
60.5179
61.0805
60.2477
60.8249
61.9622
61.3649
60.9566
58.4928
58.062
58.7967
61.3959
58.4579
63.1989
61.7259
62.6353
63.46
64.1348
63.128
65.0644
61.4022
61.6765
61.0023
60.8995
60.5436
61.2494
60.9688
65.4065
65.6341
64.8819
64.4193
64.3362
63.6446
63.794
384.368
204.401
226.235
3103.7
1589.55
2396.8
2124.45
1360.16
2942.57
2444.06
1097.98
260.322
1622.06
818.425
1516.33
1566.16
1441.18
897.044
865.003
791.234
919.722
105.176
660.864
1030.63
3973.15
2763.3
632.158
825.439
809.541
891.757
854.649
518.349
745.877
469.117
668.603
765.44
-84.9443
-38.1437
-39.8139
-77.6449
-96.5185
-74.6979
-98.8473
55.8217
6.65764
19.4978
8.70121
2.80622
10.6743
21.0308
-1.95717
86.1083
-1.50378
65.5296
17.4605
394.703
222.222
-1.49336
-0.425317
-2.50617
0.620087
2.67363
2.04725
1.1758
-5.16257
-8.43897
-5.19817
-3.58898
-7.07284
-1.75623
-4.89371
-0.550143
-0.629138
-0.949921
0.143952
1.10994
0.483192
0.0856876
-1.54291
-2.0369
-0.98547
-1.40343
-1.43496
-1.35449
-1.87697
3.65585
3.89175
3.96541
4.05798
4.38593
3.70214
3.64835
3.58917
3.22722
3.39562
3.27762
2.91934
3.49417
3.74614
3.70053
3.48171
1.92316
1.29375
1.41449
2.46548
2.45959
1.89313
1.77157
-1.38692
-2.01748
-1.40527
-1.99322
-2.06897
-2.29915
-2.31561
-0.0843985
-0.152978
0.760547
0.518016
0.200178
0.343684
0.097232
0.185567
0.296751
0.29582
0.862321
0.217034
0.21443
0.25634
0.386557
0.00981735
0.398314
0.260202
0.316865
0.129063
0.0425476
0.132856
0.206985
0.250877
0.25401
0.269285
2.41847
2.74813
1.32594
2.46834
2.96667
1.59964
1.35042
2.10443
1.30782
8.65847
5.90672
6.743
8.1641
5.8446
5.75444
11.8794
67.2791
172.019
130.28
319.176
71.4735
607.425
155.126
389.484
450.896
389.127
391.836
381.66
394.985
393.823
395.527
388.519
614.016
410.092
381.057
462.361
1561.19
398.357
385.834
379.902
1366.3
1681.14
1670.46
1799.85
1379.02
1691.69
1656.66
1709.92
1131.93
1615.19
1612.35
1477.35
1598.68
1589.73
1347.5
1553
201.991
168.761
171.739
838.614
170.771
629.972
661.485
942.631
965.576
979.362
623.427
968.645
963.455
1092.29
1089.37
1085.87
1108.64
1045.93
1072.89
1071.19
1059.98
1017.75
1041.83
942.293
973.983
962.687
1002.28
933.225
701.92
338.842
310.968
677.285
834.287
700.058
177.39
122.273
89.0545
152.331
88.4511
91.724
104.533
117.554
418.662
175.196
181.709
236.063
549.839
60.6921
60.9752
62.8127
60.117
62.1068
64.1593
61.0318
61.0357
58.1141
61.034
57.8668
57.8977
60.6319
60.0911
60.7187
60.0601
60.7183
61.7124
60.8376
60.7041
61.1455
1774.56
1225.3
824.608
366.665
300.663
731.058
53.6899
191.183
34.1372
100.666
-446.443
185.939
585.674
224.466
266.751
-107.024
-9.25105
203.882
115.925
-149.387
118.14
-49.3856
106.953
-74.9283
22.2404
30.6029
78.5731
88.0089
88.3196
136.047
100.576
173.678
162.533
431.672
397.864
471.298
438.636
192.768
542.735
145.734
625.371
564.225
592.796
241.728
49.1391
712.292
138.05
407.521
192.963
654.652
273.881
275.429
721.506
71.6553
13.3865
310.502
27.5754
330.243
11.4189
91.1043
5.34134
-26.1321
22.2621
-0.258851
-32.1197
11.3711
-21.8772
28.115
-2.6628
4.10093
4.19986
4.19496
4.20023
4.22396
4.34209
4.21573
4.1994
4.08909
4.10782
4.12896
4.07819
4.1658
4.19338
1.84888
2.00971
2.20721
2.24458
2.06577
1.922
2.019
0.272075
0.329076
0.244178
1.4064
1.89594
1.23488
1.30617
0.946859
1.86383
1.5143
0.0510566
-0.0484084
-0.151415
-1.01524
0.168294
-0.0895523
-0.3203
-0.439778
-0.136455
0.191445
0.0297003
0.144642
-0.192727
-0.376471
-0.593995
-1.12394
-0.559176
-1.00087
-1.06466
-0.494503
-1.23697
-1.44081
0.48395
-0.0633242
-0.373675
-0.282877
-0.733143
0.394706
-0.02605
-0.39079
-0.291704
0.0957997
0.292198
-0.118688
-0.165854
1.6478
0.770425
1.29303
1.25662
1.35374
1.24958
0.890915
200.521
126.909
124.102
253.125
122.066
124.548
600.087
444.918
607.897
591.218
600.166
633.255
563.201
132.467
376.061
473.192
394.811
28.4341
29.3471
54.9172
53.6177
27.2598
26.7003
63.946
128.901
49.0013
199.643
663.61
432.275
141.893
154.269
1396.07
1238.46
592.225
569.601
823.839
325.617
773.742
205.291
855.549
381.161
246.123
157.569
324.189
511.735
873.32
1012.18
842.508
1632.94
946.221
1320.01
1656.14
200.867
572.478
151.174
120.635
258.985
104.813
101.027
728.478
1337.96
1223.24
728.547
1480.41
1447.64
1482.22
13.7786
16.6511
15.0794
26.8787
37.0189
15.9391
20.5
105.891
138.635
111.299
317.108
136.008
125.135
155.327
77.4345
43.8444
42.7315
18.0634
13.5358
14.3135
21.0264
42.8014
19.0883
30.2193
10.9859
13.8983
18.0611
14.617
35.7087
18.6971
34.85
15.2613
10.905
24.0367
17.9841
15.9766
16.2465
613.654
854.551
576.684
562.682
840.356
824.794
843.885
175.265
178.056
177.666
294.505
506.031
654.295
796.655
920.194
675.895
996.154
690
1055.55
1043.55
862.681
416.211
518.34
397.891
1022.24
944.977
953.314
510.904
182.3
117.063
112.386
125.125
150.681
133.447
166.22
172.708
163.196
211.725
217.332
173.861
309.13
191.37
-165.03
58.9153
-13.9498
172.938
54.5001
140.675
141.37
60.8548
207.579
148.337
241.087
125.312
79.7638
142.566
-72.1976
68.7379
-33.8924
157.867
112.338
42.1408
61.2957
92.4538
63.7905
27.4291
11.3291
-86.5806
63.2225
24.6495
62.9426
48.8696
63.2661
-28.863
53.0008
105.21
169.909
185.07
137.158
120.65
253.686
195.764
155.368
-72.199
-110.109
-50.1225
2.67364
-142.567
-94.7373
20.7615
46.9799
15.9129
122.919
70.9267
26.0966
69.4344
42.7379
51.8945
106.712
20.2461
19.7736
23.2871
17.0901
22.304
16.855
15.0291
10.2716
23.1513
18.1578
18.3368
17.6723
23.6009
19.7505
19.2087
17.8696
29.6743
29.5236
33.0083
17.8878
27.3316
19.0334
32.7787
119.692
236.933
260.676
78.4404
73.0216
187.573
215.478
83.2674
82.1663
95.0965
124.203
92.9501
88.4224
84.6589
89.6951
66.1586
68.1227
86.8365
80.3737
81.5044
79.4347
404.196
657.685
286.37
548.205
461.842
405.043
555.804
697.999
711.586
292.597
399.909
494.934
620.062
469.568
698.905
610.461
597.521
611.991
750.246
566.221
335.159
368.055
723.766
748.267
79.8345
80.5681
84.3866
155.893
99.0415
81.3917
151.154
79.8753
80.0744
57.5105
71.0084
84.1636
85.4697
60.8636
154.159
84.4537
174.161
89.7344
162.019
184.048
186.598
409.08
136.195
425.336
436.545
399.34
275.515
27.64
1063.03
1210.67
1136.55
654.28
1115.74
1514.01
578.247
668.167
814.897
734.183
692.051
381.163
516.495
323.688
278.248
391.963
654.629
503.915
550.72
627.949
17.1147
17.2355
20.1666
21.904
26.004
27.0998
23.0525
18.2811
17.4189
16.7162
20.1108
18.5399
18.4225
17.5169
16.8138
16.5819
16.7092
17.0674
16.131
16.6167
17.3612
5.72576
5.28096
5.57276
5.70491
6.22384
5.23667
5.29
7.10207
7.35413
5.40873
15.6899
14.6172
8.50038
15.7665
8.66165
8.46842
6.53312
5.76379
5.93013
7.52652
7.26477
6.18104
5.93712
14.3731
13.5347
16.7139
24.5012
20.3484
13.6521
20.3891
1433.58
1407.29
1124.29
162.984
878.776
1479.92
252.238
1550.19
1468.7
1047.66
1011.05
1265.93
1547.16
1522.01
1394.29
1182.53
1535.91
1636.73
1140.54
1655.61
803.808
20.6928
130.438
41.7387
15.4933
20.8085
74.8742
145.054
8.27902
37.1328
21.9329
7.584
5.16133
7.2518
10.0869
10.7524
7.27217
7.30633
8.34044
9.82649
7.17557
13.6533
13.83
8.15541
6.5362
4.72273
4.80538
7.08858
4.46273
4.35373
4.28652
5.36066
3.44598
3.63484
3.66083
3.31192
3.14977
3.25178
3.41018
2.71753
2.5411
2.76571
2.67988
2.52526
2.68017
2.83327
3.8003
3.29924
3.97109
3.22163
2.92355
2.91751
2.63081
2.301
2.50746
3.22611
1.17688
1.60305
0.278388
0.52963
0.384614
0.17003
0.443083
0.78684
0.373266
0.780114
0.852751
0.981704
0.0213527
0.769737
0.57524
-0.19099
0.0317559
-0.242538
0.767289
0.465697
-0.00134899
0.416606
0.412366
0.508507
0.130883
0.00840966
-0.03186
-0.0849998
-0.309371
-0.145733
0.0331472
0.532806
0.486844
0.273031
-0.0555308
-0.0699971
-0.129616
-0.0504209
-0.358806
0.161903
0.744719
4.19707
0.38461
4.20692
2.42524
0.573673
1.76509
483.239
316.185
488.838
32.2513
385.478
55.1323
474.12
271.052
152.923
23.6332
496.746
403.808
495.802
58.2859
36.9211
203.532
5.9013
7.77899
1.25274
3.29086
2.01323
9.2877
21.9393
3.9899
2.36696
533.148
306.61
190.105
12.2096
22.0613
199.009
535.697
4.90926
3.70554
4.61547
3.67201
3.91312
4.02886
3.59824
6.09031
4.59496
4.87172
4.42952
5.12442
4.4809
5.65335
4.76193
4.82928
4.78661
6.12584
5.73856
6.56882
5.47361
20.8934
7.22497
14.4534
7.20633
5.52457
26.6682
44.4764
27.1984
36.1651
36.8586
57.1938
30.9907
13.2462
18.3969
29.5477
9.80787
13.6719
12.5813
17.7198
66.781
95.8084
58.9948
91.8912
58.0038
131.094
65.1567
7.02554
9.32444
7.92569
6.89513
7.14478
8.35863
21.9606
14.3261
8.33519
11.618
17.7747
11.3958
12.0753
15.8475
10.4268
22.981
43.9196
27.7154
18.0314
7.38925
7.82284
8.9169
7.27365
7.20246
7.24856
8.865
7.27911
7.03582
6.93745
8.75805
9.72376
7.30406
9.07519
6.95923
8.32044
11.1226
10.7013
10.7214
7.87562
7.82771
7.92963
10.9198
7.91007
12.2312
7.99687
8.97132
10.2569
7.00374
6.85702
7.38853
6.78089
7.07579
6.89335
6.83078
12.4943
10.0796
9.69634
21.3914
13.9419
9.98976
13.5556
178.99
179.674
176.174
240.58
390.381
195.151
179.789
125.261
120.463
124.229
125.122
108.866
125.15
107.245
169.387
210.37
159.683
160.307
284.303
561.4
242.682
142.79
196.485
206.472
214.658
82.0637
188.612
203.068
168.423
174.75
474.663
171.656
180.61
372.376
171.191
185.363
169.538
440.833
331.579
525.161
462.249
258.558
338.27
373.158
85.9886
109.004
503.069
116.216
-44.8123
-7.98259
105.44
-70.9307
143.993
-124.018
-104.882
-14.6887
-22.7338
-183.467
-41.6664
-171.202
310.976
237.288
251.964
542.408
361.95
309.224
397.446
281.645
6.44724
307.702
140.191
136.992
198.291
329.018
270.21
334.462
364.222
449.489
460.558
522.216
482.843
386.676
460.667
386.771
249.089
589.269
312.711
495.694
655.107
537.114
128.531
318.195
333.908
266.566
582.931
449.718
107.146
553.871
545.208
110.965
131.59
518.306
387.1
566.331
407.025
428.957
520.141
520.768
425.287
259.312
473.553
436.299
253.757
538.378
490.428
571.388
636.044
512.46
-52.1909
319.119
197.892
128.92
105.653
116.92
141.135
119.842
183.407
151.932
420.253
404.024
408.347
250.809
394.544
323.699
393.281
450.215
424.568
408.916
243.098
296.262
288.345
502.132
243.615
299.536
320.023
388.731
353.004
341.332
312.261
339.124
368.666
354.39
311.422
407.793
391.39
308.539
348.249
330.996
345.321
282.007
336.419
111.882
205.33
129.458
116.079
90.5604
149.412
49.8225
42.1772
38.0047
-5.48036
123.613
53.7478
18.596
4.72919
1.42655
28.5417
26.2903
1.39242
0.795933
12.9206
8.98057
13.1628
2.82769
5.71231
0.952363
-0.0669766
-0.157612
-0.384806
0.650396
0.592824
2.25996
10.1223
7.02554
3.748
7.84693
5.85522
3.86689
-0.653198
8.26897
0.0762735
4.52853
6.71277
4.26754
2.72543
2.15955
2.53729
2.09481
4.66185
4.4996
8.72603
73.3863
28.4311
94.0954
53.5588
82.8157
102.257
105.72
50.1533
46.1354
27.261
79.5704
77.9841
28.6648
51.872
894.073
681.593
1042.91
1062.47
1046.63
1015.03
1007.02
6.70442
8.90946
6.81338
6.1559
7.68947
7.63636
6.05993
5.22897
5.44184
5.09846
5.12535
5.1897
5.24245
5.15896
7.55704
6.82539
7.2226
7.11934
7.56293
8.90843
7.27162
5.94458
5.85946
5.9002
6.05401
6.08287
5.84734
6.44277
5.04346
5.22215
4.69068
4.74294
5.90945
5.31955
4.54667
6.47866
6.67502
6.71766
6.37094
6.3707
5.57479
5.38198
3.89832
3.38172
3.6075
3.02654