/*--------------------------------*- C++ -*----------------------------------*\
| =========                 |                                                 |
| \\      /  F ield         | OpenFOAM: The Open Source CFD Toolbox           |
|  \\    /   O peration     | Version:  v2012                                 |
|   \\  /    A nd           | Website:  www.openfoam.com                      |
|    \\/     M anipulation  |                                                 |
\*---------------------------------------------------------------------------*/
FoamFile
{
    version     2.0;
    format      ascii;
    class       surfaceScalarField;
    location    "0.5";
    object      phi;
}
// * * * * * * * * * * * * * * * * * * * * * * * * * * * * * * * * * * * * * //

dimensions      [0 3 -1 0 0 0 0];
oriented        oriented;


internalField   nonuniform List<scalar> 
13152
(
9.6612e-07
2.02669e-05
-1.59344e-06
-1.96396e-05
1.86876e-05
-1.71211e-05
-6.00356e-07
-3.4772e-06
4.24317e-05
-3.46561e-05
3.54127e-05
-2.35007e-06
2.12097e-05
-7.55054e-05
2.85206e-05
-2.4432e-05
6.04561e-05
-1.61125e-05
-2.95624e-05
-2.84146e-05
7.40894e-05
3.88025e-07
-1.68023e-05
3.01799e-07
-2.99073e-05
7.32985e-07
7.85316e-06
5.16204e-06
-2.98175e-05
7.82667e-06
3.28293e-07
-5.07667e-06
-1.55112e-05
-2.9822e-05
-8.64555e-06
-1.46306e-05
-5.13327e-06
2.84094e-05
-7.08511e-08
-8.66252e-06
8.78178e-08
-1.41588e-05
-5.42653e-07
5.65821e-06
-3.05625e-05
1.62418e-05
-2.9355e-05
2.98799e-05
2.93681e-05
-5.29493e-07
3.58108e-08
-1.52187e-05
-2.99024e-05
1.16227e-07
-7.49386e-05
3.29255e-07
1.60003e-05
3.02065e-05
2.65641e-09
7.46163e-05
3.58129e-05
1.26694e-05
2.53833e-05
-7.38656e-05
3.46491e-07
-6.89929e-07
3.61563e-05
1.24155e-05
2.61367e-07
-1.87686e-05
7.36158e-05
7.78438e-05
2.91393e-05
-7.29046e-07
-2.93768e-05
9.66524e-07
-1.63958e-05
-2.68954e-05
7.24305e-05
1.82136e-07
-1.7307e-05
-8.07672e-06
8.00652e-06
2.5234e-07
5.29288e-06
-3.06766e-05
-4.96299e-06
-1.39259e-05
-2.90469e-05
-1.38024e-05
1.28837e-07
2.91369e-05
2.1884e-07
7.35799e-05
-3.04307e-06
-2.16532e-05
-4.88836e-05
-3.64622e-05
3.6237e-06
0.000106418
-2.37823e-05
-1.5723e-05
-6.29976e-05
-3.48394e-05
0.000101461
-5.03109e-06
-7.96196e-05
9.45936e-06
-6.42679e-06
-2.68149e-05
3.14846e-06
-9.41209e-06
-1.77554e-05
-1.39355e-05
-2.92133e-05
-1.05865e-05
3.79301e-05
-6.62404e-06
-2.07196e-05
7.63435e-05
-1.99203e-05
-6.70097e-05
-2.70039e-05
-6.3502e-05
2.07056e-05
2.63477e-05
-6.69736e-05
2.66638e-05
-1.25822e-05
-6.49018e-05
6.45618e-05
-0.000102056
-1.18911e-05
-2.91818e-05
-7.63486e-06
4.87077e-05
-8.99326e-06
-1.84003e-05
1.55025e-05
-2.86984e-05
-9.47662e-06
3.60581e-05
5.52993e-05
-0.000120056
6.649e-05
-3.99086e-05
-2.10487e-05
7.99039e-05
1.58503e-05
1.34591e-05
3.89807e-05
6.06196e-05
-0.000113059
1.60688e-05
4.28814e-05
-4.54911e-05
3.86104e-05
1.64391e-05
2.82907e-05
5.68569e-05
-4.22663e-05
4.41805e-05
4.47298e-05
-1.58572e-05
0.000111325
4.47624e-05
3.0876e-05
2.03558e-05
1.07714e-05
-6.20033e-05
-3.4114e-06
2.92428e-05
5.04457e-06
-2.52047e-06
1.94649e-05
-4.65934e-05
8.84642e-06
6.69899e-05
3.24481e-05
-6.82701e-05
2.9921e-05
6.65523e-09
5.82323e-05
-8.0203e-06
1.03178e-05
5.54968e-06
-7.84715e-06
2.0531e-05
9.22397e-07
-2.94737e-05
1.41788e-05
1.66699e-05
-1.5392e-05
-5.5518e-06
2.64935e-05
-1.93458e-05
-3.8933e-06
2.46063e-05
-4.30298e-05
3.32334e-05
-1.93402e-06
2.30845e-06
1.42763e-05
-1.46507e-05
1.23496e-05
1.98503e-05
-3.41338e-05
5.77669e-06
8.88132e-06
-9.34811e-06
-5.10572e-06
2.02305e-05
-9.86622e-06
9.39942e-06
-1.78374e-05
3.2582e-05
-1.34274e-05
-1.50059e-05
-2.51925e-05
-1.24814e-05
5.26798e-05
2.68321e-06
-7.6205e-06
-1.00686e-05
-2.47174e-05
2.20812e-06
-9.85311e-06
2.44401e-05
-2.22075e-05
6.66495e-06
-2.65867e-05
2.88297e-05
-4.68822e-05
4.07884e-05
1.16004e-05
-1.18509e-07
-1.16504e-05
1.68539e-07
-2.57754e-05
-7.82171e-06
4.51975e-05
-4.62741e-07
-2.54312e-05
-7.90327e-06
-4.54694e-05
4.5551e-05
-4.22128e-05
2.26591e-05
-4.44729e-05
-1.45926e-06
-0.000112117
2.24412e-05
2.20879e-05
4.30693e-05
-8.75984e-05
-2.0247e-06
1.12577e-05
1.32083e-05
6.93485e-06
1.31283e-05
2.07406e-05
3.35864e-05
-3.81807e-06
3.14936e-05
2.25185e-05
-4.57108e-05
2.97247e-05
-5.85059e-06
2.18366e-05
6.16037e-05
3.96878e-05
6.16728e-05
4.73761e-06
8.65908e-05
4.86058e-06
1.55398e-05
1.92874e-05
1.98424e-05
4.66909e-05
-1.13951e-05
3.59751e-05
-1.70579e-06
2.93637e-05
1.69348e-06
-2.70358e-05
-4.02142e-06
-2.53619e-05
-2.81265e-05
8.28522e-05
4.7884e-07
-2.41472e-05
-2.54585e-05
2.68564e-05
-9.19035e-07
2.25538e-05
-7.21596e-05
-1.92163e-06
6.51468e-07
-6.40359e-06
-1.0455e-05
-0.000182673
6.57844e-05
0.000127344
-0.000117178
4.29275e-05
6.37951e-05
0.000135334
0.000201464
4.25655e-05
3.05378e-06
-2.69174e-06
-1.7933e-05
0.000126283
0.000131794
6.59377e-06
0.000315326
-7.40517e-06
-6.13072e-06
6.66334e-06
6.87255e-06
-6.90776e-07
1.57509e-05
-2.24653e-05
9.93577e-06
-1.67573e-05
3.68479e-06
-2.06648e-05
2.36434e-05
-1.1694e-05
2.22513e-05
-1.43247e-05
1.83816e-05
-2.50537e-05
1.30737e-05
9.21429e-06
1.48074e-05
-3.70954e-05
-6.88085e-06
6.90052e-06
1.3054e-05
2.68542e-05
-2.45208e-05
1.35221e-05
-3.87171e-05
3.20955e-05
-1.78533e-05
4.44295e-05
-3.11371e-05
4.0138e-05
-5.50469e-05
1.0364e-06
-2.17273e-06
3.7747e-06
-2.63837e-06
-6.70193e-06
1.06262e-05
-2.88785e-06
2.71397e-07
-9.14606e-06
-1.96181e-05
-2.39865e-06
3.26429e-05
-3.37757e-06
-1.91283e-05
1.06961e-05
-1.38023e-05
1.20722e-05
-3.3688e-05
1.29149e-06
1.70654e-05
1.53312e-05
2.60209e-05
-1.33676e-05
-4.63413e-05
-3.00917e-06
3.03216e-05
-8.7347e-06
2.13026e-06
2.36698e-05
-2.11037e-06
-1.9992e-05
2.90682e-05
-7.65071e-06
-2.44266e-05
8.16418e-06
5.12256e-05
9.07989e-06
-1.8841e-05
1.93743e-05
6.08611e-06
-8.07515e-06
3.47369e-06
-1.48465e-06
-1.74026e-05
-2.58826e-06
2.60769e-05
6.68622e-06
-3.21639e-05
-9.78591e-06
-3.30818e-05
-1.65752e-05
5.30461e-06
-7.89652e-06
-1.12669e-05
-3.42921e-05
-2.39983e-05
-3.85053e-06
-2.20629e-05
4.99117e-05
-8.85548e-07
-4.24413e-05
1.93286e-05
-9.92728e-07
-3.74336e-06
-5.80183e-05
-3.07329e-05
6.66883e-05
-3.06465e-05
-6.98131e-05
-9.21516e-07
3.50762e-05
-3.51474e-05
5.08151e-05
-5.54799e-05
-1.5595e-05
3.57635e-05
-1.12517e-05
2.85706e-05
2.62161e-06
-3.45407e-05
3.34857e-06
-2.17696e-05
-1.74313e-06
5.20833e-05
1.04393e-05
-2.95873e-05
1.12806e-05
-9.71871e-06
-3.61026e-05
-7.86526e-06
1.74027e-05
-5.80649e-05
3.59577e-05
3.25465e-05
-1.02289e-06
-8.66293e-05
1.46949e-05
-2.54365e-05
4.27873e-05
5.09895e-06
2.00563e-05
-1.41473e-05
-1.1008e-05
9.65616e-06
9.02487e-06
-1.35821e-05
2.21968e-06
2.74928e-05
-2.54064e-05
1.23908e-05
2.20404e-05
1.30948e-05
-2.04086e-05
3.50191e-05
-2.1461e-05
1.21355e-06
1.14536e-05
3.67815e-06
-1.63453e-05
1.80958e-05
-1.71499e-05
2.67574e-07
-9.88774e-06
3.94371e-05
-2.65987e-05
1.80487e-05
1.22281e-05
2.84053e-05
-7.13493e-05
3.8899e-06
7.36552e-06
1.20509e-05
1.057e-05
-2.16954e-06
-1.15957e-05
3.19521e-06
-2.26317e-05
-1.07946e-05
4.39964e-05
-3.66584e-05
1.18571e-05
1.6363e-05
1.14784e-05
1.59159e-05
3.64237e-06
-4.11299e-05
4.62511e-05
-6.63099e-05
0.000109203
0.000103453
0.000104022
-0.000316678
-3.96808e-06
0.000100963
1.2208e-05
0.000103679
-4.19432e-06
-0.000115259
-9.57729e-05
0.000314712
-0.00010565
-1.38039e-05
8.60622e-06
-1.0234e-05
1.37962e-05
6.55784e-06
-9.1203e-06
-7.23894e-06
9.80141e-06
-1.97767e-05
6.79103e-06
1.95435e-05
3.81062e-06
-3.27077e-05
2.53044e-05
-5.90197e-06
-2.66413e-05
4.94108e-06
3.01647e-05
-1.66893e-05
2.84214e-05
-1.87807e-05
-1.11438e-05
-1.5284e-05
-1.67585e-05
4.31863e-05
-1.12189e-05
-2.65662e-05
-1.1877e-05
-1.46259e-05
2.69106e-05
-1.42842e-05
-3.91926e-05
-3.1201e-05
4.13531e-05
-1.22086e-05
-3.08694e-05
-4.11187e-05
-1.14226e-05
8.21779e-06
1.14616e-05
-8.25685e-06
2.27018e-05
-8.71479e-07
-3.32529e-05
6.27856e-06
2.46411e-05
-2.72219e-05
2.13875e-06
3.65448e-05
-1.34384e-05
2.11735e-05
-3.54834e-05
2.95908e-05
-4.18598e-06
-1.90308e-05
1.14446e-05
1.17722e-05
-1.36311e-05
-5.56415e-06
1.50093e-05
5.04969e-06
-3.77116e-05
2.1572e-05
-9.64437e-06
-1.74918e-05
-5.50438e-06
4.20856e-05
9.92802e-06
-1.45227e-05
1.58683e-05
-1.35268e-05
-2.13562e-06
2.05317e-05
-4.86925e-06
2.03074e-05
-7.75731e-06
2.00067e-05
-1.83496e-06
-3.34566e-05
3.48108e-06
5.05073e-05
-1.38718e-05
-2.44541e-05
-9.58262e-06
-3.67247e-06
1.67362e-05
1.16062e-06
-2.4615e-05
7.93863e-06
-1.45353e-05
2.42729e-05
-4.7932e-08
-4.13264e-06
-1.49156e-06
5.67213e-06
-9.23818e-06
4.4185e-08
8.05229e-06
-2.14231e-05
-1.03389e-05
1.41519e-05
-3.84867e-06
-8.18083e-07
-7.72412e-06
2.19202e-05
-3.52051e-06
1.50268e-05
1.03529e-05
-1.66253e-05
-8.75439e-06
-3.22692e-06
-2.10808e-05
3.93346e-05
-2.93301e-05
3.6456e-05
2.17623e-05
2.40292e-05
-6.24168e-05
4.89352e-05
-3.59273e-05
-3.19312e-05
5.97855e-05
-3.7232e-05
-1.72136e-05
6.54007e-06
1.43698e-05
-3.69624e-06
2.70456e-05
2.17832e-06
-4.64375e-05
1.00712e-05
2.35144e-05
-1.00733e-05
2.15882e-05
2.85489e-06
2.35619e-05
-3.14569e-05
2.08018e-05
-5.81098e-05
4.73793e-05
-3.78745e-05
8.21907e-05
1.27541e-05
-4.7302e-05
-3.53225e-06
-6.95126e-06
-1.29755e-07
9.86629e-06
-2.78527e-06
1.80736e-05
1.92652e-06
-2.69514e-05
-2.55693e-06
2.05008e-05
7.11242e-06
2.81589e-05
-3.33448e-05
4.27727e-05
-2.5794e-05
4.24965e-05
-1.68945e-05
0.00010577
-6.51702e-05
-2.18068e-05
-3.7604e-05
0.000124581
3.91647e-07
-6.26112e-05
-2.95072e-06
-2.19356e-05
5.2045e-07
2.19081e-05
1.04336e-05
-5.42773e-05
2.08325e-05
1.59608e-06
0.000102259
-4.07742e-05
-0.000124096
-5.95623e-05
0.000124217
8.43875e-06
-3.87794e-05
-3.0291e-05
2.08197e-05
2.28908e-05
-7.06619e-05
-7.75959e-06
-1.82136e-05
1.05409e-06
4.77098e-05
-4.36456e-05
-5.11834e-06
2.39922e-05
-2.42008e-05
1.2627e-06
-4.7193e-05
0.000118895
1.07892e-05
6.16692e-06
-4.11569e-05
1.16501e-05
4.0183e-07
-7.93349e-06
-2.76094e-05
-4.54121e-05
2.60678e-05
1.16818e-05
-1.61072e-06
-3.61389e-05
-9.48324e-06
9.4932e-06
2.60578e-05
-9.50257e-06
1.17011e-05
-2.38972e-05
-3.68153e-06
3.7072e-05
8.44156e-06
-3.39495e-05
2.69619e-05
-2.80229e-05
3.49815e-05
5.79541e-05
8.2328e-07
-5.57646e-05
-3.01285e-06
-4.27499e-05
-1.25888e-05
0.000113293
-4.14887e-05
-4.37992e-07
1.64513e-05
-1.52876e-05
-5.69282e-05
-1.60195e-05
1.9882e-05
5.54095e-05
1.32853e-05
-0.000110184
5.78182e-05
-2.8467e-06
-1.62919e-05
5.80906e-05
-1.82942e-05
7.80551e-06
7.72005e-06
-8.64929e-06
-6.87628e-06
-3.30007e-06
-1.25833e-05
2.36888e-05
-2.07663e-05
2.51863e-05
-8.14439e-07
2.00025e-05
-2.78373e-05
1.25223e-05
-2.02131e-05
-1.47199e-05
2.21392e-05
-2.29639e-05
-1.41509e-05
-4.78598e-05
3.30112e-06
5.87096e-05
-1.36509e-05
6.90234e-06
-7.40237e-06
-5.83432e-06
-5.56764e-05
-1.55116e-05
-1.55311e-05
3.79451e-05
-9.41232e-06
-1.35017e-05
2.18322e-05
-3.70788e-05
9.60218e-06
2.20233e-05
1.85136e-05
4.50951e-05
-8.5632e-05
-1.12473e-05
1.00289e-05
2.32417e-05
6.5976e-05
5.87177e-05
-5.45479e-05
5.85905e-06
-5.14203e-05
0.00013338
-6.14393e-06
-6.6935e-05
1.85311e-05
-4.414e-05
-1.34242e-05
-0.000100834
0.000122669
-0.000122673
-2.84595e-05
8.63223e-06
5.80415e-05
-3.82141e-05
4.08908e-05
3.27247e-05
-0.000102075
4.63438e-05
3.17926e-06
-7.3346e-06
2.05049e-05
4.48712e-05
2.24519e-05
2.93812e-06
-5.05403e-05
-2.78594e-05
0.000124743
-6.41659e-05
1.68049e-05
1.24691e-05
-5.41831e-05
5.1146e-06
1.43992e-05
5.86067e-08
-1.62547e-05
1.79693e-06
-1.87635e-05
-7.88448e-06
4.10472e-05
1.94038e-06
-2.06453e-05
-1.10971e-05
-4.73403e-05
5.05529e-05
-5.65599e-05
2.92081e-05
-5.08109e-05
5.41096e-06
-0.000128016
-1.13018e-05
-1.01161e-05
2.42728e-05
-3.35297e-06
-1.5681e-05
7.73217e-06
-1.71653e-05
3.88857e-05
-0.000102489
-8.25218e-06
-7.22955e-05
-2.0671e-05
4.56645e-05
3.05229e-05
-0.000111071
1.75841e-05
3.83246e-05
-5.28443e-05
-4.37938e-05
-3.10251e-05
0.000127663
-7.21287e-06
-8.20874e-05
3.64559e-05
-4.66718e-05
-4.33487e-06
6.37565e-05
3.08566e-05
-0.000141285
7.23354e-05
-1.29138e-05
8.95213e-05
-0.000140752
0.000130832
-3.59486e-05
-3.52608e-05
-2.36863e-05
9.48957e-05
-7.31613e-06
-4.83341e-05
1.97016e-05
-3.7229e-05
-5.34793e-06
5.13092e-05
2.34284e-05
-0.000111967
6.41473e-05
-1.8186e-05
6.3419e-05
-8.83247e-05
0.00010388
7.98457e-06
-1.30812e-05
2.77002e-05
-2.26035e-05
-1.85499e-05
1.88715e-05
7.66291e-06
1.85031e-05
-5.01342e-05
-1.69845e-05
-1.7589e-05
5.34451e-05
-3.0346e-05
2.10244e-05
-5.0699e-06
-1.08894e-05
-1.62976e-06
-1.12939e-05
-2.4122e-05
4.20936e-06
2.99987e-06
2.10201e-05
1.1324e-05
1.36654e-05
1.28782e-05
-3.78676e-05
8.15764e-06
2.56951e-05
-2.25287e-05
1.39831e-05
7.83988e-06
-1.46928e-05
-1.3644e-05
4.23199e-05
-2.79518e-05
2.10988e-05
-2.70559e-05
3.9107e-05
-4.21295e-05
1.26888e-06
2.29822e-07
1.15926e-05
-1.30913e-05
-9.40749e-06
7.18092e-06
3.49545e-06
1.49311e-05
-2.41088e-05
-1.94708e-06
-4.93646e-06
1.40645e-05
-1.89882e-05
2.05366e-05
-8.13154e-07
-4.7866e-06
6.63289e-07
-8.02691e-06
-1.17745e-05
4.96686e-07
6.4075e-06
7.3027e-06
3.97032e-05
2.1638e-06
-3.90795e-05
-2.78752e-06
-3.76373e-05
-4.23785e-05
0.000119719
-4.19675e-05
6.49407e-06
3.30648e-05
4.27987e-05
-0.000114943
3.85953e-05
-8.31795e-06
7.14087e-06
-1.09241e-05
7.97206e-06
1.55647e-06
-3.93891e-05
-1.79024e-06
3.96228e-05
-4.14749e-05
3.85851e-05
4.44628e-06
3.66747e-05
-0.000117539
4.22694e-05
-3.85003e-05
-5.55939e-06
-3.73189e-05
0.000119211
-3.47675e-06
4.74291e-06
-5.30236e-06
8.84271e-06
6.72749e-06
-3.51367e-06
-1.20565e-05
5.44596e-06
-1.66545e-05
2.00513e-05
-1.15864e-05
2.37598e-05
-8.73118e-06
1.09575e-05
-5.73996e-06
1.61521e-05
-3.69398e-05
8.97711e-06
-1.46742e-05
1.35428e-05
1.69374e-05
2.72813e-06
-1.05541e-05
-9.11143e-06
-1.0801e-05
-2.13232e-06
2.98707e-05
-1.25551e-05
4.48228e-06
-9.44151e-06
-1.04163e-05
1.77255e-05
-9.29062e-06
-1.0705e-05
1.99876e-05
-4.18334e-05
1.40535e-05
1.42007e-05
5.03957e-06
-1.38234e-05
-5.41691e-06
-7.47353e-06
-2.04514e-05
4.21257e-05
-1.6114e-05
1.36801e-05
3.47397e-06
2.36393e-05
-4.09366e-05
1.71602e-05
-1.91032e-05
1.03055e-05
-1.35967e-05
1.78307e-05
5.19977e-06
-1.42532e-05
-2.93253e-05
3.83788e-05
-1.8817e-05
-2.34464e-05
4.74632e-05
-1.13132e-05
-2.17571e-05
2.57561e-06
-1.40206e-05
-1.78803e-05
-1.33165e-05
-7.55432e-06
-1.83836e-05
3.54051e-05
-2.83346e-05
2.69043e-05
-6.7045e-05
-4.35542e-06
2.6444e-05
8.52832e-06
2.08347e-05
-7.23803e-06
-4.14419e-05
2.78452e-05
-2.03945e-05
-1.89037e-05
6.0133e-05
-4.85225e-06
-2.27803e-05
-2.98373e-05
4.18303e-05
-1.68452e-05
1.98099e-05
-7.24276e-05
-4.36122e-05
6.65388e-05
-6.52442e-05
-1.50309e-05
-1.08593e-08
6.2794e-07
1.44138e-05
3.29182e-05
2.65708e-05
-7.45199e-05
2.63228e-05
6.58454e-06
7.12556e-06
-7.11067e-06
6.13044e-07
-4.63254e-06
2.61719e-05
6.48227e-06
1.29778e-05
2.81725e-05
5.82047e-06
2.51975e-05
-4.31486e-06
-2.67031e-05
1.65042e-05
-2.43976e-05
1.37139e-05
-2.63282e-05
6.803e-05
-2.33351e-05
2.56047e-05
3.28411e-05
-8.28793e-05
-4.84409e-06
1.32876e-05
-5.56758e-06
2.91236e-06
-9.79388e-06
4.31015e-07
6.4505e-06
-2.56599e-05
1.76842e-05
1.08881e-05
2.17031e-05
-5.71569e-05
3.29108e-06
-4.9266e-06
2.06653e-06
-1.08253e-06
1.08241e-05
-6.0544e-06
2.26561e-05
1.07221e-05
6.60848e-06
1.50559e-05
4.22611e-06
-2.58905e-05
6.96492e-07
6.09793e-06
-1.85944e-07
1.37929e-05
1.95941e-06
4.75379e-06
2.30467e-05
-2.35744e-05
2.284e-05
-1.19883e-05
-2.0524e-05
4.48219e-06
-5.92507e-06
-4.56977e-06
2.1319e-05
6.86352e-06
2.49498e-05
1.96194e-07
-2.44993e-05
7.28687e-07
-1.1978e-05
-6.23678e-05
-4.63572e-07
-1.31106e-05
-1.19009e-05
2.5475e-05
-2.33315e-05
-1.77634e-05
4.06313e-05
-2.3102e-05
-1.33401e-05
1.81484e-05
-3.61202e-05
2.08425e-07
-5.3069e-05
5.93165e-05
-1.28569e-06
-7.48853e-05
-5.0746e-05
8.99737e-06
5.92271e-06
-8.03988e-06
-6.8802e-06
-4.58654e-06
-4.10342e-06
1.76873e-05
-1.27961e-05
1.41322e-05
1.04348e-05
1.86033e-05
-3.70779e-05
2.13711e-05
-1.78166e-05
-8.7835e-06
2.32834e-05
-1.42797e-05
-2.25497e-05
5.45168e-05
4.13649e-05
-1.20511e-05
1.70011e-05
1.55526e-05
-2.05025e-05
3.14904e-05
-2.69316e-06
-4.08483e-05
1.09069e-05
3.75845e-05
-1.86335e-05
1.2478e-05
2.17081e-05
-7.44737e-06
-3.16887e-05
-9.02388e-06
6.94013e-06
1.45617e-05
-4.46618e-06
-1.20051e-05
1.64017e-05
-2.3561e-05
3.42487e-05
-3.55629e-06
-2.35943e-05
-4.12031e-05
-1.08855e-05
2.18909e-05
-2.26665e-05
-1.18133e-05
1.06021e-07
-7.29978e-05
-3.45655e-05
-1.30187e-05
-1.75403e-05
1.87456e-05
9.05493e-06
-4.56347e-05
-4.30509e-05
6.34964e-06
2.35257e-05
-1.67863e-05
-1.30891e-05
1.46646e-05
-1.81386e-05
9.82367e-06
-4.12235e-05
-4.70847e-05
-3.94117e-06
-2.7378e-05
1.45328e-05
-2.53306e-05
3.25079e-06
-2.22673e-06
-6.43273e-05
-7.66894e-05
-1.98127e-06
-1.61239e-05
-9.13712e-06
2.72422e-05
-1.41161e-05
2.31377e-05
-1.10029e-05
4.37056e-06
-3.46105e-05
6.68494e-05
-3.08545e-05
-4.5132e-05
9.85406e-06
8.42376e-05
1.49818e-05
-4.61163e-06
-4.12247e-05
-5.43572e-06
3.02716e-05
-7.63413e-06
2.53361e-05
-7.87519e-06
-2.85089e-05
-4.84714e-06
2.42918e-05
9.06423e-06
2.57458e-05
1.54435e-05
-6.96982e-05
-1.01576e-05
3.10563e-05
5.16699e-05
-2.62896e-05
-3.5538e-05
-1.73638e-05
0.00010009
1.83047e-05
-2.91508e-05
2.52327e-05
2.96947e-05
1.0679e-05
-2.88232e-05
-1.15504e-05
-3.77611e-05
-2.76714e-05
9.51271e-05
-6.26201e-05
3.01428e-05
2.74063e-05
-8.63723e-05
5.44385e-05
-3.58462e-05
-6.39602e-05
9.07274e-05
-9.91739e-05
2.69929e-05
4.25891e-05
4.89316e-06
-7.44751e-05
5.7926e-06
-8.69953e-06
2.98998e-05
3.78104e-05
1.05713e-05
5.28183e-05
-3.18211e-05
-2.96967e-05
-5.02077e-06
8.77388e-05
-6.05025e-05
9.32922e-05
-8.74305e-05
-1.11754e-05
-7.86098e-06
1.58375e-05
3.19881e-06
-5.64707e-06
-2.00636e-05
-3.8123e-05
-2.37132e-05
5.62868e-05
3.75851e-06
-3.65789e-05
-1.6071e-05
2.28118e-06
5.03687e-05
1.08265e-05
-1.66364e-05
-3.0769e-05
-1.48075e-05
9.56303e-06
2.94749e-05
-1.22067e-05
-3.20756e-05
6.41685e-08
3.89737e-05
2.82462e-05
-5.70893e-05
3.05915e-05
-6.215e-05
-2.13664e-05
1.86978e-05
6.48186e-05
2.78799e-05
-2.5475e-06
-8.74824e-05
2.23387e-05
-1.58252e-05
-5.8257e-05
-3.29638e-06
8.38921e-05
-5.46101e-05
-1.94721e-05
7.31959e-05
-0.000130354
8.85973e-05
3.01888e-06
1.21355e-05
4.73938e-05
-6.25482e-05
-5.43387e-06
1.58128e-05
-7.36002e-06
1.4117e-06
5.28995e-06
1.22876e-05
-1.18059e-05
9.30031e-07
2.23465e-05
-4.76903e-06
-7.25753e-06
4.54168e-05
2.83303e-05
2.27854e-07
1.02776e-05
-9.94972e-06
-5.55725e-07
9.36828e-06
-1.04344e-05
1.29393e-06
4.98302e-07
1.91476e-05
1.02827e-05
2.0003e-05
-4.07201e-05
7.4804e-06
4.09625e-06
3.84693e-06
4.13177e-06
1.39002e-05
1.08963e-06
-5.59222e-06
1.56354e-06
2.93906e-06
-7.75135e-06
3.80412e-06
5.03685e-06
-5.86117e-06
-7.48241e-06
-1.30416e-06
5.12342e-06
-2.25572e-06
-2.29455e-06
3.92944e-06
-8.19754e-07
6.35464e-07
5.3077e-06
-4.38824e-07
-2.67549e-06
-7.74718e-07
4.14001e-06
-6.00043e-06
9.43502e-06
-9.07806e-06
7.85373e-06
-8.21069e-06
-1.26424e-05
-6.12859e-06
2.8206e-05
-1.21994e-05
-9.52105e-06
-8.80041e-06
-1.91652e-05
2.1837e-05
8.01165e-07
-1.74787e-06
-3.85799e-06
-2.75067e-05
-1.25779e-05
-2.35128e-05
-9.32992e-06
6.26718e-06
2.65756e-05
1.01625e-05
-4.11836e-06
-2.9557e-05
1.01179e-05
-9.28534e-06
-2.22342e-05
4.29113e-06
2.8061e-05
-4.65885e-06
-2.68607e-05
1.80839e-05
-2.68611e-05
2.86422e-05
1.50298e-05
1.06884e-05
8.05352e-06
-3.37717e-05
7.50835e-06
2.03909e-05
-1.28694e-05
7.79865e-06
1.03981e-05
2.18202e-05
1.82683e-05
-3.20349e-05
1.21432e-05
3.00678e-05
8.5679e-06
1.7499e-05
3.11092e-05
1.01586e-05
1.36848e-05
2.73821e-05
-5.12255e-05
5.34454e-06
1.9209e-05
-1.43949e-05
8.96159e-06
1.00678e-05
6.03907e-06
-2.19602e-05
2.48828e-05
-1.66659e-05
3.27728e-05
-1.18918e-05
2.26081e-05
-1.46429e-05
3.86554e-05
-5.27546e-08
-3.54252e-05
-3.17738e-06
-3.52413e-05
-3.41268e-05
0.000108023
-3.53087e-05
1.46764e-08
3.7637e-06
-3.67809e-05
-2.40807e-06
-3.64256e-05
6.06253e-06
3.9757e-05
-0.000111847
3.34611e-06
-6.21667e-05
-1.84682e-06
6.01818e-05
3.83176e-06
2.33075e-05
2.64473e-05
-0.000111922
-1.59884e-06
2.30595e-05
4.88884e-05
-4.85625e-05
-1.92475e-06
-3.35935e-05
0.000105541
8.34389e-05
4.83238e-05
-0.000105315
3.4755e-05
0.000108866
-5.83269e-07
3.44506e-07
5.78229e-07
-6.46188e-05
-4.3316e-05
-1.35797e-05
0.000121515
2.99602e-07
-6.68431e-05
-4.42698e-05
1.25339e-06
1.49551e-05
-7.17698e-06
-5.20479e-05
1.57368e-05
4.71722e-07
1.71319e-05
2.34951e-05
-4.78039e-05
5.16495e-05
-1.87809e-05
7.84346e-05
-0.000121783
0.000116504
-5.42491e-05
-8.1688e-07
5.22694e-05
2.79658e-06
2.1617e-05
4.4128e-05
-0.000119994
-4.35776e-07
2.12359e-05
3.06395e-05
-2.98845e-05
-1.19079e-06
-1.01791e-05
6.20545e-05
-8.39374e-08
5.36421e-05
-1.28872e-06
4.31565e-05
8.87543e-07
-5.54524e-05
9.89153e-05
-4.21804e-05
-1.87869e-05
-3.69124e-05
0.000117754
-2.01437e-05
1.65973e-07
1.92755e-05
8.87333e-06
-4.82925e-05
1.94321e-05
9.37705e-09
1.50194e-05
-4.83264e-05
5.98424e-05
-2.5391e-05
0.000121845
-4.45496e-05
-5.42901e-07
4.11679e-05
3.92455e-06
3.51126e-05
4.45548e-05
6.30998e-07
3.39387e-05
4.38907e-05
1.29515e-06
-4.32836e-05
0.000121113
-8.20561e-07
2.4049e-05
3.03243e-05
6.70678e-06
-6.10801e-05
-1.62939e-06
2.45344e-05
1.14407e-06
-3.35016e-05
1.92566e-05
-8.10722e-05
5.5707e-05
3.81472e-05
2.81788e-05
-0.000122033
5.18748e-06
6.90505e-05
3.79696e-06
3.95377e-05
8.70782e-05
6.58441e-05
2.4143e-05
0.000131986
6.08889e-05
8.75211e-06
0.00012457
3.9156e-05
1.86589e-05
4.09584e-05
-6.58345e-07
-6.38807e-05
-5.57869e-05
-0.0001182
-2.48135e-05
-2.39407e-06
3.97995e-05
-8.0067e-06
-2.37892e-05
-3.0511e-05
-6.83732e-05
-1.92845e-05
-4.00892e-05
3.55845e-05
-2.4229e-05
-2.55665e-05
2.1267e-05
-3.94567e-05
-5.01835e-05
-5.70363e-05
-1.62483e-05
-6.5017e-05
-8.12715e-05
-6.73706e-05
-2.40543e-06
1.5593e-05
3.88681e-05
-0.000103301
-8.45714e-07
3.73084e-05
7.96099e-05
-2.22933e-05
2.01342e-05
4.95384e-05
2.6475e-05
3.68806e-05
-8.5649e-05
1.85886e-05
2.80206e-05
1.45419e-05
-3.45915e-05
3.86383e-05
-6.07381e-05
3.05969e-05
-5.44544e-05
4.55438e-05
5.5952e-06
2.54098e-05
3.60315e-05
2.01166e-05
6.74255e-05
8.38378e-07
-7.13151e-05
3.05119e-06
-3.79205e-05
-4.20125e-05
0.000147359
1.93646e-06
-3.90186e-05
-3.63123e-05
3.54283e-05
2.8205e-06
5.36769e-06
-8.06986e-05
-5.91752e-05
5.25909e-05
-0.000125123
-1.57725e-05
-4.53874e-05
8.25857e-06
5.29013e-05
2.02638e-06
-1.82699e-05
4.71069e-07
-4.83355e-05
4.97451e-06
-2.13838e-05
-2.72363e-05
5.68786e-05
-6.48968e-05
2.52431e-05
8.09862e-05
1.6011e-05
-0.000145333
7.61085e-05
9.85224e-06
9.27857e-05
-0.000141671
0.000141658
-2.37321e-05
-5.13827e-05
1.982e-06
7.47792e-06
1.73927e-05
2.6153e-06
-1.78817e-05
-2.12637e-06
-3.95253e-05
-1.49085e-06
5.84089e-05
1.32359e-06
-3.82335e-05
1.70631e-05
-6.39963e-05
2.90516e-05
-4.43796e-05
5.99518e-05
-3.64447e-05
3.67904e-05
9.77935e-07
1.71834e-06
-7.63966e-05
5.5711e-05
-0.000117989
4.81218e-05
-2.26255e-05
-2.17748e-05
-9.71168e-06
5.4112e-05
-1.35699e-06
-2.09536e-05
-3.14955e-07
-2.03113e-05
1.80413e-05
-6.84956e-05
2.95007e-05
6.09206e-05
4.48698e-05
-0.00014588
-0.000148748
-2.92983e-05
-5.82611e-05
-1.12558e-07
2.54691e-06
1.44848e-05
-3.75642e-07
-1.43272e-05
2.18037e-07
-3.30312e-05
-9.95178e-06
5.74678e-05
-1.34041e-06
-3.20664e-05
1.00281e-05
-5.16783e-05
2.73229e-05
-5.67567e-05
5.68331e-05
-5.53346e-05
-2.76249e-06
-0.000139079
-6.97198e-05
-3.08106e-05
-4.8218e-05
9.00897e-08
-7.06281e-05
8.18273e-07
-2.97426e-05
3.65647e-05
-0.000142704
6.88421e-05
-0.000150266
6.90059e-07
-2.47612e-06
5.93776e-07
5.43347e-05
8.27821e-05
2.63559e-05
-0.000163473
2.58696e-06
-1.20205e-06
5.29498e-05
7.79011e-05
7.46788e-06
8.03864e-05
-8.07702e-05
-2.48678e-05
0.000158204
-0.00010839
0.000161423
-0.000162804
-8.16194e-05
-5.6406e-05
-2.65666e-05
0.000164592
-4.95286e-07
-7.81291e-05
-2.99496e-06
-5.67749e-05
-1.26438e-07
8.4677e-05
2.74544e-05
-0.000168906
8.33006e-05
1.24995e-06
0.000109516
-0.00016019
0.00016625
1.78713e-05
-8.44778e-06
-2.66636e-05
1.72401e-05
-1.56223e-05
-1.42805e-05
4.77741e-05
-1.56881e-05
-8.38194e-06
3.62649e-05
-1.31724e-05
-4.97561e-05
-3.20212e-05
5.40057e-05
2.05645e-05
-4.94249e-05
-1.98387e-05
5.60146e-06
7.81835e-06
3.05253e-06
-1.64723e-05
1.72734e-06
-1.67181e-06
5.54596e-06
6.33879e-06
3.20694e-06
6.01947e-06
-1.46211e-05
6.9298e-06
-5.2745e-06
1.684e-05
-1.22096e-05
1.3274e-05
-2.37781e-05
-9.49287e-06
-6.16291e-06
1.93874e-06
1.3717e-05
5.19309e-06
4.76365e-07
-1.51623e-05
5.33941e-06
-6.30921e-06
1.09243e-05
6.64554e-06
-1.70935e-05
-3.22277e-06
1.60859e-05
-1.59705e-05
1.80871e-05
-1.56341e-05
6.67268e-06
3.65181e-06
8.12598e-06
-1.84505e-05
-9.97898e-07
-1.30626e-06
8.97684e-06
1.11247e-05
-8.47083e-06
1.6648e-05
-1.18296e-05
-6.12474e-06
2.61683e-07
2.53632e-05
3.76192e-06
-3.77395e-06
-1.18175e-05
-3.44261e-06
7.46622e-06
-2.02045e-06
9.7026e-06
2.33159e-06
2.79899e-05
7.31292e-06
-2.09079e-05
-1.43949e-05
-1.08209e-05
3.35716e-06
3.54536e-05
7.99175e-06
-1.14997e-05
-1.92544e-05
8.79575e-06
-5.24869e-06
-2.55054e-05
-5.98463e-06
2.14452e-06
1.26359e-05
3.52353e-06
-1.47568e-05
-7.21135e-06
1.2713e-05
-2.45957e-05
2.36718e-05
-3.86327e-06
-2.69534e-05
7.14484e-06
-2.59647e-05
-3.30776e-05
8.27141e-05
-2.23426e-05
-7.48534e-06
-7.36105e-06
-2.84981e-05
8.90573e-06
-2.45237e-05
-1.5915e-05
9.60007e-06
-6.04407e-05
-2.24089e-05
-5.75949e-06
1.74865e-06
-2.32231e-05
2.7234e-05
1.59949e-05
-1.79092e-05
-3.84521e-06
-3.4784e-05
5.25275e-05
1.73421e-05
3.04089e-05
-6.56602e-05
2.74932e-05
-1.39963e-05
2.48047e-05
3.19905e-05
2.74515e-05
3.44631e-06
7.15151e-07
-3.1613e-05
-6.24974e-06
1.246e-05
2.12413e-05
-2.36304e-06
-4.40394e-07
1.94222e-05
-9.04596e-07
-1.78024e-05
-4.83946e-07
3.23661e-05
2.09932e-06
-4.94631e-06
7.54332e-07
2.8914e-06
1.21361e-05
-3.38684e-05
1.29798e-05
-3.00804e-05
1.77266e-05
7.38933e-06
-2.85593e-05
2.49979e-06
7.9352e-06
3.48774e-06
-8.63309e-06
-2.78984e-06
-9.3429e-06
-1.48178e-05
3.20959e-05
-2.28634e-05
1.70083e-05
6.18411e-06
2.63406e-06
-1.74513e-05
9.30165e-06
-5.90739e-06
-1.42239e-05
8.70779e-06
-3.44533e-05
-9.83989e-06
-2.00608e-06
-1.61694e-05
2.80154e-05
1.01063e-05
-9.0562e-06
-1.089e-05
-2.56587e-05
3.37589e-05
-1.28859e-05
3.13096e-05
-2.74799e-05
1.56219e-05
-3.93978e-05
2.28973e-05
-3.29341e-05
3.80375e-05
-3.30471e-05
1.86489e-06
3.90056e-05
-7.82335e-06
3.47972e-05
4.3911e-05
-0.000111755
3.3425e-05
3.23708e-06
-5.9687e-06
3.86922e-05
1.11876e-05
4.03394e-05
-7.30253e-06
-3.10379e-05
0.000104802
1.08913e-05
-2.43816e-05
9.69371e-07
-1.66216e-06
2.50744e-05
4.81777e-05
4.75451e-05
-0.000120104
4.56257e-05
3.52135e-06
1.383e-05
-1.50345e-05
-4.57673e-07
-7.80864e-06
4.6713e-05
9.31321e-06
2.31974e-05
4.71303e-05
3.26885e-06
3.76636e-05
-3.8552e-05
-2.38051e-06
3.22873e-05
-3.82835e-05
9.26512e-06
-3.9275e-05
0.000109226
3.69079e-05
4.1162e-05
-0.000116622
3.80487e-05
-3.49439e-06
6.37286e-06
-4.72069e-06
-1.6377e-05
-4.42801e-05
-3.57026e-05
9.63596e-05
1.41587e-06
-4.4127e-07
-1.73516e-05
-4.7647e-05
4.78278e-06
-2.50628e-05
2.53459e-05
-7.24318e-07
1.28328e-05
-5.52472e-05
3.78852e-05
-7.26994e-05
4.26089e-05
2.06222e-05
1.16891e-05
3.62019e-05
2.04133e-05
-0.000111862
3.36248e-05
1.85274e-06
-4.55197e-05
9.97667e-05
-5.69398e-05
1.32728e-05
3.36835e-05
2.20567e-06
2.26917e-06
-3.81583e-05
-2.01856e-05
-2.06509e-05
3.68151e-06
-2.16614e-05
-5.78087e-05
4.29e-05
1.85903e-05
1.7005e-05
-9.64751e-05
-2.59318e-05
7.55006e-06
7.52063e-05
9.21745e-05
-1.02133e-06
2.36263e-05
1.25695e-05
8.64825e-06
-2.97675e-06
2.11498e-05
-2.68213e-05
-1.50317e-05
1.45145e-05
9.16538e-06
3.02359e-05
-4.82443e-05
-2.31713e-07
-2.89316e-05
4.36778e-05
-1.92281e-05
2.81617e-05
-1.86251e-05
2.9633e-05
-2.64069e-05
-9.30542e-06
-1.47878e-05
-1.67551e-05
-5.60804e-06
-1.55318e-05
1.18344e-05
-8.19858e-06
-1.21972e-05
4.82393e-06
1.52353e-05
-2.82578e-05
2.82319e-05
-3.56052e-05
-1.77951e-05
3.04952e-05
-1.9315e-05
-1.32885e-06
1.27171e-05
2.3679e-07
-1.16251e-05
1.66377e-05
-1.23746e-05
-5.59191e-06
-2.1628e-05
5.09829e-05
-1.90847e-05
9.4424e-06
9.87908e-06
-1.91271e-06
-2.87971e-05
7.5921e-06
-2.18794e-05
-4.59354e-06
1.43513e-05
-1.29075e-05
-4.88228e-05
-5.84796e-05
-4.07766e-06
-1.57229e-05
1.52943e-05
4.5063e-06
-1.53331e-05
2.18104e-05
-1.0555e-05
8.15458e-06
-3.92106e-05
-4.39395e-05
-5.93394e-06
7.16839e-05
-1.4168e-05
-4.03265e-05
1.08593e-05
-1.68728e-05
2.02197e-05
2.57325e-05
2.00603e-05
-2.32889e-05
-2.25039e-05
1.08458e-05
-6.18027e-05
-5.35643e-05
-5.13858e-05
-1.03503e-05
-7.47413e-05
-2.02106e-05
-5.58575e-05
-8.19467e-05
4.98233e-05
5.90331e-05
-2.80871e-05
-8.07693e-05
-1.7134e-05
-4.45432e-05
-2.04538e-05
-1.39584e-05
1.02197e-05
-2.3613e-05
-3.11498e-05
-2.41925e-05
-7.58926e-05
3.7956e-07
2.48113e-05
-1.12846e-05
-1.39062e-05
3.15219e-05
-1.61228e-05
-1.50194e-05
-4.4787e-05
-3.49797e-05
-7.0585e-06
-8.06883e-06
3.8427e-06
-7.46389e-06
-1.57175e-05
2.07135e-05
-7.29643e-05
-2.2335e-05
-9.73619e-06
-1.37767e-05
-4.92133e-06
2.84342e-05
-2.62396e-06
-1.7277e-05
1.01647e-05
-1.52997e-05
-1.10097e-06
-1.88693e-05
-2.97044e-05
4.36524e-05
-2.76603e-05
-8.48594e-06
2.22958e-05
-6.52558e-05
-8.50959e-06
-6.08456e-05
-7.59804e-06
3.08861e-05
3.75575e-05
1.72961e-05
1.07018e-05
-8.88435e-05
-5.84658e-06
1.55446e-05
4.73231e-05
-3.05413e-05
-2.26284e-05
-5.84243e-06
6.87102e-05
-2.67024e-05
2.20253e-05
3.55632e-05
1.56609e-05
-3.16615e-05
5.92923e-05
-7.41728e-05
7.54752e-05
1.30236e-05
-3.64241e-06
2.71723e-05
-3.65535e-05
-2.48384e-05
2.50974e-05
1.27646e-05
3.90284e-05
-6.75093e-05
-5.20527e-06
-3.9074e-05
6.93767e-05
-2.82869e-05
-2.29245e-05
3.36661e-05
-3.48263e-05
9.3694e-06
2.50069e-05
-4.7855e-06
1.32362e-05
-1.39386e-05
1.00718e-05
2.5212e-06
3.5722e-05
3.10054e-05
-9.92488e-06
6.51384e-06
3.45633e-05
2.18344e-05
1.5785e-06
-2.09366e-05
1.78756e-05
1.48254e-06
-3.61367e-05
1.61257e-06
-8.25098e-05
-2.66623e-05
6.19406e-05
1.76075e-05
-2.51062e-05
3.80807e-06
3.89057e-05
2.26623e-05
1.60579e-05
-6.38264e-05
1.86073e-06
2.46097e-05
3.12196e-05
-3.62811e-05
6.92229e-06
-1.53139e-05
7.11431e-05
4.77575e-05
-6.79808e-05
-4.83764e-06
8.5175e-06
1.6253e-05
-1.99329e-05
1.70281e-05
-2.09357e-05
7.9729e-06
1.75727e-05
-5.83868e-05
1.73079e-05
5.73319e-05
-2.68918e-05
-5.14279e-05
-1.75253e-05
1.53424e-06
3.3299e-05
4.60487e-06
-4.9022e-05
8.25956e-06
-2.45904e-05
1.77667e-05
6.78513e-07
-6.73093e-06
-1.24811e-05
1.85335e-05
-8.71094e-06