/*--------------------------------*- C++ -*----------------------------------*\
| =========                 |                                                 |
| \\      /  F ield         | OpenFOAM: The Open Source CFD Toolbox           |
|  \\    /   O peration     | Version:  v2012                                 |
|   \\  /    A nd           | Website:  www.openfoam.com                      |
|    \\/     M anipulation  |                                                 |
\*---------------------------------------------------------------------------*/
FoamFile
{
    version     2.0;
    format      ascii;
    class       volVectorField;
    location    "0.5";
    object      U;
}
// * * * * * * * * * * * * * * * * * * * * * * * * * * * * * * * * * * * * * //

dimensions      [0 1 -1 0 0 0 0];


internalField   nonuniform List<vector> 
6576
(
(0.0328682 -1.48201 -0.0636775)
(-0.0900301 -1.53327 0.0758697)
(-0.0316647 -1.56652 0.0123019)
(0.0429451 -1.45207 -0.0602856)
(-0.00415272 -1.50652 0.00533994)
(-0.0774265 -1.59587 0.0770476)
(-0.0161362 -1.54603 0.0310416)
(0.0145914 -1.49743 0.00121008)
(0.016415 -1.2479 -0.0101665)
(0.0165631 -1.45909 -0.000181183)
(-0.0114434 -1.51441 -0.0163969)
(-0.0165392 -1.55602 -0.012204)
(-0.00210705 -1.55032 0.00507486)
(0.00697567 -1.48777 -0.000851444)
(0.058769 -1.45477 0.0227097)
(0.00872932 -1.8219 -0.0332092)
(0.0643027 -0.859394 0.0336671)
(0.0164431 -1.71815 -0.0169324)
(0.0540565 -1.56032 0.0616369)
(0.0166717 -1.48032 0.00283587)
(0.0466543 -1.37507 0.048164)
(0.0018647 -1.52478 0.0130785)
(0.00991298 -1.46652 0.00780752)
(-0.00486374 -1.49994 -0.0124344)
(0.00196911 -1.60008 0.0158557)
(0.0521118 -1.5291 0.0540098)
(0.0622287 -1.49407 0.0641798)
(9.91655e-05 -1.45741 0.0141302)
(-0.00583875 -1.58052 -0.0314128)
(0.00439719 -0.962432 -0.00776005)
(-0.0517392 -1.57396 0.0608967)
(-0.0268039 -1.45586 -0.00946512)
(-0.0109272 -1.55468 -0.000355745)
(0.0115802 -1.45668 0.0306993)
(0.0158659 -1.46617 0.0343506)
(-0.0187525 -1.25575 0.0100156)
(0.00239564 -1.64014 0.0122655)
(-0.0135225 -1.56776 0.0103976)
(0.0176374 -1.47995 0.0243607)
(0.010171 -1.47668 0.0180464)
(0.00206977 -1.31375 0.0311257)
(-0.0167234 -1.4764 0.00621606)
(-0.00119337 -1.40655 0.00558597)
(0.870829 2.16716 0.993834)
(0.479099 2.0314 0.260741)
(-0.258616 1.20627 -0.316625)
(0.000233892 1.94882 0.840838)
(0.391299 1.92378 1.2362)
(-0.170528 0.954005 0.258381)
(-0.66047 1.48327 -0.013948)
(-0.463313 1.73272 0.220996)
(0.240495 1.54359 0.771089)
(0.0243082 1.99773 -1.32148)
(0.151803 2.20392 -0.965242)
(0.105814 1.92438 -1.06607)
(0.165617 2.04452 -1.1373)
(0.105885 2.00793 -1.56671)
(0.167149 1.71264 -1.20092)
(0.14836 1.78616 -0.719849)
(-0.0320012 2.2625 -0.730358)
(0.0303805 2.19561 -0.725084)
(-0.0209577 2.43822 -0.808029)
(-0.0150306 2.27062 -0.775648)
(-0.0167355 2.33788 -0.762428)
(-0.0156022 2.2316 -0.717471)
(0.0162623 2.21425 -0.723308)
(-0.00099032 2.14334 -0.90869)
(0.00387644 2.07993 -0.874268)
(0.00347187 2.24838 -0.932036)
(0.0325715 1.94883 -0.794897)
(-0.0310362 2.09122 -0.796144)
(-0.00661347 2.10509 -0.811226)
(-0.0656977 2.17849 -0.763481)
(0.0433989 1.16417 -0.0274702)
(0.0127192 1.05654 0.116266)
(0.028845 1.01732 0.273202)
(0.0465025 1.32206 0.102056)
(0.0153798 1.31188 -0.044734)
(0.00531901 0.973242 0.0040289)
(-0.0132516 1.15846 0.13787)
(0.00803165 0.509415 0.480784)
(-0.116476 0.655843 0.375551)
(-0.223265 0.739059 0.269695)
(0.277258 0.467477 0.116438)
(0.215255 0.609936 0.0826002)
(0.10007 0.6864 0.200532)
(0.0153614 0.657969 0.150156)
(-0.130964 0.260098 -0.346509)
(0.166342 0.213968 -0.671076)
(0.089784 0.070393 -0.380731)
(-0.118943 0.314642 -0.0929888)
(-0.317185 0.0776096 -0.270427)
(-0.369484 0.297896 -0.399039)
(-0.533091 0.214457 -0.350416)
(-0.0555081 -0.219239 0.969297)
(0.066255 -0.278582 0.555749)
(-0.0764386 -0.0702639 1.08704)
(-0.0302608 -0.435631 0.381688)
(-0.0266982 0.0927099 0.5602)
(-0.0289601 -0.0647931 0.879754)
(-0.0364855 -0.399266 0.776532)
(0.00312918 0.000448589 2.21228)
(0.0248706 -0.0172783 2.13845)
(-0.00931388 -0.0541218 2.04541)
(0.00617681 0.00621096 2.13083)
(-0.0590663 -0.0174364 2.15279)
(0.00267307 -0.017257 2.08369)
(-0.0586135 -0.0548271 2.07862)
(0.0794103 0.207566 1.59428)
(0.0209892 0.483791 0.865615)
(0.0836513 -0.117306 0.808567)
(0.0220022 0.602839 1.64222)
(0.443455 0.103306 0.744795)
(0.163777 0.343377 0.549747)
(0.131338 -1.7838 -0.377252)
(0.0366027 -1.95405 -0.0177447)
(0.146043 -1.81306 -0.250026)
(-0.0745065 -2.12926 0.079954)
(0.000689984 -1.99215 0.18977)
(0.114605 -1.8563 -0.178688)
(0.0404676 -1.97256 -0.39663)
(0.040289 -1.48668 0.0680291)
(0.0730103 -1.58337 0.101685)
(-0.0161159 -1.45067 0.0270641)
(-0.0193349 -1.50774 -0.0316924)
(-0.0127217 -1.39468 0.0101214)
(0.1291 -1.68067 0.132987)
(0.187343 -1.48548 0.0978482)
(0.0220476 -6.08337 -0.0341346)
(0.00649736 -5.95478 -0.0375006)
(0.0109327 -5.92155 -0.0240363)
(0.0272336 -5.88098 -0.081375)
(0.0421853 -6.03666 -0.0917764)
(0.00355612 -5.56662 -0.0631019)
(0.00908245 -5.88257 -0.0561786)
(0.0030282 -0.378788 -0.408298)
(-0.0115256 -0.243522 -0.415756)
(-0.0122894 -0.334094 -0.36017)
(0.0576271 -0.485734 -0.447605)
(0.0183273 -0.417666 -0.467194)
(0.00391432 -0.345011 -0.435864)
(0.0341524 -0.444403 -0.377111)
(0.039186 -0.670757 -0.486221)
(0.00257772 -0.712573 -0.396128)
(-0.0325304 -0.626097 -0.442571)
(0.146424 -0.933466 -0.608959)
(0.0866773 -0.842204 -0.52315)
(0.0799822 -0.759278 -0.484528)
(0.163632 -0.861485 -0.543641)
(0.0639897 -0.25974 -0.0378341)
(-0.0102375 -0.498969 -0.0195327)
(0.105585 -0.152492 -0.0345114)
(-0.00811533 -0.632227 -0.371105)
(-0.0978691 -0.501537 -0.345946)
(-0.0300552 -0.309149 -0.226694)
(0.212149 -0.553982 -0.47832)
(0.17216 -1.053 0.271403)
(0.220533 -0.853342 0.440941)
(-0.0459136 -1.67662 -0.214659)
(0.184634 -0.886469 0.328952)
(0.00545121 -0.497409 0.590819)
(0.00784165 -0.331674 0.509523)
(-0.108119 -0.955312 0.307084)
(0.163132 -0.306687 0.764156)
(0.138878 -0.642608 0.65034)
(-0.111715 0.0468229 0.59204)
(-0.0122814 0.376981 0.263791)
(-0.0991685 0.205652 0.661804)
(0.435639 -0.90137 0.349093)
(0.591381 -0.663129 0.0246865)
(0.408139 -0.12666 -0.219356)
(0.283698 -0.614915 0.297126)
(0.242973 0.0639153 0.92579)
(0.1118 0.308778 1.11939)
(-0.0550451 -0.0660902 0.231173)
(0.289894 -0.0650479 1.25114)
(-0.0127992 0.226575 1.34302)
(-0.047468 0.622027 1.09976)
(-0.0849937 1.17312 0.99712)
(-0.354197 0.399836 1.62553)
(0.163803 0.190727 1.24464)
(0.0478993 1.08067 0.0236534)
(0.0428826 1.02815 -0.10832)
(-0.0256862 1.27534 -0.282207)
(-0.005131 1.37536 -0.0958146)
(-0.0377579 1.27828 -0.223788)
(-0.0473951 1.47341 -0.578465)
(-0.0735799 1.61231 -0.598379)
(0.105229 1.61571 -0.300444)
(0.028658 1.50334 -0.491621)
(-0.0417192 0.907122 0.303498)
(0.000383096 0.511142 0.471516)
(-0.0904925 0.550661 0.432228)
(-0.0364138 0.820795 0.421433)
(-0.0335971 0.962388 0.17941)
(-0.154804 0.925403 0.667946)
(-0.198247 1.30081 0.636198)
(0.0277975 0.479089 -0.306864)
(-0.310491 0.965112 -0.0160942)
(-0.114121 0.770669 -0.28606)
(0.0717671 1.11593 -0.302458)
(-0.0597281 1.33092 -0.0346511)
(-0.312971 1.54973 0.135441)
(-0.0440524 1.21011 -0.183647)
(0.0133062 0.529167 0.23957)
(0.182656 1.08109 0.0111942)
(0.144574 1.1516 -0.194306)
(0.0199981 0.701657 -0.155679)
(0.0525523 0.473478 0.144443)
(0.231235 1.16118 0.109485)
(-0.041069 1.21483 -0.223883)
(-0.049367 -5.88868 -0.17342)
(0.00439267 -5.76102 -0.189143)
(0.0144308 -5.73174 -0.246771)
(-0.0239244 -5.98256 -0.291814)
(-0.0857551 -6.13165 -0.323163)
(-0.115868 -6.15213 -0.239494)
(-0.0213172 -5.75826 -0.219686)
(-0.0136529 0.493687 0.447773)
(0.070523 0.448419 0.558566)
(-0.0377918 0.278645 0.606581)
(-0.150492 0.494503 0.697302)
(-0.0769727 0.548185 0.547095)
(-0.0794584 0.464003 0.636473)
(-0.157105 0.349637 0.731084)
(-0.0410851 0.609251 0.821325)
(-0.0731311 0.529258 0.751932)
(0.0330805 0.653955 0.84372)
(-0.014835 0.425821 0.729932)
(-0.00320526 0.521444 0.793354)
(0.040011 0.560803 0.808058)
(0.0338845 0.456169 0.731192)
(0.0165722 0.592275 0.514609)
(0.0512664 0.611785 0.344494)
(0.0449427 0.554139 0.474859)
(-0.0263157 0.662641 0.496583)
(0.00200247 0.772381 0.431699)
(0.0699985 0.645534 0.229248)
(0.0590186 0.602145 0.38721)
(0.00348658 0.76448 0.204963)
(-0.00405935 0.846469 0.304928)
(-0.0132922 0.714618 0.254117)
(-0.00823795 0.676196 0.343282)
(-0.0285381 0.790561 0.355907)
(0.0388993 0.684288 0.246221)
(0.00358688 0.776933 0.287627)
(0.00894346 1.0184 -0.125334)
(-0.0944353 0.568047 0.277669)
(0.0367549 0.76769 0.0266277)
(0.0201808 0.964048 0.218881)
(-0.00788171 0.754604 0.480908)
(-0.0405799 0.867353 0.331722)
(0.0200935 0.658234 0.662517)
(-0.282217 0.397399 0.716839)
(-0.111284 0.678353 0.248792)
(0.0280689 0.222484 -0.164262)
(0.041767 -0.202276 -0.178957)
(-0.0651375 -0.0891643 -0.372601)
(0.0901883 -0.712478 0.177228)
(-0.300414 -0.301921 -0.37723)
(-0.140105 -0.383506 -0.0180978)
(-0.174776 -0.250877 -0.55078)
(-0.0392302 0.868536 -0.427948)
(-0.0738184 0.667401 -0.644279)
(0.0603647 0.40464 -0.684801)
(-0.0980628 1.11583 -0.801806)
(0.00702055 1.6063 -0.666029)
(0.0404514 1.22845 -0.806117)
(0.0519768 0.647708 -0.930017)
(0.186838 0.0239549 -1.92682)
(-0.307989 0.214745 -2.30904)
(-0.0865335 0.544284 -1.72009)
(0.196425 0.07792 -1.92973)
(-0.098922 0.389605 -2.14091)
(0.113934 0.839623 -1.61223)
(0.202794 0.754125 -1.67848)
(0.0280717 0.722808 -2.0072)
(0.171538 0.414815 -1.70732)
(-0.146293 1.60923 0.217931)
(0.0944925 1.09737 -0.152753)
(0.0493396 1.61835 -0.0284064)
(0.254488 1.27572 0.0500369)
(0.309812 2.11825 0.181031)
(-0.0142626 1.50329 -0.293552)
(0.136647 1.92607 -0.0238863)
(0.00847916 2.34071 -0.025921)
(-0.00354717 2.3319 -0.0725845)
(-0.00857998 2.30495 -0.0131001)
(-0.0532716 2.24995 -0.177398)
(-0.00538514 2.2757 -0.118032)
(-0.0376149 2.30859 -0.0881952)
(-0.0214056 2.34033 -0.0433708)
(-0.0441198 2.33246 -0.0596889)
(-0.00453657 2.35784 0.00814918)
(0.053339 1.39243 -0.307667)
(0.388132 1.82268 -0.140206)
(0.180673 1.38559 -0.113348)
(-0.0171324 2.05848 -0.088585)
(-0.0686263 1.77792 -0.00720805)
(-0.09053 2.23761 -0.114625)
(0.0863021 1.922 -0.0121825)
(0.00977771 2.02176 0.100606)
(-0.0548223 2.36851 -0.12096)
(-0.0607713 1.97579 -0.128021)
(0.0191882 -0.682334 0.417228)
(0.0105625 -0.68908 0.495162)
(0.00391898 -0.67136 0.557118)
(0.00768599 -0.684151 0.504819)
(0.0153275 -0.656223 0.457512)
(0.00168676 -0.618578 0.519929)
(-0.00831313 -0.67095 0.580284)
(-0.0262388 -2.11519 -0.0720007)
(-0.0249787 -2.13027 -0.0577284)
(0.0180225 -2.12118 0.0226881)
(-0.0230589 -2.09669 -0.0732075)
(-0.000808975 -2.14199 -0.0386571)
(0.0349269 -2.07995 -0.00934711)
(0.00171456 -2.15457 0.0352505)
(0.0427052 -2.13445 0.0027431)
(0.0744585 -2.08921 -0.0764618)
(-0.00419025 -0.438174 0.402476)
(0.0151834 -0.480738 0.418253)
(-0.0189784 -0.472761 0.455172)
(-0.0108228 -0.522244 0.406795)
(-0.0191098 -0.53593 0.367528)
(-0.00428245 -0.528923 0.406924)
(-0.0210877 -0.533326 0.430622)
(0.00930323 1.15865 -1.08795)
(0.0177307 0.940725 -0.241192)
(0.216818 1.07272 -1.00386)
(-0.615877 0.744785 0.312594)
(-0.411233 0.329727 0.246739)
(-0.0954415 0.548305 -0.52677)
(-0.887568 0.815827 -0.152233)
(-0.324531 1.70585 -0.979786)
(-0.11722 1.52325 -0.722632)
(-0.112952 1.23579 -1.04081)
(0.462989 2.56201 -0.134293)
(0.159639 2.52709 -0.211072)
(0.370589 2.49008 -0.267362)
(-0.211853 2.61275 -0.0636183)
(0.292218 2.09688 -0.482525)
(0.423768 2.33034 -0.378451)
(0.0558736 1.94516 -0.535814)
(-0.221926 1.96489 -0.967081)
(-0.0544052 2.13505 -0.159569)
(0.0211501 1.95341 -0.741454)
(-0.438367 1.98235 -1.24239)
(-0.0336796 2.30531 -0.285724)
(-0.101433 2.23592 -0.39251)
(-0.135781 2.14077 -0.563705)
(-0.0531936 2.24409 -0.500662)
(0.101118 0.000699847 -3.15733)
(-0.171971 -0.122125 -2.07345)
(-0.311778 -0.0623284 -0.939741)
(-0.183427 -0.0835483 -2.49237)
(-0.0101908 0.140338 -3.00403)
(-0.158962 -0.0336684 -1.99161)
(0.00907699 0.121595 -2.34702)
(0.167658 -0.0292915 -0.812718)
(-0.0795676 0.14961 -1.26962)
(0.231278 0.0102198 -0.707346)
(-0.168961 0.0342799 -1.7745)
(-0.104333 0.253257 -1.93641)
(0.0898278 0.853554 -1.8689)
(-0.0050657 0.421462 -2.09719)
(-5.20735e-06 1.08812 -1.10894)
(0.110403 0.584283 -0.981951)
(-0.0890355 0.478255 -2.42705)
(-0.254178 0.742385 -2.32953)
(0.0265218 0.319065 -2.5862)
(-0.0205756 0.37135 -2.60409)
(0.0105033 0.270479 -2.54522)
(-0.115268 0.621638 -2.4723)
(-0.0689441 0.3799 -2.44898)
(0.0112781 0.379293 -1.79497)
(-0.00765538 0.468301 -1.34774)
(0.00344854 0.312998 -2.18851)
(0.00556466 0.357704 -2.04405)
(0.0255784 0.376322 -2.35841)
(-0.0217252 0.448782 -1.59582)
(0.0117457 0.433763 -1.95916)
(0.0040721 -0.414405 0.88234)
(-0.0027827 -0.391549 0.873761)
(-0.00599836 -0.461244 0.95074)
(-0.018817 -0.373494 0.973939)
(0.000524461 -0.388988 1.02961)
(-0.0146285 -0.397044 1.06202)
(0.0132721 -0.40597 1.05651)
(-0.00637464 -0.469498 1.02617)
(-0.018532 -0.437046 0.963527)
(-0.0191796 -0.372617 0.728146)
(0.0280148 -0.396934 0.607354)
(-0.0211639 -0.501919 0.755675)
(0.0106921 -0.435291 0.791119)
(0.0101611 -0.399178 0.84035)
(0.0219468 -0.360433 0.720572)
(-0.00469885 -0.333223 0.78483)
(0.0893138 -0.201578 0.105877)
(-0.0493382 0.00574035 0.361113)
(0.00154556 -0.36926 0.439339)
(0.133218 -0.292443 0.278419)
(-0.00880774 -0.369038 0.54595)
(0.17199 -0.313529 0.321333)
(0.0524662 -0.48373 0.655627)
(0.0213928 -0.422592 0.556877)
(0.117965 -0.299636 0.28391)
(-0.0136179 -2.1923 -0.157684)
(-0.0085124 -2.23599 -0.139377)
(-0.0130955 -2.34295 -0.137553)
(-0.0408494 -2.21801 -0.168378)
(0.0258507 -2.08275 -0.162603)
(0.0344962 -2.03422 -0.198444)
(-0.0388898 -2.20883 -0.196458)
(-2.52146e-07 -2.24538 -0.0914199)
(0.00329588 -2.22166 -0.0793548)
(-0.000650962 -2.2207 -0.0861092)
(-0.000364366 -2.2313 -0.0984391)
(-0.00778905 -2.24597 -0.0994249)
(-0.0148844 -2.24535 -0.102613)
(-0.00199841 -2.22258 -0.0959159)
(-0.00103804 0.208115 -0.699096)
(-0.00539512 0.484378 -0.364989)
(0.0271155 0.441704 -0.432079)
(-0.0500798 0.0634288 -0.643773)
(0.0468651 0.146239 -0.680513)
(-0.0265683 0.26605 -0.444355)
(0.0266617 0.248962 -0.539754)
(0.108919 0.179403 -0.779603)
(0.0738696 0.189421 -0.594223)
(-0.000729174 0.275608 -0.584433)
(0.194331 0.167572 -0.650768)
(0.117085 0.195491 -0.844252)
(0.00824887 0.217253 -0.786687)
(-0.0476539 0.333883 -0.685471)
(-0.0039868 0.301459 -0.769647)
(0.0196056 0.238861 -0.788153)
(0.0203425 0.250402 -0.772698)
(-0.00914629 0.422321 -0.767263)
(0.0255884 0.376564 -0.753224)
(0.0479886 0.297398 -0.801333)
(0.0234039 0.324774 -0.79761)
(0.0565478 0.872539 -0.700505)
(0.0247218 0.899383 -0.653051)
(0.0118893 0.952533 -0.565279)
(0.0547434 1.0319 -0.75387)
(-0.00198132 1.05944 -0.629145)
(-0.0426892 1.33014 -0.559062)
(0.0318193 1.22578 -0.641148)
(-0.0473 1.23799 -0.576286)
(0.0307466 1.20115 -0.687198)
(-0.0730962 1.07186 -0.519349)
(-0.0349612 1.14427 -0.438901)
(0.0199032 1.24762 -0.340975)
(0.034257 1.42674 -0.312853)
(0.0281456 1.37047 -0.398922)
(-0.00198993 1.263 -0.437174)
(-0.0256646 1.19589 -0.545328)
(-0.0132679 0.976482 0.0250409)
(-0.123704 1.37906 -0.0320652)
(-0.14347 1.32514 0.0353856)
(0.0212083 1.36241 -0.0365475)
(-0.0127388 1.29823 0.0251039)
(-0.0896944 1.49316 -0.0582509)
(-0.151488 1.40401 0.0485654)
(0.00905528 1.52333 -0.282127)
(0.0716856 1.29336 -0.254932)
(0.0217606 1.32834 -0.20761)
(-0.0685501 1.54355 -0.0709436)
(0.0735036 1.54033 -0.272037)
(0.100004 1.39883 -0.227301)
(0.000628118 1.29311 -0.0901655)
(-0.00888002 0.70807 -0.140241)
(-0.0166585 0.956187 -0.21001)
(-0.0982435 0.998 -0.0288616)
(0.0399031 0.862927 0.132771)
(0.0265861 0.581 -0.0494486)
(-0.141329 1.01624 -0.223832)
(-0.202991 1.10502 0.0391825)
(-0.00164875 1.23186 0.00124849)
(0.0421707 1.19148 0.0202166)
(0.0120965 1.14545 -0.101336)
(-0.040037 1.1688 0.0675736)
(0.0198424 1.23413 0.0316028)
(-0.0317367 1.1289 -0.0278791)
(-0.0742811 1.02722 0.00412152)
(0.0753719 0.38435 -0.216427)
(-0.128207 0.457687 0.0479453)
(-0.0476267 0.713524 -0.432119)
(-0.022523 1.10788 0.0362862)
(0.0114697 1.05833 -0.00996188)
(0.00255063 1.14658 0.00242261)
(0.0473807 0.939061 1.73476)
(0.131257 1.08878 1.63809)
(-0.077068 0.947939 1.6423)
(0.181315 1.08388 0.881656)
(0.0072064 1.00887 1.38318)
(-0.185721 0.939641 1.48615)
(0.0147866 1.02007 1.02917)
(0.0713573 0.257362 0.57344)
(-0.1063 0.428799 0.52727)
(-0.0231717 0.510412 0.949152)
(0.0807416 0.705338 -0.0990316)
(0.0800568 0.646813 0.173206)
(0.0677761 0.718794 0.161347)
(-0.0224052 0.708651 0.646092)
(0.229736 0.333057 1.06941)
(0.189964 0.792699 1.67486)
(0.277971 0.678478 0.88917)
(-0.0193027 0.772964 1.23279)
(0.0388983 0.791492 0.371497)
(-0.0883165 0.7349 0.807065)
(-0.0437617 0.902551 1.57832)
(-0.0161715 0.999598 1.31768)
(-0.0682682 1.00893 1.43751)
(-0.0501177 1.0255 1.001)
(0.213375 0.90036 0.423125)
(-0.000886064 0.916986 0.837918)
(-0.215113 0.843274 1.87661)
(-0.266235 0.947107 1.84625)
(-0.211161 0.959422 1.48857)
(0.0257364 0.91218 1.40502)
(-0.113891 1.06104 1.21847)
(0.0244476 0.829726 1.10513)
(0.158949 0.888032 0.313805)
(0.0387809 1.00683 0.864342)
(-0.188705 0.84572 1.29869)
(-0.0366418 1.18778 1.52435)
(0.0110486 1.13588 1.61186)
(-0.0501814 1.18883 1.56527)
(-0.0364355 1.33329 1.44308)
(0.00311207 1.24963 1.41849)
(-0.0757947 1.32184 1.41378)
(-0.0699133 1.30318 1.46787)
(-0.0272954 0.879639 0.030412)
(-0.0269301 0.767564 -0.143638)
(-0.0451377 0.705923 -0.243448)
(0.137896 1.80231 0.899364)
(0.102357 1.54202 0.670727)
(0.044277 1.3146 0.675877)
(0.062284 1.34068 0.616162)
(0.059606 0.846879 0.116994)
(0.157686 0.773476 0.221471)
(0.031456 1.39856 0.212004)
(-0.0598544 1.37281 0.183375)
(0.00197106 1.5845 0.354358)
(0.0228806 1.91252 0.685145)
(-0.0285021 1.84187 0.611537)
(-0.103446 1.59968 0.534807)
(-0.053925 1.70654 0.556864)
(-0.0213866 1.59179 0.582463)
(-0.0392778 1.78872 0.632398)
(0.00861294 1.94572 0.667318)
(0.015016 1.65824 0.603615)
(-0.000351019 1.4284 0.633228)
(0.00329956 1.71793 0.681478)
(0.0348195 1.9074 0.68274)
(-0.0877114 1.36136 0.145632)
(-0.00330541 1.6197 0.347342)
(0.0580989 1.65524 0.241875)
(-0.024981 1.48426 0.593571)
(0.0175685 1.67373 0.55239)
(-0.0403502 1.73514 0.584634)
(-0.0854442 1.58555 0.647376)
(0.0127871 0.749801 0.33933)
(-0.144775 0.428407 0.709828)
(0.111669 0.576188 0.654606)
(-0.0650519 1.01657 0.119971)
(-0.0649555 0.975053 0.17088)
(0.0416695 0.521887 0.90255)
(-0.085023 0.587941 1.18848)
(-0.0268564 0.560464 0.735482)
(-0.201973 0.756735 0.646132)
(-0.133677 0.722035 0.534842)
(-0.378196 0.906657 1.08405)
(-0.271107 0.769174 0.857723)
(-0.102237 1.04187 1.26913)
(-0.148551 1.48865 1.2041)
(-0.0629172 0.999042 1.16528)
(-0.0754553 1.63377 0.602718)
(-0.181085 2.30961 0.418945)
(-0.169118 2.19223 0.746785)
(-0.189111 1.76588 0.967865)
(-0.17064 1.50916 -1.21583)
(0.176974 0.0165481 -0.997917)
(0.00455086 -0.24825 -0.128038)
(0.317591 0.0150601 -0.332081)
(0.389597 -0.833928 0.145938)
(0.0805804 -0.900578 -0.922343)
(0.243057 0.739184 -1.28163)
(0.036596 0.511365 -0.0116143)
(0.028834 0.523459 -0.113218)
(0.0691759 0.360937 -0.219263)
(0.0580881 0.772793 0.249541)
(-0.00570565 0.602965 -0.0292829)
(0.0913287 0.20719 -0.031373)
(0.0585228 0.596355 0.310025)
(-0.00588195 0.0270345 -0.188277)
(-0.00627254 0.0793542 -0.224546)
(-0.170764 0.154951 -0.132016)
(0.121882 0.0221648 0.177377)
(-0.0125743 -0.0436124 -0.118895)
(-0.0448576 -0.0145367 0.218925)
(-0.131503 0.0402764 0.0279787)
(-0.0540347 0.00714489 -0.184153)
(-0.22236 -0.0122646 -0.0411772)
(0.285348 -0.296471 0.0110082)
(0.157916 -0.580115 0.317039)
(-0.0799457 -0.667466 0.652358)
(0.0851064 -0.462135 0.124525)
(0.294184 -0.25924 -0.559877)
(-0.0474365 -0.570312 0.524574)
(-0.147219 -0.0619762 0.211954)
(0.00956266 -0.495643 0.571172)
(-0.0123673 -0.490493 0.540053)
(-0.000570215 -0.534604 0.594833)
(0.0189619 -0.497771 0.50583)
(-0.0209515 -0.516556 0.494722)
(0.00429581 -0.488887 0.499045)
(0.0350119 -0.464217 0.49185)
(0.117638 -0.0234797 0.648319)
(-0.0499258 -0.286831 0.633725)
(-0.0356008 -0.437155 0.666828)
(0.120848 0.0370303 0.602087)
(-0.0193361 -0.285803 0.58626)
(0.0470063 -0.389697 0.614413)
(-0.0177131 -0.467463 0.604641)
(-0.00186104 0.991162 0.385465)
(0.0250467 1.02494 0.239443)
(-0.0135786 0.512928 0.448727)
(0.04331 0.442943 0.512015)
(0.0585318 0.565415 0.51341)
(0.0335064 0.933635 0.352027)
(0.0398682 0.835405 0.276516)
(0.0796398 2.07096 0.0668241)
(0.0160216 2.04323 0.118383)
(0.0193207 1.93106 0.0372749)
(0.0376818 2.1506 0.0454559)
(-0.0664679 2.19693 0.184446)
(0.0218322 2.11651 0.0408987)
(-0.102657 2.18379 0.168521)
(0.0598735 2.10546 0.035288)
(0.0566693 2.10152 0.128984)
(0.0079611 2.07387 0.144959)
(-0.0411498 1.98501 0.0427563)
(0.00706542 1.97324 -0.0116347)
(0.0147281 1.96967 0.017686)
(0.0832059 1.9686 -0.0602491)
(0.0221668 1.96422 -0.00651352)
(0.0780228 1.98052 -0.0739451)
(-0.0365386 2.29923 0.00463615)
(-0.098568 2.21582 0.0353451)
(0.056763 2.46252 -0.0183366)
(0.00538248 2.49912 0.0407888)
(0.060558 2.56769 0.0266825)
(0.0253286 2.32236 -0.0608541)
(0.109448 2.19027 -0.0513498)
(-0.0620633 2.23864 -0.0231222)
(-0.0120784 2.20873 -0.0739327)
(0.0287733 2.22643 0.0186052)
(0.040247 2.22639 0.00440106)
(0.00893241 2.28259 0.0418558)
(-0.0106619 2.22603 0.0527497)
(-0.0171652 2.26319 0.0531248)
(-0.0841999 2.19468 -0.0431138)
(0.0377905 2.2076 0.0198286)
(-0.0361399 2.25099 0.0241448)
(0.0389942 2.28589 0.0614984)
(-0.0294853 2.24602 0.0481473)
(-0.0517949 1.90204 -0.00337919)
(-0.00846116 2.28075 -0.00922692)
(0.0147547 2.29951 0.0146366)
(-0.00978542 2.29434 0.0134257)
(0.0102778 2.38148 -0.0112645)
(-0.0248296 2.30445 0.0163392)
(-0.160382 2.39733 -0.0664493)
(-0.0352335 2.35263 -0.0406512)
(0.0221318 1.53524 0.0063764)
(0.0198412 2.66162 0.00819844)
(-0.00359211 2.30098 -0.0315547)
(-0.116569 2.51917 -0.129162)
(-0.0573625 2.31792 -0.0248941)
(-0.00904918 2.36967 0.081731)
(-0.045062 1.91734 0.0223106)
(-0.0342351 2.34313 -0.04324)
(-0.0493776 2.27079 -0.148585)
(-0.111215 2.33836 -0.385715)
(0.0591567 2.40107 -0.400229)
(-0.0660112 2.12791 -0.194708)
(-0.0938395 2.39108 -0.222785)
(0.0324487 2.50713 -0.22938)
(-0.0521293 2.35267 -0.0896943)
(0.0297839 2.35727 -0.0555578)
(-0.0580887 2.27321 -0.0551361)
(-0.0258721 2.25755 0.0778925)
(-0.0248535 2.29422 -0.0785912)
(-0.0320713 2.28186 -0.232139)
(-0.0446664 2.24265 -0.205807)
(0.00648361 2.57475 -0.260812)
(0.0996157 2.06397 -0.0312702)
(-0.0221723 2.07152 -0.14555)
(0.453761 2.36911 -0.343111)
(-0.15512 1.9644 -0.75717)
(-0.0372057 1.52763 -1.46946)
(0.838134 2.67202 -0.0264484)
(0.0441394 1.89754 -0.791767)
(0.03367 1.31912 -1.55482)
(-0.00925345 1.42864 -1.49371)
(0.17538 2.08104 -0.31791)
(0.115975 2.03566 -0.674075)
(0.212698 1.93052 -0.557868)
(-0.797667 2.73165 -0.445924)
(-0.128707 2.27826 -0.445976)
(0.0768526 0.981212 -1.37812)
(-0.0336179 1.14192 -1.61473)
(-0.0256414 1.27175 -1.34204)
(-0.166554 1.78772 -0.766804)
(0.174626 1.91989 -0.693384)
(0.272885 1.95561 -0.729884)
(0.0283898 1.41505 -0.880585)
(-0.00455821 0.186178 -2.39427)
(-0.200126 0.161007 -2.1261)
(-0.25504 -0.024478 -2.02278)
(0.078697 0.0480272 -2.73792)
(0.0205013 0.0294276 -2.75995)
(-0.0240201 -0.0621463 -2.86165)
(-0.0391896 -0.0886944 -2.85854)
(-0.0302447 -0.0494918 -2.96125)
(-0.0202393 0.0429819 -2.81897)
(0.0715949 0.050326 -2.8055)
(0.0418017 0.137167 -2.53864)
(0.184003 -0.153543 -2.76789)
(-0.0255626 0.26059 -2.48417)
(0.0285638 0.121372 -2.70793)
(0.0222582 0.0287092 -2.7183)
(0.00391204 0.0277855 -2.7109)
(-0.0169226 0.177688 -2.713)
(0.00141549 0.0191933 -2.62157)
(-0.00991976 0.088859 -2.64248)
(0.0456697 0.137085 -2.45389)
(0.0395485 0.0142869 -1.85277)
(-0.013122 0.123018 -2.58709)
(-0.0438032 -0.110469 -2.75685)
(-0.0490056 -0.0277606 -2.80718)
(-0.0365637 0.0215269 -2.16967)
(-0.0114694 -0.0259126 -2.83521)
(-0.0666681 -0.0600093 -2.88317)
(-0.0595191 0.0150818 -2.70484)
(-0.0628014 0.0447539 -2.73141)
(-0.0133004 0.00920175 -2.8042)
(-0.0391767 -0.00516466 -2.82406)
(0.000689079 0.0739425 -2.45264)
(0.0966972 0.14507 -2.62582)
(-0.101003 -0.0603269 -1.72418)
(-0.00539586 0.0538039 -2.66572)
(0.00243406 0.0222065 -2.77626)
(-0.043956 -0.0825559 -2.6571)
(0.017776 0.0115142 -2.75936)
(0.0344278 -0.00233515 -2.65996)
(-0.0175795 -0.017963 -2.76016)
(0.00844885 0.0353232 -2.8648)
(0.011564 0.000621845 -2.6864)
(-0.019105 0.0124999 -2.71029)
(0.00607959 -0.0691545 -2.57367)
(0.00179998 -0.00772942 -2.64543)
(-0.104276 0.130643 -2.76581)
(-0.0579724 0.0246868 -2.6867)
(-0.00296282 -0.0397622 -2.58281)
(0.0124949 0.00304358 -2.75113)
(-0.0225482 -0.0370401 -2.83153)
(0.00592209 0.0240427 -2.56406)
(-0.0344839 0.05434 -2.66633)
(0.0221898 -0.00964103 -2.78855)
(-0.0499113 -0.0703165 -2.80566)
(-0.0453076 -0.0351499 -2.78869)
(-0.00774501 0.0654778 -3.07061)
(0.00124807 0.0985765 -2.9915)
(0.00460233 0.147621 -2.95453)
(-0.01044 0.0641174 -2.96182)
(-0.00072233 0.100156 -2.95931)
(-0.00908352 0.0993041 -3.00666)
(-0.00325133 0.0215424 -3.04517)
(0.0243433 -0.0192321 -3.09708)
(0.0348079 -0.0631701 -2.93606)
(0.0176619 0.0200323 -3.23492)
(0.0422771 -0.0200643 -3.22661)
(0.0149248 0.0564406 -3.13501)
(0.0623596 -0.110786 -3.07567)
(0.0337824 -0.0362181 -3.10357)
(0.152882 -0.308705 -0.886804)
(0.0430601 -0.384289 -0.8874)
(-0.0137962 -0.466149 -0.778568)
(0.0876433 -0.190609 -1.02725)
(-0.00484846 -0.290036 -1.04623)
(0.0494406 -0.18701 -1.00392)
(-0.0409749 -0.386609 -0.867523)
(0.0116548 -0.054636 -0.330013)
(-0.0136567 0.0196982 -0.328785)
(0.047002 0.0960917 -0.301731)
(-0.188929 -0.118673 -0.291836)
(-0.0205967 -0.106628 -0.325163)
(-0.191258 0.0254814 -0.255999)
(-0.187784 -0.104255 -0.230855)
(0.0178012 -0.188884 -0.280612)
(-0.0145354 -0.271749 -0.122099)
(-0.0252945 -0.298298 -0.39095)
(-0.00214266 -0.327797 -0.0952198)
(0.0023122 -0.294003 -0.265498)
(0.0141873 -0.325731 -0.392189)
(-0.00394023 -0.423763 -0.306661)
(0.0278005 -0.374811 0.207738)
(0.0258136 -0.38354 -0.0211924)
(0.0068147 -0.268173 0.160838)
(-0.0125589 -0.555881 -0.115567)
(0.00167305 -0.467212 -0.132877)
(0.0430443 -0.469282 -0.0296517)
(0.085101 -0.465138 -0.0243672)
(0.0737271 -0.341704 0.126995)
(0.0926853 -0.4212 0.116408)
(0.00281794 -0.253667 0.909471)
(0.0280619 -0.345751 0.598827)
(-0.00987433 -0.506713 0.409026)
(-0.031342 -0.326203 0.390719)
(-0.143034 -0.212533 0.50121)
(-0.053658 -0.297115 0.470048)
(-0.10081 -0.233183 0.588758)
(0.009552 -0.24819 0.639537)
(-0.0321099 -0.22898 0.794478)
(-0.00745812 -1.54674 0.162214)
(-0.0672648 -1.55314 0.148756)
(0.00136824 -1.41399 0.336524)
(-0.00243769 -1.30372 0.189372)
(-0.0935295 -1.40437 0.182238)
(0.0165992 -1.19532 0.329459)
(-0.00868452 -1.10484 0.399293)
(-0.0820304 -0.991834 -0.611151)
(-0.0239655 -0.727667 -0.268262)
(0.0704458 -0.983426 -0.62695)
(-0.0528246 -1.28518 0.131731)
(0.124484 -1.12938 -0.24396)
(0.238162 -1.09767 -0.584531)
(0.142965 -1.11491 -0.57539)
(0.250727 -0.809597 -0.610319)
(0.189197 -0.377633 -0.445742)
(-0.0251301 -0.00256652 0.139403)
(0.514149 -0.425305 -0.26727)
(0.260854 -0.330252 -0.441738)
(-0.100032 0.103286 -0.0837832)
(-0.0246347 0.0183466 0.046577)
(0.0353614 -0.386917 0.610541)
(-0.0288052 -0.641034 0.596191)
(-0.0843713 -0.702172 0.580002)
(0.123088 -1.15691 0.461138)
(0.250563 -1.45014 0.0961861)
(0.00809178 0.242901 -0.639125)
(-0.0386683 0.279605 -0.596545)
(-0.0213722 0.322866 -0.596431)
(-0.00343659 0.291312 -0.641564)
(0.010442 0.228319 -0.627233)
(-0.0269481 0.261639 -0.619139)
(-0.0132671 0.344638 -0.627507)
(-0.0296781 0.525603 -0.546606)
(0.012282 0.637932 -0.581917)
(-0.0943558 0.392466 -0.640015)
(0.00548099 0.942401 -0.519982)
(0.0854858 0.786847 -0.451743)
(-0.0950969 0.478426 -0.648069)
(-0.0377804 0.772971 -0.535418)
(0.0314425 2.1174 -0.145496)
(0.0218277 2.11252 -0.221706)
(-0.000187823 1.83678 -0.118638)
(0.0281626 2.16253 -0.174773)
(-0.0056448 2.1267 -0.15689)
(-0.00646323 1.96949 -0.141673)
(0.0158601 2.05162 -0.180564)
(-0.152547 1.43433 0.0289877)
(-0.133512 2.22379 0.121151)
(-0.135476 2.05878 0.0486285)
(0.0346383 2.80496 0.101187)
(-0.0914936 2.28177 0.0246513)
(-0.102029 2.63071 0.10626)
(-0.111967 2.31857 0.0545623)
(-0.00309258 2.15335 -0.149795)
(0.0214606 2.09213 -0.169448)
(0.0274513 2.07788 -0.160092)
(0.0105207 2.18434 -0.0794121)
(-0.0449889 2.17825 -0.0138006)
(0.022966 2.14085 -0.112701)
(0.0149096 2.06909 -0.0957502)
(0.0437088 1.84156 -0.145813)
(0.0868544 1.53695 0.00491153)
(-0.0100293 1.90295 -0.290458)
(0.00140144 2.13981 0.0552271)
(-0.0258312 2.14577 -0.0653439)
(-0.00775135 2.06264 -0.206732)
(0.00888632 2.12286 -0.099232)
(0.0273023 2.08318 -0.139421)
(-0.0137497 2.076 -0.0526905)
(-0.0153824 1.97298 -0.0450982)
(0.0381733 1.94837 -0.182063)
(0.0997754 1.92868 -0.261413)
(0.0186638 2.0392 -0.179801)
(-0.0697285 1.22031 0.0336102)
(-0.131938 1.48064 -0.0695892)
(0.0247726 1.77117 -0.36889)
(0.0524733 1.66379 -0.355118)
(0.0892408 1.7976 -0.274835)
(-0.118294 1.48694 -0.00611934)
(0.026826 1.81747 -0.143416)
(0.0747807 1.83206 -0.268974)
(-0.0694475 1.19293 -0.0429454)
(-0.00524103 1.25005 0.0264144)
(-0.0107449 1.19512 0.0123732)
(-0.00896862 0.959895 -0.505047)
(-0.00462302 0.850733 -0.49523)
(-0.0415587 0.889434 -0.517697)
(0.00424551 0.830257 -0.51709)
(0.0108492 0.788006 -0.539575)
(-0.0302733 0.856709 -0.517253)
(-0.0199752 0.900473 -0.504004)
(-0.085895 0.764095 0.0310359)
(-0.0764044 0.813602 -0.207244)
(0.0147164 0.71896 -0.274481)
(0.0244504 0.560526 -0.535696)
(0.0161822 0.640378 -0.614469)
(-0.0440369 0.64675 -0.570387)
(-0.125089 0.585649 -0.324579)
(-0.00341828 0.784136 0.165731)
(0.140613 0.806079 -0.0769971)
(0.262304 0.973201 0.0735789)
(0.0668207 0.613218 -0.273419)
(0.012251 0.541684 -0.52385)
(0.0942958 0.566049 -0.385875)
(0.251735 0.897544 -0.234521)
(0.00417592 1.07038 1.46442)
(0.0630525 0.982746 1.31701)
(0.0925935 1.01255 1.06022)
(-0.0219601 0.853409 0.150922)
(0.0110066 0.972889 0.395629)
(0.056997 0.766939 -0.0209293)
(-0.0497009 1.30063 0.788883)
(-0.0885453 1.33122 0.833372)
(0.101771 0.797708 0.194592)
(-0.0344433 1.0293 0.379884)
(0.00422529 1.16927 1.29671)
(-0.0620847 1.35275 1.39704)
(0.121658 1.27406 1.19839)
(-0.0661569 1.51235 1.36164)