/*--------------------------------*- C++ -*----------------------------------*\
| =========                 |                                                 |
| \\      /  F ield         | OpenFOAM: The Open Source CFD Toolbox           |
|  \\    /   O peration     | Version:  v2012                                 |
|   \\  /    A nd           | Website:  www.openfoam.com                      |
|    \\/     M anipulation  |                                                 |
\*---------------------------------------------------------------------------*/
FoamFile
{
    version     2.0;
    format      ascii;
    class       surfaceScalarField;
    location    "0.05";
    object      alphaPhi0.water;
}
// * * * * * * * * * * * * * * * * * * * * * * * * * * * * * * * * * * * * * //

dimensions      [0 3 -1 0 0 0 0];
oriented        oriented;


internalField   nonuniform List<scalar> 
13152
(
7.7852e-07
2.00781e-05
-1.29373e-06
-1.95668e-05
1.85116e-05
-1.72639e-05
-4.69439e-07
-3.51096e-06
4.20992e-05
-3.46554e-05
3.52919e-05
-1.93114e-06
2.12544e-05
-7.54777e-05
2.84807e-05
-2.44903e-05
6.02616e-05
-1.60886e-05
-2.97322e-05
-2.85127e-05
7.43282e-05
3.45122e-07
-1.67445e-05
2.97997e-07
-2.99322e-05
5.44537e-07
7.7652e-06
5.15934e-06
-2.96693e-05
7.79055e-06
2.69945e-07
-5.08828e-06
-1.56375e-05
-2.98614e-05
-8.56642e-06
-1.49185e-05
-5.16363e-06
2.8628e-05
2.17948e-08
-8.59618e-06
-7.78038e-09
-1.44748e-05
-4.93913e-07
5.60672e-06
-3.03835e-05
1.61776e-05
-2.96153e-05
3.00566e-05
2.94626e-05
-6.50542e-07
-6.16127e-08
-1.53166e-05
-2.99467e-05
2.32853e-08
-7.49333e-05
2.28651e-07
1.58775e-05
3.03233e-05
-4.16585e-08
7.48032e-05
3.58083e-05
1.27497e-05
2.5341e-05
-7.38996e-05
2.79091e-07
-5.66206e-07
3.6054e-05
1.25401e-05
2.84152e-07
-1.88617e-05
7.34957e-05
7.74467e-05
2.92029e-05
-5.77491e-07
-2.94389e-05
8.07051e-07
-1.60517e-05
-2.71182e-05
7.2339e-05
2.51283e-07
-1.69543e-05
-7.81608e-06
7.75015e-06
3.01376e-07
5.19725e-06
-2.99723e-05
-4.97109e-06
-1.4418e-05
-2.92148e-05
-1.42696e-05
9.00121e-08
2.92471e-05
1.17681e-07
6.05823e-07
8.99471e-07
-1.00073e-06
-4.77875e-07
-5.12441e-07
-1.75378e-07
8.70787e-07
3.28095e-07
4.60545e-09
7.36377e-08
-8.93972e-07
3.13053e-08
-3.90173e-08
-8.78255e-07
-8.71784e-08
1.33233e-07
2.82042e-07
-1.38494e-07
5.61248e-08
-2.95864e-07
-7.36597e-07
-2.01644e-07
-6.40278e-92
3.64031e-91
-8.46712e-92
-3.31685e-90
1.25544e-90
-1.00401e-89
2.93383e-90
-7.45323e-91
-1.7884e-89
1.13701e-89
3.76513e-90
-2.93107e-89
5.25748e-92
-1.52654e-90
-2.35532e-90
3.26246e-93
-2.99794e-89
-2.52396e-83
-2.0139e-82
-1.20618e-83
5.08419e-83
-4.0578e-82
-5.92365e-83
6.90036e-84
-3.53132e-81
-2.3368e-82
8.84271e-80
4.53963e-80
-2.12067e-79
-3.27396e-81
1.43479e-80
-5.17809e-81
3.36304e-82
-1.02412e-82
1.0859e-65
1.17489e-66
1.43503e-66
-4.61818e-65
7.61482e-67
4.73034e-65
-3.77212e-65
3.56518e-68
7.76317e-69
-6.51536e-68
4.35802e-68
4.38106e-65
3.71719e-69
-1.59126e-69
-1.66728e-69
1.11566e-69
4.22114e-71
4.80856e-64
-1.11639e-63
-2.36749e-63
2.80946e-63
-2.81238e-63
-8.31577e-64
8.96048e-61
-2.50296e-63
-7.94753e-64
2.54422e-64
-1.73118e-63
-1.53744e-63
-3.74155e-61
3.69859e-61
1.42143e-63
-3.8201e-61
-3.28704e-63
3.26848e-59
1.285e-60
-2.6419e-61
-4.96298e-60
8.40018e-59
-4.42302e-56
4.41817e-56
-2.41027e-62
8.61789e-59
-1.68179e-60
1.47741e-60
-1.7846e-61
5.44233e-58
5.98717e-56
-1.78528e-60
1.17568e-54
-1.03687e-61
-1.14208e-15
-6.00155e-17
-1.43722e-13
1.44925e-13
3.43285e-15
-9.21806e-19
-1.76677e-15
9.86341e-19
1.5109e-15
1.12408e-16
4.07892e-18
-1.26947e-16
1.17765e-12
-1.78203e-11
5.75275e-18
-1.51684e-17
1.01112e-12
2.4032e-08
5.515e-08
4.96648e-08
-1.28747e-07
8.69572e-07
-5.27292e-07
-2.94957e-07
1.38735e-07
7.89029e-07
1.74685e-06
1.47631e-06
-1.26989e-06
-6.39251e-07
2.04598e-06
-1.14265e-06
6.42136e-07
4.22711e-07
5.2568e-08
-3.8007e-08
-1.88423e-08
4.2814e-09
-1.32041e-07
-4.39952e-08
2.28604e-07
-8.40634e-08
-8.5985e-08
1.23568e-08
-1.66483e-07
1.10131e-07
-1.03238e-07
9.6752e-08
5.61871e-08
-3.06734e-07
-1.33035e-07
4.81275e-08
4.12644e-08
3.57026e-07
-4.46418e-07
-4.4785e-08
8.4819e-08
8.09332e-09
-4.40905e-08
4.05697e-08
-5.04144e-08
4.92259e-07
2.59298e-07
-3.53803e-07
3.07961e-07
-0
4.04797e-13
2.35865e-14
-2.41768e-14
0
0
0
-1.14401e-13
2.83482e-11
8.74081e-17
1.19756e-14
2.88058e-16
7.62205e-18
7.97861e-17
-3.38378e-14
-8.05115e-14
1.09158e-13
1.78177e-05
-4.78375e-07
-1.63064e-05
-9.1445e-10
-2.03468e-05
-2.83103e-05
6.62399e-05
-6.60773e-07
-2.16015e-05
-2.83959e-05
2.76996e-05
4.8256e-08
2.01872e-05
-6.95586e-05
-3.7303e-06
2.93767e-06
-9.7638e-09
-1.65627e-37
0
-4.49027e-36
-7.2498e-36
-0
5.63151e-16
-5.63151e-16
0
0
5.87334e-17
5.92129e-15
-5.8402e-15
-2.09519e-36
5.87334e-17
1.59087e-16
3.47198e-15
1.59087e-16
4.1772e-70
2.5693e-70
-1.04297e-69
-2.16089e-71
-2.15074e-73
-5.10016e-73
1.78543e-73
-9.56704e-73
1.04531e-72
1.26013e-67
3.29874e-67
-4.61261e-67
2.1732e-71
-1.46801e-70
1.42673e-71
-2.36466e-73
1.2312e-70
-2.35292e-61
1.32542e-63
-2.14316e-62
2.21778e-62
3.0266e-61
-2.53068e-60
-1.85246e-61
-8.05625e-63
2.46277e-63
6.02765e-59
1.41182e-58
-7.6266e-57
3.18611e-61
-1.04248e-60
1.73503e-61
-6.81396e-63
1.69042e-60
7.53964e-57
2.10053e-56
-2.32596e-56
-8.62437e-57
1.91361e-59
-7.99996e-58
3.32919e-59
1.47252e-58
3.23997e-57
3.84086e-58
-9.96064e-56
-8.60727e-61
-1.07279e-58
4.64476e-59
-5.94482e-56
1.81058e-56
-3.37117e-55
-3.65541e-53
-1.97457e-52
-3.18426e-52
4.09807e-53
-6.01768e-51
-3.68523e-49
3.70568e-49
-1.53907e-49
-3.01912e-51
-1.03009e-51
-7.80076e-52
-1.34303e-52
-3.53084e-48
3.145e-48
1.30801e-48
2.56566e-48
-4.61976e-48
1.97467e-50
-1.65087e-51
1.49376e-48
-3.39576e-48
9.15333e-51
2.22432e-48
-4.89202e-47
-1.50219e-47
1.44555e-48
-3.9689e-46
5.68313e-48
2.87245e-46
5.08952e-48
-5.21434e-46
4.56482e-47
-1.49348e-45
-7.06915e-48
3.1963e-49
-1.13097e-45
9.13914e-46
-4.39133e-45
1.84989e-42
-1.78125e-41
-2.68398e-41
1.53701e-42
-2.25616e-41
-6.44758e-39
6.39664e-39
-1.17007e-41
-8.69625e-41
-1.69572e-39
-2.321e-41
1.69949e-40
-1.79323e-39
-7.17223e-39
-5.4172e-41
5.39638e-41
-2.59595e-41
7.8463e-39
-9.27525e-39
-5.88642e-42
4.06323e-39
-4.80001e-43
-4.3086e-25
-4.66452e-24
-6.36402e-25
1.02226e-24
-2.82419e-23
-2.74392e-23
4.13972e-23
-5.19216e-22
-9.24171e-24
-2.68742e-24
-3.35986e-24
-1.00866e-26
-3.91449e-23
3.02849e-24
5.20284e-21
2.12311e-21
-8.18432e-21
2.5626e-23
-4.9267e-24
-2.53347e-24
6.23001e-24
-8.64672e-22
6.374e-21
1.59888e-20
-4.42374e-21
-2.11848e-20
3.25481e-22
2.37977e-22
-1.55822e-21
2.93252e-21
1.2206e-21
-1.8269e-21
7.98246e-23
1.27012e-22
-3.0314e-20
-2.67175e-20
6.79712e-21
-8.11181e-20
1.05165e-17
2.67744e-17
-1.12861e-16
-3.7436e-18
-4.15305e-18
-1.60324e-17
7.6614e-18
-7.14211e-16
1.93935e-16
2.63844e-16
1.0325e-15
-1.43684e-15
1.21096e-16
-8.99138e-19
-2.7674e-16
1.67451e-16
-4.09001e-16
2.91647e-15
-3.61027e-15
-1.605e-16
2.96137e-16
-4.0022e-14
6.43286e-16
4.09738e-14
-3.14198e-17
-4.39501e-14
1.676e-16
-1.23244e-15
2.80108e-18
4.30809e-17
-3.73496e-15
1.08217e-16
-4.46763e-14
2.39562e-10
-2.12249e-10
-2.02583e-10
-2.78027e-11
-2.22686e-10
6.13766e-11
5.6929e-11
-4.12569e-10
-6.19239e-10
-4.88051e-10
-2.70654e-09
2.50299e-09
-7.85333e-10
-1.6329e-10
-1.37287e-10
3.6027e-10
-6.07592e-10
1.2244e-21
-1.32871e-21
-2.87025e-24
3.49978e-23
-4.40107e-20
3.14443e-22
4.48219e-20
-4.30543e-21
-4.15044e-20
6.22592e-24
-3.51868e-23
-9.63777e-24
3.2021e-24
3.13631e-24
-5.66911e-22
8.25271e-22
-7.80556e-21
-6.37003e-26
-9.71095e-26
-1.23189e-25
8.38353e-26
-7.6982e-25
-3.34999e-23
-1.12166e-25
-1.90977e-24
1.21086e-23
-4.21869e-23
-1.1644e-23
-1.10584e-24
2.11305e-24
-1.647e-24
-4.78139e-25
-4.63542e-23
-1.63818e-27
1.95761e-26
1.02079e-25
-1.22502e-25
4.31312e-28
-2.58333e-27
-2.08449e-28
4.69729e-29
9.74637e-28
-2.23197e-25
1.55727e-26
2.8574e-25
1.89993e-26
2.50606e-26
-9.90085e-27
5.10004e-27
-9.54017e-35
-9.47014e-35
1.02096e-34
1.8671e-35
-2.30648e-34
-2.56911e-33
1.78597e-34
-9.2413e-33
-2.06172e-34
3.21077e-32
-3.88946e-33
-3.36994e-32
2.77582e-34
1.0629e-32
1.50021e-32
-9.23323e-31
2.67058e-33
-2.60799e-43
9.05557e-41
3.66927e-40
-2.99986e-39
1.43659e-44
-2.75182e-43
-6.43544e-44
6.17852e-43
-4.14529e-39
4.26801e-40
2.78904e-39
-4.48668e-40
-1.1023e-36
-1.73106e-41
2.43519e-43
2.29248e-41
3.79508e-44
-4.68108e-40
5.16807e-44
-3.81362e-42
4.72728e-44
-1.02183e-54
1.78843e-53
-7.49749e-53
4.62596e-53
7.99297e-56
-1.10476e-54
-9.50765e-57
9.96025e-56
1.57022e-50
2.73984e-53
5.62888e-53
1.56629e-50
2.59181e-53
-1.18335e-54
7.98536e-53
4.32115e-86
-7.13858e-86
-2.57275e-93
4.88257e-87
-3.01095e-85
2.87292e-86
2.58909e-85
-1.90497e-87
-3.60171e-83
2.76957e-91
1.52984e-94
-6.74241e-91
8.48661e-91
3.83777e-91
-1.34406e-89
2.18033e-89
-1.91905e-87
-1.3939e-08
2.6118e-08
-1.28447e-08
6.6567e-10
1.95935e-08
2.05393e-08
-5.40716e-08
6.70015e-08
-2.12881e-08
2.60358e-09
-3.84485e-09
-1.16029e-08
5.02162e-08
-2.70728e-08
-1.93374e-07
7.73479e-08
1.83028e-07
-8.1966e-09
-2.06464e-07
-5.81847e-08
1.85751e-07
-7.02247e-08
9.05046e-08
-2.69304e-07
6.58105e-08
1.15669e-07
-1.48938e-06
2.00882e-07
1.39127e-06
-9.52354e-07
-7.59195e-07
-2.39619e-07
1.05519e-06
-6.14666e-07
1.20325e-06
-1.37701e-06
7.84301e-08
-4.663e-08
1.11291e-07
1.69503e-09
1.04244e-09
-4.31908e-09
8.51932e-11
1.48891e-09
-8.96662e-09
1.98529e-09
7.07406e-10
7.90406e-10
-8.88365e-12
-5.0581e-10
7.765e-10
-1.55072e-10
4.05711e-10
4.54117e-10
-5.28255e-09
-2.20367e-08
-6.04442e-09
-5.67063e-10
2.45101e-12
-7.43261e-09
-4.346e-09
7.58833e-07
-6.91103e-08
7.07899e-07
-5.01668e-07
-1.18536e-06
2.18387e-08
6.40242e-08
-1.27846e-07
4.00673e-08
-1.90421e-08
-8.75834e-10
2.90388e-08
3.02169e-08
3.97326e-09
-7.39109e-09
4.79646e-08
-5.04439e-08
-1.1029e-08
2.5742e-08
8.79666e-09
1.43532e-09
-9.57373e-08
-6.60125e-58
-1.54037e-58
3.57545e-58
3.13541e-58
8.16651e-57
2.01255e-55
-8.04195e-54
4.56419e-58
-1.50129e-58
2.53419e-57
1.50653e-55
2.94924e-56
1.38276e-58
2.43976e-58
-4.00755e-57
2.31087e-58
1.40854e-55
5.15805e-39
5.27681e-39
-4.02766e-39
-2.67055e-37
-4.05054e-39
8.83578e-41
6.10458e-39
-2.95678e-35
4.20695e-37
1.27849e-39
-2.92517e-38
2.09395e-38
-2.58136e-39
5.97003e-41
7.65922e-34
3.85182e-35
-1.24429e-32
-1.67258e-37
1.1326e-36
-1.86614e-37
1.37682e-38
-3.34699e-36
-6.23719e-52
-2.90336e-53
1.3448e-53
2.71139e-53
5.73717e-51
3.6489e-52
-7.1461e-51
3.65315e-51
-1.27432e-51
1.13645e-54
-2.08672e-54
-1.76317e-56
-2.4327e-54
2.88795e-54
6.49274e-52
-6.86655e-52
7.06163e-52
2.18854e-10
3.33785e-09
6.37099e-10
-8.47407e-09
2.02599e-11
-5.38854e-13
1.98914e-11
-9.63913e-11
3.39129e-09
2.61679e-12
3.60262e-12
-1.79983e-11
1.12213e-12
1.40728e-11
-3.08646e-11
-1.03267e-10
1.73358e-10
1.56143e-08
2.3871e-08
-2.4817e-08
-2.66733e-08
-5.67265e-09
6.06968e-09
1.1803e-08
-5.18873e-09
9.77622e-10
-6.70099e-10
2.23363e-09
-5.18485e-10
6.75736e-09
-1.2321e-09
2.00918e-09
-1.65422e-11
-1.86079e-10
-2.68198e-09
-3.18792e-09
2.63549e-09
-8.07575e-09
1.50562e-08
-1.23245e-08
-8.40056e-11
-2.86061e-09
6.91637e-08
1.04874e-08
2.99891e-07
1.09352e-08
1.59724e-08
4.31964e-11
-8.1161e-11
-8.74695e-11
5.77536e-12
1.04649e-08
1.09085e-08
2.59399e-10
-2.49714e-10
1.23707e-09
1.97135e-08
-2.42963e-10
1.46428e-09
-7.96286e-11
1.50468e-08
-7.71798e-09
-4.49773e-09
-2.83113e-09
-2.60372e-08
-1.17747e-08
5.28587e-08
-1.06908e-08
-2.30642e-08
2.54623e-09
-3.57481e-08
2.14272e-08
-2.6373e-08
2.44215e-08
8.28326e-09
-5.47223e-08
-4.11539e-08
2.75341e-08
1.28749e-08
-5.20117e-08
-1.52792e-08
-1.00212e-08
5.28348e-08
-1.73633e-09
8.34405e-08
-1.39247e-07
4.63475e-08
-2.94909e-07
-1.01914e-07
5.82574e-07
1.09061e-08
-2.59466e-07
-3.81724e-08
-1.60407e-07
9.91943e-07
5.0314e-07
7.1725e-07
-2.15138e-06
4.55858e-07
1.01743e-07
4.35383e-07
4.92291e-07
4.68034e-07
-4.99221e-07
-6.08076e-08
1.05408e-06
-7.43275e-07
7.14704e-07
8.15939e-07
-7.71024e-07
7.98249e-07
3.76583e-08
4.39385e-08
-8.54183e-09
-1.24323e-07
-3.26004e-09
2.46882e-09
1.66589e-08
2.47062e-08
-1.2655e-09
-3.09552e-09
8.99675e-10
2.19537e-08
-4.2377e-08
2.84523e-08
1.35262e-08
-1.08274e-08
-1.04347e-07
-7.3164e-34
1.00281e-35
-1.45522e-35
1.06066e-35
7.74188e-34
-3.81459e-32
-8.98395e-33
-6.05395e-35
4.60012e-36
2.91928e-33
3.86388e-33
-1.86785e-29
4.83842e-32
-9.39314e-32
1.07434e-34
4.70439e-35
1.61637e-33
1.82262e-34
3.63737e-33
-4.59258e-36
-6.97066e-34
-1.8277e-36
-7.74871e-49
-4.49224e-47
-2.54671e-48
4.0325e-48
-3.67133e-47
-1.65259e-47
-5.15414e-50
-5.06173e-46
-3.2381e-46
1.30051e-45
2.66371e-46
-4.0279e-45
5.27015e-44
-9.69573e-42
5.49079e-46
-3.13839e-45
1.2277e-45
-4.19581e-55
3.51504e-55
-1.36157e-57
-7.75697e-60
2.72264e-53
-2.09604e-53
-2.47011e-51
-3.26999e-55
6.79758e-55
8.75786e-51
5.11434e-54
-1.75968e-51
4.52823e-51
4.82479e-51
3.94449e-54
5.19491e-57
-2.8122e-57
8.01683e-55
3.78874e-52
-4.2406e-58
2.27375e-54
-9.97199e-57
5.24006e-47
-2.01185e-48
-1.82107e-46
4.13359e-47
-2.26753e-49
5.29557e-51
2.99428e-50
-6.59558e-48
-5.25894e-49
9.26678e-44
3.20397e-44
-1.30685e-43
4.41505e-49
1.97192e-46
-4.46929e-47
1.32002e-48
-1.9026e-45
-1.28093e-46
-1.25896e-45
1.09034e-46
2.28013e-46
-6.38784e-46
4.20482e-46
-4.09171e-48
2.6617e-43
-1.28516e-41
3.88695e-49
-1.95589e-47
3.39372e-48
-9.23921e-49
4.94035e-49
4.325e-47
-4.18787e-49
3.99398e-46
-2.30288e-45
2.13397e-45
-3.38695e-51
1.69432e-46
9.10836e-44
-4.08347e-47
-2.3791e-42
8.69083e-48
3.45163e-44
9.51056e-51
-1.22096e-49
-5.17685e-50
1.88932e-48
3.20401e-48
7.25286e-49
-5.39302e-47
6.17678e-48
4.48017e-52
5.59283e-52
1.30813e-52
-3.10023e-50
3.48703e-51
9.34404e-51
-3.45704e-49
1.51477e-53
2.2311e-53
-1.88451e-52
3.16281e-54
2.64197e-52
2.11735e-54
-1.15607e-52
1.79381e-54
3.21634e-55
7.05283e-54
-3.08402e-57
2.9781e-57
1.06504e-58
-9.69857e-65
9.4422e-56
-1.0039e-58
-9.74301e-56
-1.6244e-63
3.95987e-57
-2.32103e-64
1.26318e-60
9.76966e-61
-2.29985e-63
-1.37586e-63
8.85504e-61
-1.01265e-58
4.22985e-62
1.54545e-68
1.80559e-69
-4.60966e-75
-1.726e-68
-3.08193e-70
5.19597e-74
9.32957e-70
5.44121e-75
-3.15709e-79
1.86742e-77
-6.77872e-78
-4.65265e-75
-4.22036e-75
5.19584e-74
-5.63534e-79
5.30921e-75
2.37037e-77
-1.56075e-79
-3.68701e-77
-4.79641e-79
2.44987e-76
-1.77418e-77
2.87578e-76
-6.02558e-89
-9.91994e-83
-4.18707e-75
-6.11073e-88
-1.47308e-84
2.7212e-79
-2.63098e-89
-8.5308e-86
-2.17179e-86
1.67346e-86
-2.80115e-91
8.63972e-86
-2.17889e-85
-1.49138e-84
3.43883e-86
-1.01205e-82
-2.06152e-96
-1.69202e-96
3.89559e-97
5.57696e-97
3.15477e-94
3.67065e-94
-8.8507e-92
-4.52061e-96
-2.32732e-96
4.90323e-98
-5.44604e-97
1.91507e-98
-7.42191e-98
7.07631e-98
5.36531e-96
6.05107e-96
1.73181e-97
1.53142e-95
2.25407e-95
-3.35419e-96
-1.69752e-94
2.28814e-94
-1.54707e-92
1.52383e-92
-2.59777e-96
3.16337e-96
-1.09514e-94
3.48778e-95
3.54934e-93
-5.03062e-91
1.03174e-92
-2.27281e-92
6.49933e-99
-1.68029e-80
-5.25422e-82
1.47243e-81
1.36033e-80
-1.48882e-79
1.07819e-77
-1.06669e-77
9.58532e-82
-1.50583e-79
1.33679e-82
-2.6766e-84
7.41959e-84
-1.41573e-81
2.35237e-81
-4.98568e-82
3.22474e-79
5.80186e-84
8.78847e-99
6.43555e-98
2.02071e-96
-9.75016e-98
5.84227e-81
2.76934e-79
-2.82777e-79
1.37415e-81
1.14179e-81
1.31836e-77
3.25885e-76
-3.38461e-76
1.26723e-78
-1.22522e-77
-9.51912e-80
2.25487e-76
-1.65012e-85
-2.13975e-83
7.16087e-83
5.57208e-86
3.2244e-79
8.74883e-76
-5.98969e-96
-2.42356e-73
-5.36932e-98
-8.57027e-99
-5.09188e-75
-7.6058e-74
-1.02708e-74
3.67024e-74
-4.92601e-75
-1.88689e-76
-2.31657e-77
-5.63312e-74
-3.64036e-74
3.41693e-74
-3.48135e-74
-3.18043e-77
-7.61249e-72
7.63032e-72
-5.56457e-72
-6.69941e-69
-5.65481e-72
2.95014e-78
2.45963e-77
-4.63248e-77
-3.76336e-77
6.75664e-79
-1.69741e-78
5.65521e-79
-3.84626e-77
4.25956e-77
4.36868e-75
8.55249e-76
-6.0414e-75
1.2004e-75
2.03412e-75
-7.65421e-78
6.98877e-77
3.72412e-78
-3.28894e-78
7.29159e-82
-8.82103e-81
-6.70098e-72
-1.55228e-73
9.33136e-73
2.09184e-73
7.77273e-71
1.0106e-70
-6.20234e-70
1.80817e-71
1.40273e-73
-6.8498e-73
-1.76971e-73
1.39475e-73
-8.65119e-71
8.48608e-71
-2.86293e-71
-1.98102e-71
4.76611e-71
-3.52616e-69
3.40373e-69
6.81089e-69
-1.07759e-68
3.4542e-69
-2.03492e-67
-9.32916e-65
8.0167e-66
2.57021e-67
-4.60484e-67
1.84964e-65
-1.69354e-64
-2.19369e-63
-4.23476e-64
-2.17615e-63
-1.03734e-66
-1.92421e-64
8.45995e-66
2.52927e-64
-2.54211e-64
-2.14742e-63
-1.14711e-63
7.44899e-63
-2.69047e-63
-6.17451e-62
1.90527e-61
-1.51048e-61
-1.18138e-61
-1.54868e-57
-2.49609e-58
-8.90931e-62
2.14209e-62
-1.25295e-62
1.51753e-59
-1.5498e-59
5.5022e-57
-9.66739e-55
4.87308e-57
1.53529e-44
-1.51634e-49
-5.00503e-42
4.67863e-42
-3.41617e-51
4.6915e-46
8.87626e-47
-5.76101e-51
-1.84655e-49
1.40454e-40
-1.54951e-47
-1.45459e-40
1.95413e-43
1.16514e-41
8.64395e-49
-3.36645e-50
-1.65105e-47
-4.50942e-46
2.27257e-44
-6.39062e-49
1.8663e-47
-6.98692e-49
-2.52053e-46
-6.1716e-46
8.58877e-46
9.76394e-48
7.75212e-47
2.30016e-44
-2.34862e-44
-9.05056e-44
1.65026e-44
6.27621e-43
-2.70024e-41
8.07288e-43
-1.46671e-43
7.50859e-44
3.67926e-41
-6.37744e-41
5.2455e-43
1.16162e-39
6.3727e-40
-6.11488e-39
-2.9264e-39
-1.14792e-40
-2.88616e-40
4.98353e-40
-1.23795e-40
2.32202e-38
1.07888e-38
-4.44293e-38
1.5393e-37
-9.40341e-36
-1.26636e-38
3.69401e-38
-1.93639e-38
6.38664e-41
4.68866e-42
-1.59942e-40
2.39115e-41
1.18571e-40
-1.43585e-39
1.31934e-39
8.16121e-42
8.89181e-43
2.19044e-37
-7.22886e-39
-2.19697e-37
1.67665e-41
8.95135e-38
-1.79923e-39
3.39533e-40
-4.07061e-38
-1.27521e-42
-7.62649e-42
2.66182e-42
1.90075e-42
-8.20396e-42
-6.94581e-43
-5.91449e-40
3.76863e-45
2.35378e-41
2.83498e-44
-2.47719e-35
-2.89323e-36
-1.37335e-36
4.38716e-36
3.63622e-35
-3.13962e-33
-2.52792e-35
-3.04583e-35
7.08544e-37
6.1045e-34
1.55644e-33
-2.23663e-33
1.02551e-36
1.42511e-36
3.46103e-33
-8.13585e-33
4.29392e-34
-2.6155e-35
-7.17773e-34
-1.94754e-35
4.7687e-35
-2.2504e-35
-3.21491e-35
-2.02379e-36
-7.62084e-36
-3.36713e-33
-2.47661e-31
3.22322e-33
2.43296e-31
1.16038e-32
-2.86328e-31
2.24816e-33
-3.04255e-34
4.76156e-33
-8.10652e-27
-2.75443e-25
-3.02001e-26
1.62512e-26
-1.13019e-25
-3.34331e-26
6.71144e-27
-3.04008e-25
-1.20886e-24
-1.48428e-24
1.53404e-24
-5.13323e-24
2.71668e-23
-4.1683e-23
-1.4775e-26
2.51034e-25
-2.979e-25
2.07325e-48
2.14831e-48
2.08799e-48
-6.36513e-48
-2.62161e-49
1.56789e-52
7.55832e-52
1.19424e-48
-2.55285e-48
2.94586e-54
-4.18407e-51
1.80773e-53
-9.95238e-54
1.86817e-54
-2.38239e-50
3.78896e-52
-1.02981e-48
-2.14365e-63
-9.89847e-61
8.15852e-64
3.8368e-62
-2.23756e-61
1.08248e-61
5.24049e-63
5.54713e-60
-7.80871e-60
6.83102e-65
-4.19594e-65
-4.26276e-68
-3.44655e-67
3.09601e-65
1.33309e-65
-3.26083e-65
-5.26258e-65
-2.11252e-65
6.66579e-67
-8.27768e-63
2.20461e-64
-1.78854e-62
4.27935e-67
4.30061e-67
5.66125e-67
-2.04011e-65
3.70879e-71
3.65216e-71
-1.58105e-70
2.92254e-71
1.91249e-71
-1.66004e-71
4.12805e-73
2.10183e-71
1.12654e-71
1.87776e-71
-2.03089e-73
5.2938e-73
4.41703e-73
1.8728e-60
2.48089e-61
-1.97651e-58
1.94821e-58
-1.14292e-61
-8.55618e-62
4.02955e-61
-5.2145e-62
1.98402e-63
3.7359e-61
1.66645e-59
-1.71213e-59
2.80556e-61
3.36063e-64
-7.10745e-60
2.63525e-60
-1.99184e-58
-3.13818e-67
-2.68822e-66
-1.29324e-65
1.63451e-67
-1.17752e-66
-2.60659e-65
6.21609e-67
-8.79806e-67
-2.01558e-64
-1.13047e-64
-2.22235e-64
5.80291e-63
-6.89286e-64
-4.37939e-63
-6.15371e-64
-6.44866e-64
-1.71549e-63
1.47667e-43
4.03151e-44
-2.09829e-44
-1.73115e-43
-1.05015e-46
6.20041e-50
2.61448e-46
1.02204e-47
-2.06656e-48
-9.78507e-50
4.03528e-50
5.07552e-50
-4.45283e-48
-5.06967e-48
9.36105e-47
-2.47205e-44
6.04389e-49
-3.05008e-35
-2.44135e-33
-1.53204e-34
8.40937e-35
-1.40766e-33
-7.66073e-35
3.27676e-36
-3.07126e-33
-3.93567e-32
-3.42219e-32
-5.28129e-32
7.00956e-32
-2.99159e-33
-4.49731e-32
-3.57846e-31
-7.94561e-31
-4.51471e-31
2.20861e-24
7.75498e-26
1.33712e-25
-2.16875e-22
-3.3527e-28
4.27889e-27
1.90751e-24
1.44706e-28
-1.12867e-30
-3.65754e-32
-5.96236e-34
6.42705e-31
-1.16578e-30
-3.57605e-35
-1.28515e-27
7.82647e-34
5.56406e-27
2.17612e-29
-1.43315e-29
-2.46673e-31
3.22128e-33
1.99512e-29
-2.52219e-37
2.04527e-37
3.9757e-38
-1.05919e-40
3.6918e-38
2.97388e-36
1.3709e-37
2.45456e-40
-2.11655e-40
3.18828e-40
1.09634e-39
7.50105e-42
2.01293e-41
-1.41689e-44
-2.7703e-39
3.08297e-39
-5.497e-43
-6.51361e-44
-3.89171e-38
3.00384e-36
-5.1874e-44
6.42761e-24
5.77747e-27
-5.30425e-25
-5.90514e-24
-4.78001e-28
-1.3065e-27
3.0256e-24
-1.94025e-50
-3.86144e-44
-3.67547e-47
2.25283e-49
-4.67122e-49
2.45009e-47
-3.86916e-44
2.75296e-27
-1.27533e-38
-5.33178e-25
-2.28801e-41
7.42377e-32
3.65985e-41
-1.27899e-38
9.44532e-44
1.64726e-45
2.17413e-41
-2.17778e-41
-1.79131e-48
9.46895e-46
-5.87987e-45
-8.33132e-45
1.39896e-44
-8.20146e-45
3.04876e-45
-6.97355e-42
7.05597e-42
-2.22111e-41
1.41378e-41
-1.20047e-38
6.38123e-13
4.61681e-15
1.41747e-18
-6.42965e-13
-4.63422e-15
-3.54086e-17
1.51044e-18
2.37336e-18
1.06112e-18
-1.1753e-17
2.11471e-17
-7.82522e-33
2.91139e-17
6.90518e-10
2.37238e-10
-4.51981e-11
8.14528e-11
-1.35964e-09
7.87267e-09
-1.79028e-09
-3.23771e-10
1.75392e-09
2.21629e-10
-6.31964e-11
-5.41545e-12
-1.8546e-11
7.91483e-11
-1.53708e-12
-2.56696e-10
-7.68605e-13
-2.22028e-11
-2.75083e-10
-1.39902e-12
-1.77168e-11
-6.50978e-10
-3.12839e-11
1.71021e-11
-7.9213e-11
1.01728e-08
-1.38666e-09
1.51664e-08
1.96974e-09
-3.37256e-09
-2.95733e-11
-1.75672e-09
9.89695e-08
-9.94128e-08
-4.22955e-08
-8.62818e-07
-6.99043e-09
-6.26666e-10
8.62232e-09
3.68578e-09
1.15808e-09
-1.2026e-08
-9.26577e-10
2.584e-09
8.83871e-09
-8.26133e-10
-4.49393e-09
5.90642e-09
1.75351e-10
3.62926e-09
6.57874e-09
1.83397e-08
7.29333e-10
-7.57826e-08
6.58695e-09
-5.15783e-09
9.6336e-09
3.33017e-09
-2.94145e-09
5.41649e-07
-8.37503e-07
4.82118e-07
-1.48912e-07
6.97821e-07
-7.26468e-09
-1.42197e-07
-8.02711e-07
2.13831e-07
-3.88548e-07
1.14099e-08
-5.6093e-07
2.18246e-06
-2.02623e-06
2.35296e-06
-1.26656e-09
2.2857e-08
6.35307e-08
-4.337e-08
2.12173e-07
2.07624e-08
2.34433e-07
-4.67369e-07
1.2986e-08
2.35837e-08
1.75603e-07
1.80133e-08
1.57351e-08
3.13977e-08
-2.00946e-09
-1.1375e-08
-2.11475e-08
6.82803e-08
3.85623e-08
-1.69881e-08
2.51848e-07
7.4969e-09
6.67625e-08
-3.88206e-08
-3.54388e-08
3.84259e-08
-1.10271e-08
-1.99019e-08
2.01863e-08
8.5002e-08
6.68676e-09
4.1623e-08
-8.71303e-08
1.7875e-08
-2.22154e-08
1.66837e-07
-6.77713e-08
-7.88799e-08
-3.90582e-07
6.42421e-07
-1.30728e-07
8.08317e-08
-4.79687e-07
8.20183e-09
-8.47946e-08
-3.39155e-08
-2.0584e-07
-2.54029e-08
1.15739e-08
1.90795e-08
-5.2505e-09
6.41931e-08
7.12238e-09
-9.67185e-08
1.19312e-08
6.38355e-08
-1.88747e-08
9.73404e-08
-5.93862e-08
6.41473e-08
-7.58998e-08
6.65864e-08
-1.02292e-08
-4.4426e-08
4.11618e-09
1.26306e-07
-1.21813e-07
2.23269e-07
-6.78951e-08
1.38779e-08
1.6726e-08
5.35727e-09
-3.59612e-08
5.92079e-09
9.66055e-09
-1.70344e-09
1.12718e-08
-7.51363e-09
3.54477e-08
-1.82735e-08
-1.91444e-08
-1.20596e-07
2.00148e-07
1.66699e-07
1.63092e-08
2.85613e-08
-3.66772e-09
5.74921e-09
-2.36133e-08
1.04372e-08
1.53154e-08
-2.13933e-09
6.31523e-08
1.65516e-08
-1.03317e-07
3.08595e-08
4.27301e-08
-6.51441e-09
7.42595e-08
-5.24296e-08
6.66962e-08
-5.66589e-08
3.23868e-08
6.5169e-08
1.49376e-07
-1.16668e-07
8.09038e-08
2.02463e-07
3.02562e-08
4.34904e-07
-5.81822e-07
6.67338e-08
-4.47969e-08
2.37836e-07
-7.70449e-08
2.55517e-07
-9.74595e-08
4.55318e-07
3.71077e-08
-1.18567e-07
1.28449e-07
-9.61414e-07
8.98153e-07
-9.40932e-07
8.90746e-07
-2.20616e-08
8.11121e-08
-3.39658e-07
2.38777e-07
7.25535e-08
-3.25031e-08
2.49997e-07
1.65841e-06
-1.48901e-06
7.69558e-07
-9.6302e-08
-1.46934e-07
-4.70043e-07
6.96451e-07
8.46621e-07
-6.69738e-07
-1.0455e-07
3.35306e-07
3.76195e-07
-5.70412e-07
2.71135e-07
6.34584e-07
-2.22101e-07
2.98907e-08
1.48072e-06
-1.83327e-06
7.94972e-07
-2.72126e-10
-6.48057e-11
-6.21433e-12
1.45695e-10
-1.11763e-12
1.93925e-10
-5.91343e-10
-3.33845e-10
-6.60223e-12
-5.60157e-11
-2.63026e-10
2.02232e-10
-1.1749e-11
1.89897e-11
2.51889e-10
-1.68588e-09
2.83852e-11
-2.69377e-15
2.72882e-16
1.02971e-16
-2.06241e-17
9.17905e-17
-3.03349e-13
3.00203e-13
3.69334e-17
-1.27674e-21
3.1828e-13
-4.4683e-15
-6.39094e-11
-1.13615e-18
6.17703e-13
-1.83009e-16
5.84043e-17
-4.65618e-15
-2.87947e-17
-1.43676e-16
-1.01764e-15
1.17916e-16
-5.36758e-17
-6.59072e-18
2.01006e-18
-1.50825e-15
-1.27662e-16
-1.17939e-16
7.3891e-17
2.03579e-17
-1.98592e-14
-6.9541e-15
-7.90715e-15
-1.08666e-13
-9.09505e-15
-2.35321e-16
1.96928e-17
-1.48402e-17
2.30582e-18
2.95562e-16
-5.02765e-15
-5.11407e-16
-2.23999e-17
-3.80786e-20
2.59627e-14
2.91184e-15
-2.24008e-13
1.23995e-15
2.1936e-14
2.45974e-16
2.8904e-17
2.82358e-16
8.86525e-17
1.35703e-15
-4.38101e-18
2.61238e-19
-4.48934e-18
-2.71367e-24
1.65564e-24
4.3501e-25
4.82086e-25
1.19482e-23
-3.80476e-22
2.39636e-22
-5.86036e-21
1.42802e-21
6.56866e-21
-3.07959e-21
6.13396e-22
1.77592e-21
6.82915e-23
-8.70609e-23
-3.42065e-21
-4.16215e-24
7.50451e-23
2.33428e-23
-5.40135e-22
7.18288e-24
-1.37323e-31
6.95774e-36
9.25604e-35
1.34169e-31
1.09038e-33
1.68622e-32
-1.6037e-31
7.21417e-35
6.81363e-35
-1.04084e-33
4.11816e-35
7.03954e-35
3.68659e-32
-2.24618e-30
-2.27746e-34
4.88618e-36
2.41871e-34
2.40308e-55
4.67986e-55
6.2674e-55
-1.4087e-54
-9.69429e-58
3.08652e-57
1.71133e-57
1.46836e-56
-1.55298e-57
-2.17845e-58
-1.86507e-54
1.86016e-54
-2.60616e-57
4.35659e-58
-5.87293e-56
-1.7524e-54
-5.12289e-51
-2.54309e-49
-2.18193e-51
7.32219e-51
-1.64606e-50
-1.31434e-49
-6.82661e-52
-1.36821e-47
8.61347e-50
-9.37524e-49
1.98996e-49
4.8219e-50
-2.31205e-47
4.50062e-48
9.21685e-47
-1.45421e-46
1.43281e-47
7.02381e-45
2.52379e-45
-6.51771e-44
-8.31338e-49
1.46186e-45
-7.51293e-51
1.04568e-48
1.64089e-51
3.31353e-50
-2.96087e-67
2.93085e-67
2.73521e-69
-7.94024e-73
2.38806e-65
-2.32674e-68
-2.41649e-65
-1.35327e-69
4.42467e-66
-2.44192e-72
1.3697e-69
8.52811e-70
-1.03065e-70
-3.43037e-71
3.27919e-70
-2.37912e-68
1.51718e-71
-1.03302e-75
-2.33072e-73
-7.24998e-79
2.34105e-73
-1.0558e-75
2.2512e-77
-1.1765e-81
-6.26677e-77
-8.35992e-72
-2.61062e-80
9.14434e-80
1.12707e-79
-3.16217e-81
-1.03641e-79
7.06845e-79
-6.34475e-77
1.22239e-80
-3.15376e-97
8.59804e-98
1.6401e-97
2.90014e-98
3.7396e-95
3.26371e-95
-8.6727e-94
4.62202e-93
-4.75265e-93
1.06551e-94
3.30038e-92
-3.30974e-92
4.77402e-95
3.58813e-98
-1.80538e-90
1.81002e-90
-1.78002e-90
6.64352e-111
-3.90207e-110
1.50747e-111
7.93001e-111
2.14731e-108
2.91945e-108
-3.4285e-107
6.99775e-108
-7.58414e-107
6.67165e-113
-3.61692e-111
1.48889e-113
-1.72139e-110
1.51741e-110
4.57422e-111
1.76685e-110
5.50111e-108
-2.3323e-103
5.03904e-103
-1.37157e-102
-4.28255e-106
1.4813e-86
-4.89376e-88
-8.68864e-85
-1.48973e-90
4.81505e-90
3.47959e-102
4.59695e-100
-5.1624e-100
1.27932e-102
2.83123e-90
-4.92225e-88
2.41841e-94
-4.81321e-104
-2.69474e-92
-5.53849e-89
1.67902e-89
9.4843e-105
-1.28658e-104
-8.27106e-102
-1.08852e-91
8.18586e-92
-9.55565e-102
4.46504e-102
5.14356e-105
1.81559e-99
-1.83726e-99
8.05455e-92
-1.89625e-91
1.83207e-92
2.18327e-94
-5.52962e-89
1.19334e-99
2.4294e-97
-2.46002e-97
1.37562e-100
9.98112e-101
-2.68437e-88
2.68437e-88
-4.62562e-90
-2.63811e-88
1.44397e-91
-2.1212e-90
7.32675e-92
-1.81007e-89
-7.41715e-90
-1.44487e-91
5.22703e-89
-7.03011e-89
-5.67164e-87
1.4634e-87
3.13638e-87
2.94308e-87
-9.63851e-87
-6.45223e-90
4.57466e-93
1.09481e-88
3.84162e-89
-3.99919e-98
4.55056e-99
1.48896e-97
1.66128e-79
-2.80022e-78
2.45151e-78
2.98722e-80
-1.98743e-76
2.6342e-78
1.40423e-79
5.20485e-74
-6.0682e-74
-1.55254e-71
-3.21839e-75
1.55285e-71
-3.04678e-72
-1.24787e-71
8.24011e-73
-3.82817e-72
1.93084e-76
-1.00814e-67
-2.22722e-67
-2.95502e-68
-3.51581e-68
-7.25569e-66
3.65639e-66
-4.12753e-68
-7.00872e-66
-1.45312e-66
3.50174e-67
4.60138e-69
2.09389e-65
-3.06424e-63
6.05136e-66
-1.58849e-65
5.84143e-69
6.97039e-62
4.38491e-60
-7.4535e-61
-4.81094e-60
6.01865e-61
-5.36126e-61
4.86877e-64
-2.28351e-58
5.00411e-59
-1.77948e-59
1.79443e-58
-1.66067e-58
1.33982e-59
-2.19823e-57
1.12454e-59
3.84404e-62
-1.84422e-56
-1.60467e-62
-2.90761e-61
-3.51043e-61
-1.77378e-59
9.34003e-58
-8.44709e-55
7.58941e-55
1.17309e-57
-1.02007e-54
4.95413e-55
1.27735e-55
8.90878e-53
-9.12508e-53
-6.53537e-52
-2.48168e-52
1.66396e-52
-5.11594e-50
3.56206e-50
3.17545e-51
-2.04977e-49
7.09342e-53
2.73986e-58
2.25838e-53
-3.27996e-53
2.45646e-54
5.98453e-53
-5.98654e-53
-6.35702e-52
-1.7338e-50
1.78584e-51
-1.88238e-51
-1.13427e-50
-5.95387e-52
-8.24948e-49
6.5366e-48
2.36378e-48
-2.695e-47
1.59187e-47
-2.79178e-49
-7.14334e-49
-4.0601e-49
-9.30253e-50
6.48231e-50
-1.35868e-47
-2.47714e-48
-7.79036e-48
-5.42912e-47
-1.41709e-47
4.18815e-47
-3.69377e-47
-1.50694e-46
2.38389e-45
-2.39661e-45
-1.78887e-46
-3.54e-43
-1.18807e-43
-2.21566e-45
1.99599e-45
-3.04989e-47
-1.54971e-45
-3.51952e-45
1.73026e-42
-3.63505e-41
-4.04055e-41
-6.76775e-37
-4.93878e-36
-1.15751e-37
1.69981e-36
-1.29884e-36
-2.5706e-36
-5.32174e-38
-2.49973e-35
-1.29459e-36
-2.06846e-35
1.12498e-35
4.53386e-36
-2.25525e-35
-2.80993e-36
1.47012e-34
-2.59042e-34
-2.53601e-35
-6.46886e-35
1.87268e-37
4.5002e-36
1.60977e-36
8.76592e-35
2.41292e-34
-4.48064e-33
1.72003e-38
4.55103e-36
1.88689e-32
-8.65993e-33
-4.42296e-31
-1.23506e-34
1.29816e-32
-3.35007e-34
3.56198e-34
2.11078e-36
4.93676e-33
-8.16721e-33
7.91684e-33
-8.29846e-32
1.2118e-34
1.71311e-32
5.77892e-33
1.20032e-31
-1.44526e-31
-3.81192e-34
3.24056e-34
2.45276e-34
2.80485e-34
-3.18603e-34
-1.32086e-35
-2.08027e-33
5.6154e-34
-2.61952e-35
-3.20052e-34
9.59601e-35
9.35417e-32
2.00019e-25
3.0795e-26
-2.49631e-25
1.0911e-24
-6.33961e-24
5.31202e-24
6.17276e-27
9.59737e-27
1.8769e-23
1.76748e-24
2.98172e-25
2.16016e-23
1.62209e-24
4.05801e-23
-3.19694e-24
7.1996e-23
-2.67808e-22
-2.25988e-24
4.59712e-24
-9.48089e-27
-2.24563e-20
2.23717e-20
-1.25219e-19
-2.74346e-19
-1.56193e-18
-1.04912e-19
-7.92826e-21
-1.86549e-18
-5.68695e-20
-9.58924e-18
6.32702e-19
3.76202e-16
1.623e-16
-4.01073e-16
3.06323e-19
1.62748e-16
2.30739e-18
-5.73572e-18
1.56311e-23
-1.73649e-21
9.67103e-24
4.55044e-23
-2.1965e-21
4.57402e-22
6.97253e-22
-3.39273e-19
1.10329e-23
-1.73266e-21
1.66004e-21
-1.24866e-23
4.83778e-24
7.02744e-23
-1.43332e-21
-4.48107e-22
-1.45831e-23
9.41838e-24
-5.48036e-23
6.55902e-23
-2.6601e-21
1.50683e-29
8.65386e-30
2.95933e-30
-1.6294e-28
2.68418e-33
3.7449e-32
5.21028e-33
2.82355e-33