/*--------------------------------*- C++ -*----------------------------------*\
| =========                 |                                                 |
| \\      /  F ield         | OpenFOAM: The Open Source CFD Toolbox           |
|  \\    /   O peration     | Version:  v2012                                 |
|   \\  /    A nd           | Website:  www.openfoam.com                      |
|    \\/     M anipulation  |                                                 |
\*---------------------------------------------------------------------------*/
FoamFile
{
    version     2.0;
    format      ascii;
    class       volScalarField;
    location    "0.05";
    object      alpha.water;
}
// * * * * * * * * * * * * * * * * * * * * * * * * * * * * * * * * * * * * * //

dimensions      [0 0 0 0 0 0 0];


internalField   nonuniform List<scalar> 
6576
(
0.999692
0.999678
0.999851
0.999949
0.999971
0.999973
0.999972
0.99963
0.99918
0.999959
0.999944
0.999199
0.999209
0.99996
0.994676
0.994692
0.994676
0.999412
0.999571
0.99947
0.999677
0.999209
0.999972
0.999952
0.994755
0.999802
0.997905
0.999969
0.998465
0.998463
0.999975
0.999647
0.999521
0.999442
0.997506
0.994781
0.994781
0.999064
0.994797
0.999443
0.994797
0.999473
0.999569
0.999566
0.772839
0.955443
0.422519
0.999731
0.999999
0.999996
1
1
1.59281e-85
2.31607e-85
1.71284e-85
1.59281e-85
9.21607e-86
1.83389e-86
1.36003e-85
1.16197e-77
2.09251e-77
4.32675e-77
1.2065e-75
1.65819e-76
7.1657e-77
4.83875e-77
1.42388e-60
1.65032e-62
1.19767e-62
2.43901e-63
3.70628e-62
1.83641e-63
2.12888e-64
1.23265e-57
5.71822e-55
4.60256e-57
1.22185e-57
1.22185e-57
2.29831e-57
1.22185e-57
6.14772e-55
1.60083e-55
2.90888e-56
1.29385e-56
5.11252e-52
7.35147e-50
2.10433e-56
2.4928e-12
2.37031e-10
8.3702e-13
5.74727e-13
2.7694e-07
6.0371e-13
5.89777e-13
0.999946
0.997716
0.999639
0.739931
0.965645
1
0.998962
1
1
1
1
1
1
1
1
1
1
1
1
1
3.15596e-08
0
1.36866e-07
6.42205e-11
0
4.17627e-13
2.34921e-08
0.308551
0.77558
0.4245
0.976351
0.952204
0.978841
0.976287
-7.09375e-31
1.48942e-31
0
7.79062e-10
-8.73387e-31
2.44806e-10
2.19453e-29
1.93803e-66
1.31071e-70
7.89829e-68
2.91162e-65
2.33713e-67
6.57108e-68
2.33715e-67
2.3002e-57
1.08241e-56
4.01871e-58
4.98138e-53
3.3476e-57
1.3369e-57
3.05599e-57
3.27156e-53
1.64111e-53
3.27156e-53
6.57562e-52
3.24809e-54
4.1026e-52
1.5453e-51
3.43576e-48
2.63933e-47
6.66858e-46
3.75091e-47
3.86097e-46
4.00055e-45
4.04203e-47
2.3349e-45
1.39378e-47
3.83219e-43
8.99606e-43
8.99606e-43
1.24642e-41
3.61814e-45
2.79854e-42
2.40286e-41
4.08285e-37
6.79953e-37
6.6217e-37
1.6433e-35
1.36807e-35
1.41093e-37
1.18663e-35
1.94354e-37
7.9514e-38
5.35232e-20
1.42236e-19
2.90956e-18
2.02452e-19
2.32325e-19
4.65721e-18
6.61497e-21
1.09269e-18
1.05474e-18
7.66193e-17
5.04579e-17
7.66193e-17
4.19152e-17
4.60785e-16
5.34258e-16
5.46003e-16
1.18162e-12
5.50066e-13
1.08824e-11
1.31052e-12
7.21774e-14
6.82998e-12
1.2372e-11
1.70588e-11
7.71751e-11
7.71751e-11
2.75555e-11
1.64891e-11
1.26324e-10
8.89812e-10
2.59313e-05
7.47483e-06
6.23323e-05
0.000132488
5.85528e-05
0.000126654
9.25575e-05
9.36587e-19
3.28283e-18
2.54347e-17
8.96004e-19
1.10908e-18
1.19936e-18
5.26621e-17
7.61045e-21
5.95346e-19
2.39228e-20
3.66198e-19
1.11299e-20
3.18591e-20
3.1591e-20
3.23874e-23
1.44048e-23
1.33329e-22
4.17307e-22
8.26214e-19
3.30537e-23
1.17438e-22
1.09802e-30
2.25915e-29
9.77306e-29
4.82842e-29
4.01059e-29
1.4735e-26
5.9594e-30
1.6675e-35
2.53711e-42
4.10396e-40
1.29161e-35
1.20137e-32
1.82262e-38
7.49962e-38
3.3322e-38
3.66831e-39
3.51921e-50
6.10192e-53
1.34748e-50
4.87586e-46
2.70222e-49
1.99134e-50
2.70009e-50
1.06899e-82
4.38994e-82
2.21875e-79
3.60852e-87
1.52225e-84
2.1777e-85
5.91169e-87
1
1
1
1
1
1
1
1
1
0.99587
0.991463
0.991764
0.999988
0.999979
0.942451
0.602403
0.000178004
0.00016951
4.74233e-05
0.000119264
5.04067e-05
0.00095158
0.000741015
0.00079381
0.000960773
0.998491
0.999786
0.999988
0.00163005
0.00274196
0.00266525
0.00204136
0.00201901
0.00203426
0.00234943
7.74557e-54
6.73761e-49
6.97409e-52
5.38909e-52
2.06929e-54
1.19631e-52
1.54338e-52
1.69082e-33
1.43463e-36
1.2425e-31
6.63238e-35
2.52077e-35
7.69019e-29
1.04246e-32
6.63238e-35
2.56774e-33
8.31014e-48
1.2155e-47
4.66433e-47
2.3436e-49
6.6647e-49
1.05168e-48
1.6035e-48
0.000353656
5.43711e-06
4.64169e-06
4.90417e-07
4.8048e-07
4.09263e-06
5.77886e-05
0.00505438
0.000597916
0.00210333
0.000363309
0.000472496
0.000240511
0.000323596
0.00104645
0.00121485
1.26245e-05
0.0555093
0.00405475
1.32098e-05
1.40798e-05
1.6066e-06
0.00125283
0.000109504
6.4582e-06
1
1
1
1
1
1
1
1
1
1
1
1
1
1
1
1
0.987403
0.999927
0.999934
0.999961
0.999462
0.974837
0.997705
0.00684579
0.00186191
0.0010928
0.000720726
0.000738448
0.000584301
0.00126146
1.5558e-29
6.674e-28
1.75213e-29
4.46278e-25
9.18703e-28
1.50785e-29
6.28378e-29
6.80589e-29
2.24314e-30
1.26761e-42
1.15385e-42
1.30306e-41
8.2315e-41
1.74834e-37
1.21562e-40
1.82051e-42
2.03116e-50
5.33464e-47
7.99884e-49
3.72613e-48
3.48282e-47
5.00364e-51
3.50532e-50
1.37193e-48
5.00364e-51
4.38044e-43
9.54556e-47
4.76381e-44
3.8316e-41
7.96986e-43
4.2632e-43
1.29089e-43
5.16889e-42
9.21794e-43
8.62798e-38
3.81153e-43
2.54417e-43
2.34203e-44
9.21794e-43
-1.91139e-45
2.05393e-38
1.03544e-42
2.29319e-45
1.11081e-42
1.89614e-43
1.32796e-43
3.56052e-46
3.69372e-45
2.19531e-49
7.59627e-49
1.22253e-49
1.57188e-49
3.21568e-49
-3.7339e-57
2.33453e-55
4.02074e-57
6.79943e-55
7.11462e-59
-1.3077e-58
4.12254e-57
2.21274e-71
7.93944e-68
2.32731e-73
7.14818e-73
2.70931e-71
7.14963e-73
2.32825e-73
2.56718e-71
2.32825e-73
3.52258e-71
1.22508e-75
4.66153e-82
3.64251e-83
2.69453e-82
4.43333e-84
6.5797e-81
2.1377e-92
7.31584e-88
1.237e-91
2.72834e-92
1.88734e-93
8.65815e-92
1.58055e-92
5.34842e-90
6.62757e-91
6.62757e-91
7.45798e-91
3.60941e-87
7.45798e-91
2.22818e-93
2.63224e-77
2.65745e-76
2.99113e-78
1.85315e-79
1.61585e-76
2.94166e-78
1.8525e-79
2.41351e-92
2.27435e-90
4.76788e-92
-3.53908e-74
1.53626e-74
1.54481e-74
2.39128e-74
2.50421e-78
1.85315e-79
1.85315e-79
4.11337e-69
-1.99829e-101
2.41348e-92
2.45522e-69
1.36154e-72
1.21912e-70
2.3098e-71
2.84811e-70
7.90618e-65
2.84811e-70
5.79405e-73
1.38947e-73
5.1037e-73
9.94497e-72
9.945e-72
7.48469e-73
8.24653e-73
1.56489e-77
7.52823e-69
7.557e-73
5.49345e-68
4.49002e-66
2.91357e-67
5.49345e-68
5.49345e-68
5.49345e-68
5.70373e-67
1.51795e-65
5.54182e-67
7.97418e-61
6.59315e-67
1.78128e-60
3.71717e-59
3.01811e-62
1.41069e-61
3.04441e-63
4.03965e-61
8.75237e-62
3.41657e-57
3.41657e-57
5.48269e-54
3.41657e-57
3.64897e-57
1.41181e-50
2.23757e-54
4.96843e-39
8.98288e-46
4.49218e-46
-5.61279e-42
7.84357e-39
7.74032e-45
1.21897e-38
7.74098e-45
8.98288e-46
1.0257e-44
1.97807e-42
7.45916e-40
5.24882e-37
4.21609e-39
3.88682e-41
1.97807e-42
7.83478e-35
1.59485e-35
6.81438e-36
9.74822e-35
1.51779e-31
3.90421e-35
9.46198e-36
1.09881e-36
4.57302e-37
2.20439e-37
7.74411e-35
1.29271e-35
1.74716e-35
5.14325e-34
3.13229e-38
3.75176e-38
1.11052e-36
3.59063e-39
4.56081e-40
3.93783e-31
3.38753e-29
4.47661e-31
4.85694e-31
4.85694e-31
4.98003e-29
2.57219e-31
8.36369e-30
7.56881e-31
2.31264e-29
2.14391e-29
3.22623e-28
6.21285e-30
1.04459e-29
2.35462e-21
1.54089e-21
6.62606e-21
6.39691e-20
9.39034e-20
4.928e-21
3.31722e-21
5.86095e-46
8.23212e-48
5.86095e-46
2.76623e-47
2.14056e-48
6.15404e-48
4.49907e-45
3.95641e-57
7.17335e-58
1.053e-56
6.40534e-61
9.86372e-62
8.63311e-61
7.02703e-62
1.06361e-60
3.92841e-59
1.11822e-61
1.06921e-66
2.63817e-67
2.63817e-67
6.70254e-67
1.61613e-67
2.55101e-67
1.38731e-56
1.72547e-56
1.94609e-57
1.18863e-57
4.26228e-60
2.12433e-55
4.44682e-55
1.51415e-61
5.06383e-61
3.12527e-60
4.55205e-60
1.67479e-58
4.83968e-60
5.43933e-60
5.0531e-41
3.41465e-43
1.10108e-43
7.94036e-44
8.13316e-44
3.39361e-41
2.33598e-43
3.29671e-29
1.22723e-29
3.72623e-28
2.01824e-28
1.96948e-28
9.95807e-27
8.84633e-28
2.57519e-18
2.20252e-24
1.69491e-27
1.7162e-24
2.68629e-30
8.4928e-28
-1.19438e-24
2.41975e-27
1.22695e-26
8.39885e-35
6.15352e-27
8.62092e-34
6.66018e-33
2.07441e-37
2.0771e-37
1.46538e-37
8.39885e-35
9.29129e-41
9.83976e-24
8.06857e-24
3.59748e-43
6.80441e-43
4.19315e-43
-2.80019e-29
1.31906e-37
-1.23203e-39
8.94464e-43
-7.35288e-41
4.41062e-42
1.01456e-41
1.01444e-41
1.47244e-40
3.2254e-38
-9.20854e-36
8.27735e-12
1.06663e-05
4.56068e-12
4.56068e-12
4.53653e-12
2.24962e-11
0.000142726
0.000742477
0.000966278
0.00114036
9.33659e-05
7.08239e-07
2.95189e-05
7.08239e-07
9.3721e-07
1.58981e-05
7.08239e-07
7.08239e-07
0.00112572
0.00113551
0.00115343
0.000245514
9.34487e-05
0.00201633
0.0051045
0.0421123
0.000379498
0.000198385
0.000120095
0.00195252
0.000116445
0.000117485
0.000199138
0.00130942
0.0219496
0.00012719
0.000167648
2.63185e-06
0.999626
0.999998
0.995784
0.978246
0.654668
0.960424
0.982618
1
1
1
1
1
1
1
1
1
1
1
1
1
1
1
1
1
1
1
1
1
1
1
1
1
1
1
1
1
1
0.999999
1
1
1
1
1
1
1
1
1
1
1
1
1
1
1
1
1
1
1
1
1
1
1
1
0.913628
0.99851
0.722122
0.999905
0.999965
0.979233
0.999998
0.956205
0.841991
0.999659
1
0.999894
0.950246
0.994276
8.96832e-06
8.94477e-06
8.7673e-06
1.15911e-05
8.74374e-06
7.37009e-05
8.50273e-06
5.47118e-11
3.98501e-12
4.64562e-12
1.39776e-06
3.9778e-12
3.92293e-12
2.80729e-12
2.71065e-11
1.21443e-12
2.32826e-11
9.94948e-13
8.87244e-10
3.14631e-09
3.39964e-11
7.33941e-12
1.13306e-10
1.10713e-11
6.17006e-09
8.71683e-11
2.87823e-10
7.34039e-12
7.91123e-12
1.32444e-12
3.61e-21
3.6357e-18
7.92419e-17
6.41259e-14
1.49545e-16
3.40676e-17
5.40323e-17
4.93352e-18
5.31144e-19
1.17868e-28
1.47649e-28
1.00621e-29
3.62587e-29
9.23832e-26
8.62098e-30
1.60511e-27
7.38819e-52
5.51861e-53
7.38903e-52
5.51861e-53
1.24567e-55
6.36998e-52
3.32813e-51
2.61065e-45
9.96006e-46
6.90677e-44
7.14881e-45
1.82178e-43
1.70107e-43
1.39981e-44
3.77286e-40
7.01306e-44
1.39378e-47
9.14533e-51
6.82556e-45
1.76793e-66
9.42941e-65
1.37541e-61
3.42427e-67
1.77111e-66
9.20455e-67
6.98165e-68
1.71685e-75
1.28122e-75
5.82824e-68
3.92371e-74
7.74063e-76
6.79056e-76
7.6897e-77
3.39527e-94
4.79705e-90
1.14652e-90
1.07235e-91
2.2425e-94
1.07163e-91
2.98412e-89
1.63173e-106
2.42443e-103
5.72553e-103
1.45907e-106
1.63173e-106
1.45907e-106
3.29159e-106
5.37639e-99
8.18945e-81
-3.19525e-106
3.63889e-97
3.18448e-102
-3.29165e-88
-1.52662e-92
2.81438e-85
8.62131e-98
1.44075e-91
8.62131e-98
7.96211e-98
3.74069e-90
1.01261e-97
9.29544e-89
3.6761e-97
1.01261e-97
3.82496e-97
3.8223e-97
-2.38418e-90
7.82652e-86
5.14474e-86
7.19762e-86
7.67706e-84
7.51887e-84
7.19762e-86
7.45854e-84
1.00037e-85
1.88734e-93
5.23605e-92
1.88734e-93
1.97685e-75
1.34014e-72
8.09054e-71
9.63114e-73
1.78186e-72
1.34466e-70
7.2201e-74
4.38837e-63
7.32475e-62
6.39949e-62
2.24656e-62
3.95614e-59
1.11218e-61
7.37978e-65
1.06569e-56
4.07187e-59
2.70975e-54
7.45892e-56
2.95738e-53
1.5931e-57
4.37495e-52
3.41657e-57
3.19853e-57
2.49271e-56
1.83461e-51
4.53179e-51
4.53179e-51
1.12507e-47
3.50996e-46
3.49074e-45
4.97464e-51
7.33452e-50
3.12043e-52
1.16393e-46
7.33452e-50
1.12251e-46
1.1913e-44
4.19302e-44
5.01322e-44
1.2681e-44
2.70334e-43
9.78553e-44
1.49629e-43
1.36738e-41
1.14786e-41
2.21783e-40
1.36738e-41
2.48762e-41
5.26046e-37
7.28423e-37
3.47948e-31
1.58536e-31
3.90886e-31
4.38545e-31
1.81113e-31
1.83974e-30
3.96202e-30
1.17263e-30
8.88014e-29
1.94657e-30
1.0155e-26
2.24218e-30
2.06058e-30
1.31937e-28
2.51932e-27
9.95185e-29
5.93827e-29
2.36601e-29
7.7181e-30
3.13668e-29
6.5216e-30
1.40596e-29
3.83094e-29
4.88821e-22
1.24769e-21
8.61961e-22
6.7623e-18
3.36992e-20
2.86795e-21
3.34344e-20
1.47546e-18
4.50228e-19
1.63301e-20
2.36901e-18
1.58577e-15
3.34289e-14
3.1065e-14
8.82498e-14
1.36093e-12
7.21774e-14
4.09655e-14
5.1849e-14
8.96648e-18
1.42568e-17
2.86388e-15
6.91718e-19
6.61497e-21
6.03581e-18
4.09384e-19
6.29975e-18
1.79675e-17
9.79245e-25
1.05919e-28
1.414e-29
5.21011e-28
9.52484e-28
1.414e-29
1.4344e-31
3.09734e-29
2.77187e-29
2.60251e-69
6.72933e-72
5.56814e-71
3.58772e-73
6.88795e-71
3.10825e-72
3.83062e-73
2.01348e-73
2.79942e-73
1.00578e-71
9.68453e-71
4.54721e-73
7.11808e-73
2.32833e-71
2.64817e-71
7.44476e-74
1.1847e-76
4.96831e-76
3.81074e-75
7.07251e-79
8.16673e-76
7.62798e-76
2.24755e-77
1.60099e-73
4.76355e-76
9.35952e-74
1.06878e-76
4.40963e-76
5.25661e-74
4.40963e-76
1.25923e-58
1.25923e-58
1.25923e-58
1.34197e-58
1.41585e-58
6.56163e-57
2.73809e-54
9.3346e-48
3.18718e-44
5.9947e-45
4.66441e-48
1.17078e-47
4.49769e-50
6.42223e-51
5.66289e-45
4.59224e-48
1.97899e-50
7.42358e-55
7.42358e-55
7.42358e-55
1.71343e-54
7.42358e-55
1.38392e-54
5.19607e-44
2.60824e-47
2.36472e-44
4.67579e-44
2.60824e-47
3.31789e-43
1.07671e-43
8.3677e-47
1.60491e-47
2.27899e-41
2.07441e-37
1.57095e-35
1.22761e-36
6.44955e-38
7.91558e-41
1.48995e-27
0.000218868
7.03932e-05
4.86248e-05
2.52409e-05
1.84933e-05
1.75661e-05
1.33323e-05
1
1
1
1
1
1
1
1
1
1
1
1
1
1
1
1
1
1
1
1
1
1
1
1
1
1
1
1
1
1
1
1
1
1
1
1
0.74116
0.942395
0.994779
0.999929
0.998822
0.999972
0.982518
0.963713
0.807962
0.996404
0.999994
0.99946
0.931801
0.994533
3.80319e-05
8.54269e-05
4.33538e-05
0.000967924
0.00358384
0.00972028
0.0094957
8.02467e-05
3.39241e-05
2.11062e-05
5.7895e-06
7.99732e-06
5.7895e-06
5.7895e-06
3.00991e-17
8.45267e-19
1.60854e-19
6.56855e-21
6.82097e-21
6.88329e-20
2.55414e-18
1.07657e-28
9.24587e-30
1.43237e-29
3.77121e-33
1.905e-34
8.07677e-29
7.94894e-32
1.38359e-42
1.23055e-42
1.10352e-42
9.63593e-43
7.43647e-43
1.76143e-40
9.33914e-41
2.16884e-48
3.22985e-52
1.59545e-49
2.75907e-48
3.515e-49
1.00507e-49
1.31657e-49
1.27691e-56
3.40373e-55
1.18193e-63
1.18193e-63
1.18193e-63
2.28442e-63
1.3024e-58
1.51321e-63
7.46994e-65
8.0613e-62
1.94098e-64
4.45402e-65
4.9635e-67
2.18711e-64
1.15349e-76
1.45723e-74
2.41486e-76
2.01052e-78
1.15349e-76
2.41486e-76
1.15349e-76
7.80557e-83
7.59753e-85
8.23058e-87
5.18691e-87
1.97067e-85
8.23058e-87
2.19423e-85
2.39081e-93
1.32353e-95
9.47504e-93
5.27144e-96
8.16293e-94
6.34175e-93
1.32353e-95
1.9762e-103
8.7912e-104
5.24144e-102
2.64994e-104
8.79062e-104
7.41874e-103
1.65445e-99
6.06743e-87
2.4082e-89
1.34207e-85
3.82837e-88
4.11856e-105
-1.53621e-87
4.85083e-105
2.78617e-105
-5.74346e-91
5.19376e-113
2.06282e-108
9.68287e-113
5.19376e-113
5.19376e-113
8.78252e-113
5.19376e-113
1.38076e-108
1.73224e-104
2.01604e-108
7.147e-111
1.0151e-108
5.11676e-106
1.65606e-108
2.95688e-114
2.89868e-114
2.19403e-107
-2.21284e-102
2.51506e-103
2.22514e-99
1.47706e-102
1.12103e-102
8.7469e-105
4.35785e-103
2.76319e-101
1.94037e-97
8.7469e-105
8.24268e-103
8.406e-113
2.95586e-114
6.1995e-113
2.12766e-102
8.7469e-105
1.2931e-98
1.398e-92
2.0589e-90
1.45907e-106
2.33261e-75
2.02953e-73
4.09154e-79
6.19509e-74
5.86162e-79
4.09154e-79
3.59631e-80
7.54071e-73
2.86148e-73
3.77866e-70
5.61902e-70
3.16692e-71
4.60468e-69
6.65382e-74
6.60815e-74
1.68627e-77
8.07948e-74
4.73095e-72
3.57999e-74
5.48934e-67
7.81945e-67
2.42103e-67
1.84081e-65
1.35506e-63
1.32567e-65
5.48934e-67
1.67142e-60
1.29692e-60
1.75776e-61
7.51696e-59
8.34425e-61
3.36499e-61
8.34426e-61
1.72368e-44
2.72711e-45
3.62504e-40
4.63908e-42
6.09488e-43
3.77851e-42
9.52691e-39
2.98198e-42
8.08107e-39
1.45355e-37
3.94828e-43
3.44491e-42
2.04133e-40
1.87134e-40
1.14358e-40
4.08255e-41
1.95493e-40
4.08255e-41
4.08196e-41
6.17437e-36
1.54419e-35
5.46675e-35
2.49531e-34
2.40842e-35
1.42391e-34
1.59823e-34
1.10948e-41
4.14481e-41
4.83829e-43
7.55818e-33
4.86523e-32
1.59363e-32
1.42095e-32
6.10188e-32
1.26239e-31
1.88788e-30
1.68601e-36
6.84634e-32
8.60497e-33
1.52745e-26
2.22672e-26
1.75461e-26
5.07924e-28
8.88448e-27
1.65946e-25
8.8812e-27
1.19026e-28
1.35397e-28
1.35397e-28
1.35397e-28
3.94054e-28
1.74717e-24
1.69478e-25
5.996e-29
4.28552e-28
6.86083e-27
2.7141e-23
2.46872e-23
2.7141e-23
3.77659e-23
2.7141e-23
5.95766e-20
3.38884e-21
2.56015e-21
4.63776e-20
2.80862e-21
1.70779e-20
1.07353e-21
4.60283e-21
2.77674e-18
5.17547e-17
4.47416e-17
5.30516e-17
3.06332e-17
5.07777e-17
1.10688e-16
7.41447e-16
4.28695e-16
4.28695e-16
1.32779e-17
4.74499e-18
3.39018e-16
1.04285e-14
6.27227e-14
4.52225e-09
1.06211e-08
3.8745e-09
1.01128e-09
1.95287e-08
1.57883e-08
3.93491e-09
5.94233e-12
6.4519e-12
3.8894e-12
2.77213e-11
1.23122e-10
2.65742e-11
7.6606e-12
1.05826e-14
9.46358e-16
1.05826e-14
4.91799e-14
7.97102e-17
1.9605e-12
8.76604e-14
5.4875e-26
7.35739e-26
1.02115e-23
3.64345e-26
7.35739e-26
3.44752e-26
9.78128e-26
5.4875e-26
7.14163e-27
1.3053e-24
7.26869e-26
6.81395e-26
3.77506e-24
1.48758e-22
7.50282e-24
5.78811e-25
5.94889e-36
1.84233e-33
6.81882e-32
1.88817e-34
6.78846e-34
-2.84397e-38
6.13385e-34
6.94052e-52
5.57334e-60
4.41058e-54
6.0168e-54
7.59691e-54
7.26185e-56
3.25895e-54
7.26184e-56
2.3733e-52
2.38475e-59
4.43633e-60
8.31147e-56
2.66073e-67
5.95057e-65
5.95057e-65
2.65898e-64
5.60737e-63
1.67898e-62
-3.40957e-74
2.88767e-65
4.85747e-64
1.46369e-68
5.79295e-66
-3.4966e-76
1.4434e-66
7.52079e-74
6.98726e-73
2.95636e-72
5.63922e-75
2.86411e-75
5.31116e-73
2.0126e-74
8.25138e-76
5.03057e-75
3.01032e-78
7.38859e-73
1.24136e-74
7.27059e-75
3.58991e-75
5.18142e-66
1.70785e-65
3.00069e-65
1.83422e-68
3.59801e-68
1.00675e-67
1.16305e-67
2.4204e-74
2.4204e-74
2.4204e-74
4.03371e-72
2.93419e-74
2.4204e-74
2.10818e-74
6.18202e-68
5.97391e-68
2.91079e-67
2.30799e-67
7.74571e-66
6.68524e-68
1.04551e-67
9.7015e-65
9.47835e-65
9.7015e-65
6.67619e-62
9.65918e-62
1.92377e-61
9.67608e-65
5.7967e-70
5.7967e-70
4.40853e-70
2.1357e-70
4.40853e-70
4.83571e-68
4.5798e-70
5.47146e-63
1.24434e-64
3.64719e-59
1.17651e-64
1.47758e-59
3.88453e-62
1.60724e-56
1.55675e-58
1.34197e-58
1.9452e-56
6.09853e-56
6.09853e-56
2.96588e-50
1.55579e-53
4.06429e-49
9.98755e-56
1.52628e-51
2.91903e-49
7.42358e-55
3.91722e-05
7.62187e-07
0.0189073
7.08011e-07
0.000865207
0.00316261
0.0255164
1
1
1
1
1
1
1
1
1
1
1
1
1
1
1
1
1
1
1
1
0.982709
0.998992
0.979202
0.91641
0.999924
0.999925
0.232389
0.985881
1
0.911982
0.943556
1
1
0.266882
4.78761e-21
6.04434e-22
2.48915e-20
8.87407e-22
5.1109e-22
5.1109e-22
2.96939e-20
2.72402e-20
1.06971e-22
2.53442e-20
1.75995e-21
1.76658e-22
6.18611e-20
1.11446e-17
1.79849e-21
3.65741e-21
1.34304e-30
4.43064e-28
4.22338e-28
2.36824e-30
2.2605e-28
4.53214e-25
6.90438e-28
2.9058e-33
1.47707e-37
2.9058e-33
7.06647e-24
4.72677e-26
6.58837e-25
1.16161e-26
1.83038e-27
1.92469e-27
4.48459e-39
2.89443e-38
8.69631e-36
4.48459e-39
8.81072e-39
5.96952e-36
5.52863e-34
2.68918e-35
9.23257e-37
1.83992e-47
1.74467e-48
1.78116e-48
-1.25051e-47
1.76184e-48
-2.91818e-50
0
1.2098e-81
9.26436e-86
1.43269e-86
2.53251e-86
1.43883e-86
1.83643e-86
2.56342e-87
1.0411e-88
3.18411e-94
1.00133e-94
1.90662e-94
4.55699e-92
6.73002e-95
5.68946e-95
4.9288e-111
5.36062e-120
5.361e-120
3.16758e-120
5.92455e-118
1.92494e-117
2.35587e-117
6.57951e-107
4.59266e-114
1.84428e-112
4.59262e-114
-4.36388e-111
1.84432e-112
1.64173e-112
1.65808e-116
9.7454e-121
9.7454e-121
2.26079e-116
9.7454e-121
1.54706e-111
4.66083e-106
4.59266e-114
7.13542e-106
4.63055e-108
9.74494e-121
-5.29046e-116
-1.99328e-118
9.61208e-114
-3.13803e-111
9.05635e-106
7.40525e-104
1.81173e-103
1.05163e-103
5.11676e-106
8.78252e-113
1.94475e-112
6.09881e-109
2.63905e-103
1.05537e-87
7.92523e-88
4.11887e-105
1.62628e-91
7.31202e-93
4.07715e-93
6.13952e-93
5.76391e-92
2.3403e-87
4.83574e-92
1.11852e-92
6.2975e-83
4.34632e-81
4.1895e-83
4.1895e-83
4.45826e-83
4.18834e-83
5.35365e-83
4.27115e-76
1.81448e-74
1.04331e-77
1.07997e-72
1.04331e-77
6.61205e-79
1.02985e-76
3.05702e-64
3.06751e-67
7.07907e-76
7.6897e-77
7.6897e-77
1.04722e-77
2.76071e-70
2.28405e-43
5.25262e-43
3.33713e-42
7.09612e-44
4.55718e-43
1.32492e-43
1.48163e-43
6.38428e-24
4.91578e-24
4.91578e-24
1.02371e-19
8.50676e-24
5.98103e-24
4.91578e-24
2.3142e-23
4.14601e-23
6.01443e-22
9.37782e-18
2.2215e-17
1.52505e-17
1.34423e-17
2.36509e-17
3.91622e-17
2.31638e-15
2.61047e-18
1.94233e-17
3.2694e-17
1.01056e-14
3.93615e-14
7.47691e-12
5.64345e-14
1.67683e-11
9.41076e-11
4.59753e-11
9.75047e-16
4.87577e-14
1.01056e-14
3.6278e-08
2.6391e-08
9.70215e-10
1.58473e-09
7.80077e-10
2.67789e-07
7.24422e-10
6.47148e-09
1.15936e-07
1.64169e-05
3.15826e-05
4.36607e-05
8.38043e-10
6.04566e-10
8.38046e-10
1.06912e-09
0.211827
0.612217
0.816694
0.984485
0.980948
0.971342
0.938269
0.000838867
0.00140135
0.00047267
9.68073e-05
0.000300661
6.60798e-05
8.61738e-05
4.33747e-05
0.000391378
1.38477e-05
3.60258e-05
3.84284e-05
0.00130747
1.08182e-05
9.18229e-08
1.87979e-06
2.73087e-06
2.78909e-06
5.03922e-06
3.44333e-06
4.07934e-08
4.22136e-05
6.2939e-05
9.1202e-05
4.84098e-06
0.000379369
9.74899e-06
0.000275813
6.08729e-20
6.88548e-23
8.32295e-21
4.67447e-20
9.39907e-22
2.81899e-20
9.45116e-19
5.52012e-23
1.4637e-22
7.74531e-24
6.79377e-24
1.32012e-23
7.9135e-23
4.9887e-23
5.5738e-23
3.73944e-26
1.09764e-27
1.81214e-27
3.93528e-26
8.86763e-26
4.32732e-26
5.29391e-27
4.32556e-27
2.34238e-30
5.80405e-38
2.93974e-34
7.74283e-38
7.83438e-38
3.79528e-34
2.66723e-34
2.30809e-46
3.19344e-46
5.24745e-45
1.35228e-45
3.19344e-46
1.27745e-44
3.72301e-45
3.92354e-62
-1.83363e-62
2.68208e-69
8.18645e-65
2.27464e-62
-9.56217e-64
8.20575e-70
4.63999e-84
7.16722e-84
7.77745e-83
3.58351e-82
1.31055e-81
1.23643e-83
1.13075e-83
1.59501e-90
1.06933e-90
1.35973e-90
1.06933e-90
8.34053e-91
7.43235e-91
1.42959e-88
2.02156e-77
2.38134e-78
5.07648e-82
3.38542e-82
1.41883e-81
3.11871e-80
2.75868e-82
4.37124e-84
1.72821e-84
1.10963e-83
2.0183e-88
2.0183e-88
2.0183e-88
1.20769e-87
2.91888e-88
1.65648e-84
1.4264e-79
1.7595e-83
1.64353e-80
4.71269e-81
1.7595e-83
4.70935e-81
7.43799e-79
1.7595e-83
1.90646e-81
1.7595e-83
7.34478e-78
7.34478e-78
7.34478e-78
3.35678e-74
2.79773e-75
2.5023e-76
7.34478e-78
1.35921e-64
2.36525e-62
5.54408e-64
6.08752e-62
1.51154e-63
4.00611e-65
1.49693e-61
3.3092e-75
2.79773e-75
4.84901e-73
5.70306e-69
5.79241e-67
8.64915e-66
1.46518e-58
5.4185e-56
3.81166e-56
3.20755e-56
1.20179e-59
2.27882e-58
4.46243e-54
2.66768e-07
9.61451e-06
2.47377e-07
2.02854e-08
4.84457e-08
5.14441e-07
9.73839e-07
0.0014097
0.00155245
0.00325249
0.0128643
6.4448e-06
0.00123252
0.000451828
0.999969
0.999601
0.999969
0.976109
0.779928
0.978418
0.998328
1
1
0.999547
1
1
1
1
1
1
1
1
1
1
1
1
1
1
1
1
1
1.06966e-95
7.76432e-98
2.2415e-98
5.69491e-98
2.2415e-98
2.2415e-98
1.59306e-98
6.09778e-101
3.28586e-104
1.96091e-106
1.64608e-104
1.40915e-106
6.99794e-106
7.64982e-107
1.90735e-112
4.64093e-113
1.85039e-110
3.12655e-113
2.80427e-110
5.84401e-108
4.43142e-113
9.07927e-120
1.43991e-119
1.97189e-119
9.07927e-120
9.07927e-120
7.80958e-117
9.07927e-120
7.7972e-117
1.51791e-118
2.44662e-120
2.44662e-120
3.74527e-111
1.40782e-117
8.14823e-118
1.54834e-118
5.43262e-119
1.54824e-118
5.0551e-109
1.17348e-108
4.53164e-108
3.69809e-110
2.32191e-106
3.66646e-109
4.11704e-103
1.12194e-102
4.09658e-102
9.89087e-102
5.3623e-100
6.43723e-104
1.83126e-101
3.6535e-97
3.36943e-95
1.68783e-95
7.76744e-97
3.48375e-94
6.79935e-98
1.73557e-91
7.76744e-97
4.20028e-87
8.24359e-87
4.12854e-87
2.46363e-86
7.76307e-89
7.24314e-84
4.20028e-87
1.50743e-31
5.87977e-32
1.54218e-32
2.22944e-30
7.42645e-31
2.60446e-32
7.42645e-31
4.98694e-28
1.60222e-27
4.0294e-27
2.09543e-27
6.03268e-26
4.60282e-26
4.50429e-26
1.11994e-15
1.77772e-18
9.36362e-15
1.36836e-18
4.90445e-18
2.36734e-11
3.96649e-14
1.2167e-13
3.96649e-14
1.79944e-14
1.37389e-12
3.96649e-14
0.00140121
0.00223375
0.00076254
0.0129945
0.00255138
0.00243199
0.00140121
1.01839e-05
1.0346e-05
1.20856e-05
6.51889e-06
0.00010761
1.08182e-05
1.4e-05
2.5017e-08
3.39661e-08
1.32572e-07
1.90125e-06
3.32874e-10
6.7237e-10
1.90761e-09
4.9779e-10
5.73409e-07
2.31259e-10
5.27835e-08
8.99031e-09
1.55624e-09
1.76698e-08
1.56807e-07
1.78951e-11
2.50725e-11
6.3733e-08
1.94683e-08
5.47426e-07
8.48215e-17
3.53762e-14
1.67004e-11
1.72932e-13
1.48024e-10
1.74847e-11
9.15194e-18
8.86712e-18
9.15194e-18
8.70163e-18
5.45947e-17
8.85494e-18
9.48703e-18
7.92734e-23
1.75499e-21
6.17616e-23
1.02999e-21
1.84099e-22
5.9249e-24
8.03624e-24
9.03869e-44
2.51436e-42
4.80099e-42
1.67902e-45
4.81901e-43
9.06977e-44
4.70277e-44
2.98673e-50
-4.91406e-52
6.5041e-57
3.61202e-53
1.91485e-50
6.45051e-57
6.48142e-57
1.98849e-59
6.18801e-60
1.86661e-60
4.61157e-61
4.96703e-61
1.86661e-60
2.14062e-62
4.68561e-63
1.03548e-79
5.85355e-78
6.98162e-72
4.23997e-68
1.03548e-79
3.74178e-68
1.03548e-79
-7.90852e-72
3.97521e-82
8.48827e-82
1.23498e-84
3.46033e-82
2.76643e-83
7.71602e-85
6.83513e-85
2.69732e-96
1.15613e-95
3.09036e-95
3.44542e-97
1.03434e-98
6.28848e-95
2.80023e-98
1.28711e-93
4.8335e-94
4.14625e-89
3.9536e-100
3.9536e-100
2.79285e-102
2.79285e-102
6.36869e-102
6.87803e-103
2.79285e-102
7.611e-91
2.36205e-92
8.79211e-91
4.8335e-94
4.8335e-94
4.15145e-93
2.25951e-90
1.06933e-90
6.51302e-89
4.0244e-84
1.23412e-86
1.15187e-88
5.9313e-89
5.01724e-87
5.99919e-82
1.45873e-88
2.45103e-83
2.91888e-88
3.8121e-86
1.75069e-78
1.05762e-78
8.06104e-79
3.28442e-76
9.77053e-80
4.94742e-74
4.06996e-79
2.67872e-56
1.92021e-52
2.12268e-57
1.45643e-57
1.06564e-56
8.55936e-56
8.41537e-57
4.88872e-18
2.43732e-17
2.12758e-18
2.52146e-14
1.2121e-16
7.41521e-13
3.51169e-14
5.6662e-15
1.16515e-15
4.88963e-15
4.88036e-15
4.34857e-15
3.76026e-10
3.5748e-10
2.4565e-09
1.40657e-07
1.54385e-09
2.41245e-09
1.86524e-10
1.17624e-13
2.03384e-12
7.53862e-13
6.64549e-14
8.26377e-16
6.47964e-07
9.83133e-07
1.4398e-06
1.57609e-06
1.63234e-06
6.51749e-07
3.59581e-07
1.05134e-05
0.000168703
5.79517e-06
1.75065e-05
5.78704e-06
0.000143096
1.07045e-05
0.100473
0.00665734
0.00775521
0.0486692
7.16194e-05
0.00603036
0.0301268
1
1
1
1
1
1
1
1
1
1
1
1
1
1
1
1
1
1
1
1
1
1
1
1
1
1
-1.41103e-112
9.38056e-106
4.05656e-107
-8.71706e-108
2.44368e-115
2.44352e-115
-2.97382e-111
2.20702e-115
-1.70235e-110
1.00992e-109
1.70857e-102
1.99422e-102
2.3582e-101
7.74281e-100
1.70857e-102
4.72638e-101
3.48721e-101
2.94953e-60
2.32847e-58
7.38836e-59
7.79753e-61
7.79753e-61
7.79753e-61
2.42101e-58
6.93768e-68
4.18596e-69
3.09444e-69
3.09459e-69
1.78841e-68
5.12631e-69
3.09442e-69
2.80838e-29
1.08727e-29
8.45015e-30
1.66686e-28
5.87731e-29
2.64006e-29
4.38416e-28
1.85446e-24
5.00359e-24
3.36284e-23
6.52895e-24
8.77458e-23
3.04086e-23
8.97336e-23
1.83507e-21
2.08317e-21
1.08291e-22
1.2498e-20
1.11931e-20
1.26568e-20
2.28972e-19
2.42476e-16
4.97971e-16
2.32713e-15
1.66684e-16
5.513e-15
5.94671e-15
1.91835e-15
5.17027e-08
1.04779e-07
1.7369e-07
3.29945e-06
4.55388e-07
1.51731e-07
1.54887e-07
1.18227e-08
4.07137e-10
2.09826e-11
9.80597e-09
2.87156e-09
2.08645e-11
4.38673e-11
1.32208e-11
8.37744e-12
4.12464e-11
2.25262e-11
6.45357e-11
3.02982e-10
7.63927e-10
2.27189e-11
2.21734e-10
6.04942e-19
6.28863e-20
8.45487e-15
1.20859e-20
8.04326e-19
8.04259e-19
5.61698e-19
9.15194e-18
1.44492e-17
1.44977e-17
9.3022e-22
1.04255e-24
7.80658e-25
6.50799e-25
1.35311e-20
3.13669e-25
5.16818e-25
1.61279e-19
7.96774e-21
1.13208e-19
6.56547e-32
1.46094e-29
2.61621e-25
1.46094e-29
3.05331e-25
3.75627e-24
1.30412e-33
1.0754e-33
1.31914e-33
9.73457e-34
2.77719e-32
1.39203e-33
1.95498e-33
3.01882e-48
2.37592e-48
1.54081e-51
1.1133e-48
8.38887e-50
1.54081e-51
2.02369e-52
2.81937e-51
1.54081e-51
4.12318e-84
3.82173e-76
8.00012e-71
4.12318e-84
1.11941e-75
-3.16887e-79
4.12318e-84
5.53736e-89
4.13854e-91
8.21522e-91
4.04082e-91
4.13854e-91
2.5651e-91
4.22334e-90
4.07764e-111
4.07764e-111
4.07764e-111
1.81406e-104
-2.49207e-109
1.58138e-104
5.13286e-110
1.40785e-106
-4.53998e-111
5.78114e-110
2.79998e-111
-3.37745e-109
3.89679e-102
2.79998e-111
8.46679e-108
2.79926e-111
-7.65476e-112
4.19431e-107
4.91074e-105
7.03514e-108
1.75969e-106
5.05126e-106
3.07912e-109
3.55559e-99
8.57527e-100
1.50438e-95
1.78735e-82
2.78583e-82
8.79475e-81
1.39631e-81
6.76803e-80
8.81362e-81
1.97232e-81
1.57067e-65
3.4629e-65
2.34755e-64
1.18081e-64
1.77822e-64
2.65379e-63
4.84861e-64
7.32117e-59
5.27628e-59
1.11552e-60
2.15932e-60
5.86901e-59
9.15318e-61
1.26089e-60
1.85088e-54
9.0232e-56
2.28434e-52
2.35792e-52
1.47158e-52
8.43844e-55
2.25793e-52
8.26522e-47
5.78299e-49
8.26522e-47
5.78299e-49
1.81933e-51
2.67972e-43
5.78299e-49
1.23024e-30
3.35208e-31
4.0961e-27
1.67164e-31
4.88504e-32
5.67898e-32
2.24093e-31
6.50813e-30
5.78197e-29
2.82565e-30
2.57516e-25
9.21493e-30
2.86437e-30
9.21493e-30
2.02844e-28
3.19628e-28
2.13194e-30
2.13194e-30
1.29571e-30
1.91313e-22
4.35785e-25
9.66721e-21
3.34826e-22
3.34826e-22
1.71889e-21
9.48666e-21
8.43184e-14
4.75206e-14
5.13369e-12
2.97168e-13
1.18595e-14
1.55058e-13
4.42035e-15
3.66927e-15
1.00787e-14
5.49355e-15
2.75286e-15
2.75654e-16
1.68192e-15
3.88796e-14
1
1
1
1
1
1
1
1
1
1
1
1
1
1
1
1
1
1
1
1
1
1
1
1
1
1
3.01742e-65
3.01743e-65
3.01743e-65
2.6914e-59
3.01743e-65
2.08154e-57
-2.05433e-60
5.82545e-102
2.93345e-87
1.19765e-88
5.82746e-102
-3.50271e-97
6.19416e-102
1.70566e-98
8.99777e-108
9.88555e-108
8.99777e-108
4.09861e-99
1.41615e-107
2.32685e-102
-4.24761e-105
1.57794e-92
-5.29512e-81
-8.91812e-82
4.50008e-108
1.99691e-107
1.9969e-107
5.49435e-96
1.56326e-85
3.96522e-89
2.73287e-90
3.9302e-91
5.49435e-96
5.49435e-96
2.58077e-83
2.58077e-83
2.16637e-84
2.96497e-84
1.0133e-84
3.38609e-83
1.69287e-84
1.00547e-82
8.78925e-83
2.34758e-11
1.66815e-13
3.62466e-13
8.8322e-14
2.88712e-13
5.91943e-12
2.03252e-10
7.58381e-14
4.54594e-16
3.43194e-16
2.85953e-14
7.87166e-17
1.21429e-16
5.29111e-17
1.19914e-28
1.10045e-28
2.73183e-28
4.43129e-28
1.9416e-26
1.26515e-28
2.77933e-27
1.62345e-33
1.11171e-32
4.44503e-33
2.98239e-38
4.89978e-38
5.14519e-38
5.48611e-39
2.41381e-39
2.5357e-38
4.12287e-39
9.06551e-39
4.43753e-44
3.00075e-44
7.87797e-45
3.00075e-44
2.69483e-37
4.935e-41
2.27285e-44
1.66602e-42
5.01876e-37
2.13233e-37
7.53371e-36
2.5087e-46
2.65886e-48
4.45478e-49
1.475e-52
1.24837e-50
4.66717e-49
1.24837e-50
8.9309e-47
4.45478e-49
6.19831e-48
5.27616e-54
1.08794e-53
4.61445e-53
8.80802e-53
5.39828e-53
1.87405e-52
4.86752e-64
4.86752e-64
3.31064e-64
4.16989e-64
5.12138e-64
4.28236e-61
7.36469e-66
5.13071e-78
1.54926e-67
2.09326e-69
3.28627e-63
1.02201e-77
1.02201e-77
1.02229e-77
4.66004e-104
4.72226e-100
4.07837e-104
6.41648e-104
4.07837e-104
2.30029e-104
-2.16165e-106
6.79448e-106
6.79378e-106
7.18778e-104
7.1878e-104
-4.07359e-100
4.40704e-98
3.79647e-98
-1.15558e-104
5.63653e-110
4.07764e-111
8.12607e-81
2.75813e-82
2.19044e-82
1.42407e-80
5.18478e-81
3.28883e-82
1.76996e-80
1.19574e-88
7.75954e-89
3.23686e-89
1.50583e-89
4.83026e-89
1.49035e-86