/*--------------------------------*- C++ -*----------------------------------*\
| =========                 |                                                 |
| \\      /  F ield         | OpenFOAM: The Open Source CFD Toolbox           |
|  \\    /   O peration     | Version:  v2012                                 |
|   \\  /    A nd           | Website:  www.openfoam.com                      |
|    \\/     M anipulation  |                                                 |
\*---------------------------------------------------------------------------*/
FoamFile
{
    version     2.0;
    format      ascii;
    class       volScalarField;
    location    "0.05";
    object      p;
}
// * * * * * * * * * * * * * * * * * * * * * * * * * * * * * * * * * * * * * //

dimensions      [1 -1 -2 0 0 0 0];


internalField   nonuniform List<scalar> 
6576
(
-396.731
-415.607
-385.206
-389.736
-401.628
-381.15
-377.77
-374.553
-391.368
-386.998
-386.746
-377.64
-366.269
-378.411
-285.673
-298.018
-332.704
-335.939
-308.998
-309.19
-335.494
-373.732
-383.336
-453.866
-284.576
-245.192
-171.544
-426.043
-417.273
-419.001
-410.057
-402.216
-361.545
-267.616
-252.637
-267.504
-282.268
-283.686
-270.799
-277.119
-301.444
-362.881
-303.693
24.4018
3.11714
38.3368
4.98505
23.6642
64.7748
40.9101
14.8905
39.5661
-2.92427
-2.92462
-2.93622
-2.89562
-2.89656
-2.90796
-2.90678
-2.92666
-2.89791
-2.88954
-2.87484
-2.90312
-2.92632
-2.89751
-2.72664
-2.75635
-2.77082
-2.78533
-2.75601
-2.81399
-2.78454
-0.901905
-0.927689
-0.93751
-0.925888
-0.900439
-0.92318
-0.948669
-0.855177
-0.843696
-0.870127
-0.891039
-0.865279
-0.866868
-0.892685
-0.274565
-0.238178
-0.234612
-0.275011
-0.261592
-0.263715
-0.302014
56.8732
43.9236
84.6303
4.56055
32.3406
56.3642
27.4552
186.808
160.185
152.63
160.513
186.869
139.7
165.922
164.707
151.416
190.95
138.161
164.954
164.425
-3.21722
-2.9724
-3.22296
-3.07831
-2.69952
-3.28663
-3.20395
-24.3851
-65.9004
-161.738
-85.0329
-65.1372
-3.77992
24.3665
-2.96372
-3.00614
-2.97642
-3.25674
-3.04349
-3.33993
-3.06602
-1.64486
-1.63481
-1.66033
-1.62583
-1.60116
-1.60396
-1.62969
-1.76446
-1.74788
-1.73882
-1.72622
-1.70214
-1.70608
-1.73145
-1.88896
-1.87605
-1.92188
-1.83062
-1.86365
-1.89336
-1.86093
-1.8802
-1.90788
-1.85844
-1.86273
-1.88949
-1.83473
-1.80991
-1.85327
-1.82737
-1.98711
-2.03556
-2.00029
-1.93909
-1.97399
-2.00551
-1.97068
-1.98866
-2.01906
-1.96518
-1.95708
-1.98471
-1.91398
-1.93861
-1.94578
-1.91904
-2.26819
-2.31798
-2.24295
-2.24436
-2.29193
-2.20366
-2.16511
-2.1917
-2.23641
-2.47389
-2.44738
-2.51327
-2.40728
-2.3656
-2.45427
-2.41492
-2.48559
-2.50337
-2.588
-2.46192
-2.37677
-2.44634
-2.51807
-2.74569
-2.77714
-2.7586
-2.63942
-2.65041
-2.68546
-2.66864
-3.33348
-3.58198
-3.40039
-3.40629
-3.36719
-3.40565
-3.49336
-2.70363
-2.72282
-2.69745
-2.64442
-2.66612
-2.67789
-2.6543
-2.57393
-2.61601
-2.563
-2.58152
-2.53935
-2.50591
-2.55176
-2.41023
-2.34716
-2.38288
-2.43158
-2.39586
-2.35188
-2.38786
-2.23427
-2.2548
-2.19613
-2.2707
-2.3074
-2.23357
-2.26977
-2.11716
-2.06762
-2.10332
-2.1675
-2.12808
-2.15068
-2.11328
-2.08302
-2.11894
-1.99107
-1.94723
-1.98043
-1.97185
-2.00589
-1.94546
-1.97823
-1.78233
-1.79618
-1.76634
-1.74003
-1.76978
-1.76876
-1.73933
186.935
159.457
154.108
174.273
147.002
115.744
143.009
128.009
155.466
52.8205
84.0284
54.4892
52.2228
21.4117
40.3548
10.0184
-0.276912
-0.234473
0.0334159
-0.117646
-0.104572
-0.092623
-0.0539816
-0.0450006
-0.230518
97.9878
54.5059
70.3097
-2.22157
-4.4021
-1.12402
-3.61208
-2.95727
-3.93896
-5.75116
-0.889189
-0.860313
-0.848058
-0.861335
-0.889864
-0.862619
-0.834204
-1.34646
-1.3317
-1.36114
-1.35684
-1.34197
-1.38456
-1.37551
-1.36359
-1.37655
-0.942379
-0.928437
-0.902496
-0.982793
-0.957355
-0.956094
-0.930444
-0.295556
-0.238092
-0.278988
-0.23553
-0.245707
-0.238389
-0.219669
0.228473
-0.115217
-0.251332
-0.451254
-0.290398
-0.434677
-0.4393
-0.326885
-0.440323
-0.546531
-0.112712
-0.722265
-0.480974
0.347352
-0.286827
-0.878681
-0.32185
-0.442277
186.109
187.11
196.782
159.71
160.107
169.761
170.852
188.883
187.668
200.934
172.746
160.174
115.121
139.642
154.893
170.001
37.5803
23.2209
50.6532
60.2646
86.5082
39.2616
59.2562
0.193176
0.505822
0.719217
-0.328925
-0.952241
0.530745
0.333753
-0.660375
-0.620428
-0.632948
-0.608362
-0.579969
-0.621025
-0.593203
-0.619656
-0.647197
-0.845209
-0.870029
-0.832088
-0.819254
-0.793664
-0.844915
-0.819562
-0.967103
-0.930348
-0.943855
-0.91719
-0.893095
-0.929733
-0.905607
-0.930937
-0.954725
-1.20528
-1.17302
-1.19344
-1.23546
-1.21737
-1.19606
-1.21604
-1.201
-1.21185
-1.23201
-1.19172
-1.16959
-1.19122
-1.21362
-2.26455
-2.27618
-2.30993
-2.24789
-2.27862
-2.27807
-2.30966
-2.33364
-2.36397
-2.37894
-2.36433
-2.33444
-2.36514
-2.39518
-2.27027
-2.28261
-2.31439
-2.28459
-2.25456
-2.28317
-2.31403
-2.28028
-2.31219
-2.26686
-2.26609
-2.29683
-2.25196
-2.22118
-2.26672
-2.23616
-2.40823
-2.43928
-2.39529
-2.40779
-2.37988
-2.43925
-2.40917
-2.50792
-2.46194
-2.49299
-2.51057
-2.54181
-2.48065
-2.51096
-2.51027
-2.52597
-2.55683
-2.49502
-2.46408
-2.49521
-2.52503
-2.756
-2.74024
-2.70897
-2.75884
-2.79029
-2.75898
-2.72757
-2.60175
-2.63239
-2.63535
-2.63265
-2.66407
-2.68275
-2.6511
-2.80837
-2.76068
-2.77688
-2.61497
-2.6308
-2.58362
-2.92076
-2.88897
-2.88648
-2.89032
-2.92017
-2.89963
-2.87067
-2.88023
-2.88613
-2.91644
-2.83331
-2.86472
-2.85512
-2.88551
-2.90223
-2.9334
-2.87137
-2.88013
-2.83355
-2.86517
-2.91841
-2.88788
-2.9033
-2.87265
-2.84934
-2.88062
-2.93531
-2.91963
-2.91894
-2.90392
-2.88872
-2.88153
-2.83461
-2.86579
-2.89724
-2.92302
-2.9229
-2.93582
-2.89299
-2.89259
-2.90478
-2.90469
-2.63606
-2.61977
-2.5885
-2.65016
-2.68264
-2.63525
-2.66642
-2.63525
-2.60418
-2.49667
-2.46425
-2.51423
-2.52911
-2.56131
-2.49647
-2.52795
-2.52004
-2.56663
-2.53345
-2.5058
-2.53672
-2.56831
-2.53488
-2.37565
-2.39373
-2.40513
-2.40758
-2.44096
-2.43954
-2.40814
-2.11674
-2.06479
-2.09388
-2.1689
-2.13636
-2.08884
-2.05043
-2.10767
-2.11814
-2.16157
-2.08144
-2.12149
-1.97279
-1.93393
-1.94866
-1.99422
-1.94736
-1.95967
-2.00162
-1.88995
-1.8395
-1.84867
-1.89258
-1.82861
-1.85482
-1.90881
-1.46676
-1.4622
-1.50102
-1.41969
-1.45143
-1.47398
-1.4405
-1.37496
-1.41411
-1.38144
-1.33557
-1.36787
-1.3473
-1.37945
-1.40269
-1.37024
-1.24036
-1.21772
-1.26043
-1.22106
-1.24483
-1.25191
-1.27564
-0.802905
-0.831894
-0.845689
-0.859368
-0.888334
-0.860186
-0.831517
-0.863067
-0.891359
-0.847709
-0.834521
-0.862337
-0.805035
-0.833277
-0.806708
-0.835868
-0.850201
-0.893569
-0.864146
-0.83573
-0.864619
-0.520621
-0.549605
-0.505803
-0.491835
-0.520436
-0.462509
-0.491502
-0.374155
-0.345301
-0.388063
-0.402359
-0.431424
-0.344981
-0.373673
-0.373788
-0.402348
-0.435972
-0.40691
-0.392413
-0.360802
-0.389707
-0.389722
-0.418333
-0.40712
-0.435615
-0.25871
-0.231089
-0.272872
-0.274548
-0.302677
-0.286402
-0.258764
-0.303308
-0.275354
-0.317228
-0.274305
-0.242865
-0.271587
-0.272022
-0.300376
-0.318058
-0.134565
-0.116908
-0.150738
-0.159105
-0.199757
-0.176101
0.133407
0.0816902
0.0829317
-0.213696
-0.035445
-0.255486
-0.244342
-0.278344
-0.229026
-0.182984
-0.356916
-0.310875
0.198004
0.589042
-0.136127
-0.525464
0.0438571
0.116934
0.215088
-6.34627
-0.529787
-0.948817
-0.265246
-0.623581
-0.927359
-0.83412
-0.785806
0.25572
-0.0912853
-0.375709
-0.946879
-0.324598
89.5044
61.3271
49.1424
36.238
3.32738
36.4776
66.4266
153.057
139.695
167.641
111.218
138.02
151.401
186.539
160.585
160.268
134.132
160.348
186.883
152.633
160.673
187.05
139.546
112.973
166.119
139.735
172.115
198.928
172.708
189.504
188.953
199.81
163.14
163.266
186.017
185.617
159.507
159.799
189.683
189.883
200.478
164.129
163.591
174.882
148.744
167.72
154.946
141.4
190.541
164.8
156.345
190.058
164.268
142.928
168.634
140.199
115.795
153.969
166.506
140.611
115.915
141.23
40.2161
53.3248
10.4004
91.1914
61.1884
34.7937
62.4142
40.6736
15.512
51.1654
60.9393
88.4073
39.2109
64.3909
0.121406
0.128815
0.0970086
0.125599
0.0692251
0.0646184
0.0360692
-0.173866
-0.158914
-0.200862
-0.131123
-0.186684
-0.179469
-0.15048
-0.172321
-0.204411
-0.157759
-0.20391
-0.165243
-0.130586
-0.183778
-0.336873
-0.304116
-0.306239
-0.309567
-0.28924
-0.313656
-0.289063
-0.298779
-0.32772
-0.444714
-0.420237
-0.404379
-0.36337
-0.387805
-0.378416
-0.401955
-0.405716
-0.430358
-0.623128
-0.597518
-0.633837
-0.647782
-0.621932
-0.671074
-0.645547
-1.72125
-1.73781
-1.6953
-1.78455
-1.75808
-1.7281
-1.75374
-1.71074
-1.67711
-1.72013
-1.73964
-1.70608
-1.73134
-1.76596
-1.86576
-1.90316
-1.85875
-1.81461
-1.84964
-2.01964
-2.03173
-2.06458
-2.00615
-1.97386
-2.00264
-2.03377
-2.07244
-2.02932
-2.04064
-2.04421
-2.01401
-2.04264
-2.07274
-2.01322
-1.98318
-2.02818
-2.01307
-2.0425
-2.07263
-2.04237
-2.14561
-2.1008
-2.13057
-2.14821
-2.17867
-2.11895
-2.14828
-2.14731
-2.16207
-2.19317
-2.10237
-2.13253
-2.13222
-2.16194
-2.31279
-2.26653
-2.26743
-2.26268
-2.23206
-2.23233
-2.26167
-2.28189
-2.21764
-2.26223
-2.27666
-2.24736
-2.2181
-2.38806
-2.43284
-2.38736
-2.37295
-2.34257
-2.40286
-2.34229
-2.37213
-2.52782
-2.51248
-2.55907
-2.49455
-2.51051
-2.46388
-2.55665
-2.52533
-2.49454
-2.52459
-2.80386
-2.77283
-2.75803
-2.74166
-2.71014
-2.7417
-2.77191
-2.75764
-2.77333
-2.8047
-2.74249
-2.71113
-2.74265
-2.77303
-2.88537
-2.89918
-2.86968
-2.74262
-2.75924
-2.7112
-2.8052
-2.77385
-2.74271
-2.77293
-2.88762
-2.90215
-2.93286
-2.8721
-2.90309
-2.90145
-2.90125
-2.93307
-2.90276
-2.90103
-2.88638
-2.87216
-2.92346
-2.92281
-2.93593
-2.89293
-2.89303
-2.90447
-2.90427
-2.92233
-2.89142
-2.88882
-2.92228
-2.89295
-2.87428
-2.90345
-2.74926
-2.71941
-2.76643
-2.78004
-2.81139
-2.77869
-2.74969
-2.78173
-2.81158
-2.50645
-2.52079
-2.47183
-2.57024
-2.53375
-2.50343
-2.53678
-2.4015
-2.43178
-2.42775
-2.45374
-2.4865
-2.44647
-2.47683
-2.24284
-2.22186
-2.16996
-2.32031
-2.25766
-2.26416
-2.21225
-2.24452
-2.24292
-2.33584
-2.26148
-2.32602
-2.00469
-1.92653
-1.94064
-2.08957
-2.04891
-2.05593
-2.01973
-1.9568
-1.98092
-1.73523
-1.72264
-1.78529
-1.76533
-1.7476
-1.85183
-1.82514
-1.79918
-1.82247
-1.51952
-1.53276
-1.49958
-1.47752
-1.51036
-1.50702
-1.47484
-1.42521
-1.45277
-1.407
-1.39105
-1.36399
-1.39566
-1.42259
-1.28127
-1.25451
-1.29926
-1.29701
-1.27011
-1.3445
-1.31683
-1.30131
-1.3286
-1.17706
-1.19061
-1.14702
-1.23426
-1.20414
-1.17618
-1.20591
-0.708588
-0.737689
-0.740452
-0.766634
-0.737684
-0.78439
-0.754935
-0.622901
-0.608253
-0.579248
-0.624616
-0.652834
-0.65345
-0.625306
-0.637001
-0.608528
-0.667303
-0.62436
-0.592959
-0.621626
-0.622005
-0.65024
-0.667776
-0.535506
-0.50615
-0.503417
-0.506443
-0.477283
-0.488771
-0.45942
-0.552452
-0.508115
-0.522887
-0.385841
-0.341942
-0.371282
-0.269968
-0.225871
-0.255493
-0.338854
-0.157258
-0.150939
-0.258723
-0.361723
-0.409726
-0.262489
169.627
157.36
144.472
161.927
148.455
136.471
134.006
108.206
109.876
135.046
200.206
174.796
174.217
187.251
186.956
197.606
160.592
160.926
171.243
171.741
167.274
153.68
140.211
188.108
162.401
153.947
166.375
140.528
161.838
187.732
169.468
196.292
156.865
169.59
143.821
170.259
0.298301
37.3858
48.7832
58.7641
88.0699
59.4662
31.1772
36.1784
7.8706
46.1611
55.9586
85.0455
33.0255
59.6157
-0.0324584
-0.0686148
0.0586557
-1.5702
-0.523764
-0.090612
0.391682
-0.0711307
-0.194111
-0.0275571
0.072851
-0.000317061
-0.0521123
-0.0186994
-0.437663
-0.462306
-0.451383
-0.490393
-0.468948
-0.489029
-0.466381
-0.632624
-0.607626
-0.64328
-0.628614
-0.654565
-0.631377
-0.606017
-0.735661
-0.710728
-0.746073
-0.757603
-0.782438
-0.759813
-0.73465
-0.855882
-0.880485
-0.845643
-0.832092
-0.857067
-0.834181
-0.809603
-0.938484
-0.912846
-0.948077
-0.959351
-0.984042
-0.962458
-0.936807
-1.65463
-1.63926
-1.664
-1.69905
-1.67264
-1.66999
-1.69659
-1.78236
-1.79375
-1.82557
-1.76956
-1.73864
-1.76589
-1.79634
-1.80409
-1.83527
-1.79308
-1.80756
-1.77847
-1.83577
-1.80598
-1.83869
-1.79635
-1.80835
-1.81049
-1.78176
-1.80963
-1.83887
-1.84063
-1.79828
-1.81099
-1.81216
-1.78395
-1.84077
-1.81203
-1.95354
-1.9237
-1.90878
-1.93838
-1.90912
-1.89316
-1.86489
-1.87956
-1.90831
-1.79171
-1.74857
-1.77734
-1.79439
-1.8235
-1.76597
-1.79447
-1.79341
-1.80769
-1.83738
-1.77918
-1.75022
-1.77909
-1.80772
-1.90898
-1.87977
-1.91188
-1.90911
-1.9384
-1.95646
-1.92664
-2.05909
-2.02894
-2.0263
-1.98184
-2.01133
-1.99985
-2.02913
-1.90727
-1.8632
-1.89256
-2.07603
-2.03083
-2.04579
-2.19584
-2.16489
-2.15008
-2.31357
-2.28221
-2.26765
-2.25236
-2.28245
-2.22197
-2.25257
-2.26644
-2.28174
-2.31241
-2.25113
-2.22057
-2.43415
-2.40422
-2.38957
-2.37397
-2.34296
-2.37382
-2.40388
-2.25981
-2.21498
-2.24601
-2.27425
-2.24393
-2.21482
-2.24509
-2.43805
-2.39278
-2.40804
-2.40676
-2.37736
-2.40804
-2.43819
-2.63512
-2.65061
-2.68228
-2.61989
-2.58853
-2.81048
-2.78108
-2.76667
-2.81042
-2.78049
-2.78013
-2.75097
-2.58492
-2.61535
-2.63429
-2.64797
-2.6167
-2.61586
-2.58638
-2.78092
-2.81085
-2.76692
-2.78042
-2.8112
-2.7815
-2.75165
-2.88518
-2.86989
-2.89768
-2.887
-2.91849
-2.88326
-2.85579
-2.88928
-2.8681
-2.83688
-2.90154
-2.9343
-2.8704
-2.92674
-2.89661
-2.88951
-2.89629
-2.8692
-2.84255
-2.87268
-2.92647
-2.92916
-2.93859
-2.89955
-2.89972
-2.90882
-2.88487
-2.90218
-2.89131
-2.8759
-2.92926
-2.92696
-2.93819
-2.90085
-2.90225
-2.90951
-2.91429
-2.8718
-2.84568
-2.891
-2.85284
-2.87534
-2.90355
-2.87745
-2.93174
-2.90732
-2.90494
-2.93622
-2.90802
-2.9021
-2.92774
-2.85311
-2.86398
-2.82256
-2.82181
-2.80562
-2.85582
-2.84124
-3.01408
-2.9844
-2.80394
-3.02617
-3.22713
-3.20203
-2.97306
-2.51889
-2.50076
-2.42907
-2.66827
-2.46
-2.6672
-2.52252
-2.90005
-2.79635
-2.92408
-2.73431
-2.75275
-2.8402
-2.86047
-2.11656
-2.18562
-2.15105
-2.21732
-2.26638
-2.17385
-2.21548
-2.16148
-2.1223
-1.99945
-1.93186
-1.98079
-2.0686
-2.00254
-1.96083
-2.01492
-1.96169
-2.02044
-1.98949
-2.0115
-2.04318
-1.96961
-1.99983
-1.75447
-1.72584
-1.77587
-1.79664
-1.82674
-1.79467
-1.82385
-1.75764
-1.78555
-1.78771
-1.83546
-1.79859
-1.73986
-1.77419
-1.7547
-1.78899
-1.81942
-1.78406
-1.60687
-1.65326
-1.63406
-1.64257
-1.67015
-1.60958
-1.63745
-1.43741
-1.42214
-1.39306
-1.45413
-1.48353
-1.45302
-1.42439
-1.45593
-1.44174
-1.48678
-1.39644
-1.42682
-1.45644
-1.4265
-1.20588
-1.19106
-1.16174
-1.22148
-1.25092
-1.22099
-1.19224
-1.25667
-1.22649
-1.21318
-1.22716
-1.25657
-1.19831
-1.22703
-1.10396
-1.13367
-1.08885
-1.07425
-1.045
-1.07477
-1.10363
-0.822785
-0.851127
-0.851616
-0.822661
-0.850754
-0.866089
-0.837922
-0.941748
-0.970939
-0.97381
-1.01805
-0.98857
-0.971023
-1.0001
-0.810798
-0.853622
-0.854056
-0.897399
-0.810668
-0.868244
-0.691783
-0.721298
-0.735843
-0.724167
-0.694978
-0.738518
-0.753428
-0.782729
-0.724411
-0.753073
-0.57611
-0.605473
-0.619856
-0.416531
0.271859
0.910503
-0.095525
-0.108092
-0.259713
0.0697565
159.419
145.965
133.801
132.022
105.527
107.205
132.594
197.799
171.747
172.406
185.049
184.725
195.234
158.068
158.434
168.874
168.353
165.133
151.385
138.331
40.1143
52.3796
26.7388
2.2369
26.2786
22.4049
2.29728
38.9726
23.3382
-1.99433
24.4696
50.8437
22.4531
6.87758
-0.46005
-0.428984
-0.449539
-0.496492
-0.47135
-0.448219
-0.472061
-0.473026
-0.498062
-0.461481
-0.450304
-0.474176
-0.448024
-0.43005
-0.451505
-0.431375
-0.596061
-0.572662
-0.559326
-0.595574
-0.572147
-0.570714
-0.547297
-0.56802
-0.59262
-0.556478
-0.543507
-0.568453
-0.519863
-0.544652
-0.544736
-0.520041
-0.668476
-0.693434
-0.657365
-0.656562
-0.68172
-0.646189
-0.620982
-0.658114
-0.632839
-0.773813
-0.800073
-0.76359
-0.775442
-0.801674
-0.751813
-0.778308
-1.57515
-1.60522
-1.56384
-1.60597
-1.57695
-1.57865
-1.55001
-1.57956
-1.60896
-1.56738
-1.60932
-1.58076
-1.58186
-1.55346
-1.60978
-1.56716
-1.58105
-1.56393
-1.53612
-1.56391
-1.59216
-1.70894
-1.68051
-1.67733
-1.65217
-1.68064
-1.66307
-1.63452
-1.55768
-1.52997
-1.5623
-1.55741
-1.5296
-1.71528
-1.68666
-1.68225
-1.68722
-1.7156
-1.51895
-1.56036
-1.5187
-1.54615
-1.57422
-1.72653
-1.68414
-1.66992
-1.69779
-1.72645
-1.79625
-1.84005
-1.81057
-1.90898
-1.95325
-1.92264
-1.86485
-1.8946
-1.74332
-1.77278
-1.78577
-1.79989
-1.77071
-1.77208
-1.74299
-2.03478
-2.00434
-2.02057
-1.97665
-2.00693
-1.97632
-2.00615
-1.95313
-1.92204
-1.91006
-1.92364
-1.95364
-1.92526
-1.89525
-2.18971
-2.15869
-2.14444
-2.09723
-2.12879
-2.12854
-2.15908
-2.40017
-2.43279
-2.38384
-2.3688
-2.39996
-2.3351
-2.36828
-2.64109
-2.66717
-2.61422
-2.6595
-2.68434
-2.6476
-2.62266
-2.90304
-2.89546
-2.88104
-2.89788
-2.93087
-2.90397
-2.87704
-2.90465
-2.89556
-2.87136
-2.90848
-2.93983
-2.88771
-2.93765
-2.94336
-2.94245
-2.9378
-2.93279
-2.94344
-2.94685
-2.92888
-2.92883
-2.9192
-3.00687
-2.9553
-2.95446
-2.95275
-2.9568
-2.96542
-3.11185
-3.02792
-3.04508
-3.33137
-3.37122
-3.43967
-3.42409
-3.38837
-2.97512
-3.99147
-3.12235
-40.2416
-23.2555
-29.6193
-17.8994
-22.2211
-3.23037
-6.75017
-9.12483
-6.7508
-9.01531
-9.6221
-6.11608
2.36362
-4.49946
-6.06687
-5.27514
-4.02787
-5.75495
-3.61882
-4.19141
-3.8316
-3.90266
-3.43288
-3.31476
-3.38344
-3.44364
-3.50388
-4.00777
-3.39577
-4.21181
-4.091
-4.19791
-4.23817
-4.20167
-2.54131
-2.57756
-2.63234
-2.59655
-2.62513
-2.6951
-2.66661
-2.77799
-2.7698
-2.71946
-2.65342
-2.67646
-2.75849
-2.74535
-2.69093
-2.7098
-2.3097
-2.35021
-2.38299
-2.40617
-2.44548
-2.39172
-2.35456
-2.33994
-2.29529
-2.3483
-2.33562
-2.29363
-2.36622
-2.3258
-2.20953
-2.24897
-2.19314
-2.21167
-2.17544
-2.17662
-2.14008
-1.91639
-1.89878
-1.86875
-1.90327
-1.93303
-1.90055
-1.87039
-1.58024
-1.61026
-1.56412
-1.54908
-1.51915
-1.55032
-1.57969
-1.41468
-1.44437
-1.44729
-1.44449
-1.47451
-1.49291
-1.46213
-1.31171
-1.28252
-1.32705
-1.32876
-1.35755
-1.34068
-1.31216
-1.3581
-1.32953
-1.37237
-1.32844
-1.2964
-1.32572
-1.32611
-1.355
-1.37272
-1.23844
-1.20873
-1.206
-1.20883
-1.17939
-1.16152
-1.19114
-1.21059
-1.25556
-1.22557
-1.05942
-1.08872
-1.09157
-1.11797
-1.08878
-1.13596
-1.10637
-1.10358
-1.08905
-1.13312
-1.07351
-1.04463
-1.07415
-1.10263
-1.08697
-1.04261
-1.0722
-0.969176
-0.924965
-0.954496
-0.97116
-0.95679
-0.927436
-0.985842
-1.01539
-0.985818
-0.95677
-0.0565581
-0.155876
-0.134615
-0.15043
-0.110873
-0.11316
-0.0462756
-0.157155
-0.0336909
0.630528
0.0423553
-0.0424651
-0.180804
-0.165607
57.2975
45.8735
83.6188
29.5509
10.5474
32.8712
57.3703
45.6627
31.4069
57.8917
85.8952
60.1739
59.6272
85.5041
185.979
185.553
196.475
160.148
159.657
170.969
170.325
165.911
192.28
165.685
166.574
152.83
139.792
-1.35307
-1.38201
-1.3416
-1.35455
-1.38284
-1.32827
-1.35622
-1.35708
-1.38564
-1.34495
-1.3581
-1.3861
-1.33148
-1.35913
-1.38789
-1.347
-1.35969
-1.36071
-1.33337
-1.36034
-1.38809
-1.34305
-1.35645
-1.38456
-1.32954
-1.30202
-1.32919
-1.35668
-1.4825
-1.45454
-1.45186
-1.41027
-1.43789
-1.42702
-1.45458
-1.45638
-1.49848
-1.47024
-1.45759
-1.49879
-1.47029
-1.47162
-1.4438
-1.49899
-1.471
-1.45546
-1.49656
-1.46761
-1.44176
-1.46973
-1.49702
-1.46874
-1.4928
-1.46345
-1.45205
-1.43844
-1.46669
-1.46498
-1.49362
-1.44142
-1.42529
-1.39941
-1.48257
-1.45583
-1.45277
-1.42682
-1.78752
-1.76808
-1.76818
-1.73265
-1.71756
-1.72802
-1.74715
-1.85266
-1.89517
-1.89261
-1.84309
-1.88561
-1.90505
-1.85694
-1.9922
-2.00734
-2.08166
-1.94346
-2.00353
-1.96432
-1.90031
-1.93346
-1.81204
-1.81613
-1.85212
-1.84833
-1.53299
-0.891592
-1.19299
-1.14359
-3.67296
-3.10726
-2.63882
-4.46535
-4.33249
-5.53544
-4.43523
-5.3731
-5.18157
-4.81844
-3.83874
-3.61448
-3.79018
-3.58022
-3.54667
-3.57904
-3.62992
-3.38421
-2.39745
-3.09519
-3.13226
-3.00719
-3.08401
-2.98968
-3.09806
-3.0476
-3.12241
-3.17012
-2.96994
-3.1127
-2.99696
-3.00848
-2.96247
-3.02348
-3.02027
-3.02537
-2.97163
-2.94747
-2.95924
-2.94615
-2.95624
-2.95291
-2.96574
-2.93189
-2.89436
-2.90804
-2.94161
-2.90984
-2.90553
-2.9254
-2.40395
-2.44825
-2.441
-2.42571
-2.46167
-2.43552
-2.40003
-2.30676
-2.29526
-2.26021
-2.28904
-2.32169
-2.29257
-2.25886
-2.1783
-2.16224
-2.12909
-2.19355
-2.22637
-2.19433
-2.16212
-2.03522
-2.00331
-2.05054
-2.06595
-2.09808
-2.05058
-2.08217
-2.01952
-2.05082
-2.10185
-2.07143
-2.0571
-2.10112
-2.0714
-2.04113
-2.07039
-1.68753
-1.67212
-1.64151
-1.73263
-1.70211
-1.70212
-1.67231
-1.61139
-1.56601
-1.58052
-1.65564
-1.68596
-1.68884
-1.71593
-1.6861
-1.73451
-1.70403
-1.52046
-1.56555
-1.55039
-1.56582
-1.52107
-1.61107
-1.42769
-1.44264
-1.39747
-1.46055
-1.49069
-1.44523
-1.4306
-1.40043
-1.43075
-1.46016
-1.30911
-1.32392
-1.27934
-1.34551
-1.37522
-1.33179
-1.31678
-1.3455
-1.34581
-1.37527
-1.07103
-1.0412
-1.08526
-1.09935
-1.12943
-1.07025
-1.09978
-0.414041
-0.403478
-0.442763
-0.394249
-0.367497
-0.234068
-0.275173
-0.282661
-0.296339
-0.327568
-0.303278
-0.269409
-0.333938
-0.321601
-0.307505
-0.26213
-0.307177
-0.300511
-0.327207
-0.307769
-0.283205
-0.27497
-0.324525
-0.342396
-0.296576
-0.334854
-0.128154
-0.288344
-0.396645
-0.315366
-0.325702
0.111126
-0.0119295
-0.0670443
-0.167959
-0.089709
-0.0565595
0.071544
0.361742
1.02455
2.60813
2.03309
1.01948
-1.62355
-0.220048
152.736
165.195
139.341
192.184
166.161
157.912
144.562
170.322
191.712
165.898
156.678
168.874
196.257
143.229
170.727
170.332
191.519
191.278
202.059
165.32
165.236
175.912
176.003
176.004
201.823
175.905
-1.12478
-1.09807
-1.12748
-1.14085
-1.16797
-1.15158
-1.12479
-1.12301
-1.10957
-1.08283
-1.18659
-1.2139
-1.22648
-1.21354
-1.18615
-1.23977
-1.21201
-1.01146
-0.998053
-0.98667
-0.982385
-0.958106
-0.95936
-0.984096
-1.10211
-1.11452
-1.08652
-1.06375
-1.09136
-1.08996
-1.06248
-1.5782
-1.56354
-1.56811
-1.53119
-1.52308
-1.53271
-1.54372
-1.61963
-1.66076
-1.64246
-1.60581
-1.64397
-1.60435
-1.64655
-1.58343
-1.571
-1.58501
-1.5323
-1.53397
-1.54725
-1.54802
-1.60635
-1.65704
-1.61101
-1.58299
-1.62554
-1.60378
-1.55996
-3.9648
-4.43808
-4.01975
-4.15638
-4.66715
-4.32192
-4.0331
-3.73395
-3.50835
-3.41648
-3.49935
-3.38304
-3.23721
-3.23513
-3.34787
-3.28206
-3.41941
-3.37563
-3.30814
-3.5046
-3.44092
-3.46752
-3.3906
-3.0033
-2.99552
-3.05084
-2.96503
-2.98265
-3.02978
-2.99991
-2.95869
-2.97495
-2.98811
-2.9361
-2.94158
-2.9248
-2.93868
-2.9331
-2.92947
-2.92023
-2.94372
-2.94253
-2.94189
-2.92252
-2.91202
-2.9389
-2.90404
-2.92667
-2.92598
-2.9333
-2.93851
-2.93106
-2.91612
-2.91703
-2.90804
-2.90945
-2.70866
-2.68216
-2.66477
-2.69329
-2.66667
-2.6196
-2.64703
-2.63536
-2.66242
-2.24438
-2.28898
-2.27528
-2.27284
-2.30359
-2.27448
-2.24381
-2.15168
-2.12151
-2.16688
-2.12244
-2.15201
-2.15249
-2.18191
-2.0198
-2.05021
-2.05322
-2.08086
-2.05041
-2.09976
-2.06897
-1.96099
-1.93042
-1.92764
-1.90022
-1.93072
-1.9127
-1.88211
-1.97861
-1.9323
-1.94783
-1.80784
-1.76256
-1.80887
-1.79276
-1.82363
-1.85416
-1.66924
-1.6841
-1.63844
-1.61206
-1.58266
-1.56757
-1.61147
-1.58229
-1.5522
-1.58086
-1.11248
-1.08498
-1.06901
-1.05643
-1.08364
-1.02688
-1.05431
-0.915852
-0.943511
-0.959142
-0.944412
-0.971805
-1.00144
-0.973716
-0.946316
-0.960754
-0.93415
-0.904673
-0.930897
-0.932145
-0.905472
-0.798123
-0.840013
-0.826452
-0.853012
-0.881574
-0.825481
-0.853617
-0.605332
-0.618434
-0.577043
-0.63192
-0.659339
-0.632361
-0.604658
-0.636693
-0.623951
-0.663202
-0.584309
-0.612456
-0.638191
-0.611057
-0.605909
-0.579165
-0.620262
-0.634851
-0.660871
-0.523814
-0.534833
-0.506516
-0.487079
-0.515262
-0.511999
-0.484469
-0.408036
-0.40883
-0.361404
-0.391525
-0.41837
-0.362521
-0.393926
-0.429162
-0.412564
-0.387072
-0.421676
-0.439947
-0.413845
-0.395325
158.167
144.924
170.949
193.367
166.927
159.148
172.402
146.034
193.416
167.089
160.264
173.305
199.746
147.095
173.572
173.373
190.887
191.066
201.38
164.265
164.596
174.532
175.118
176.476
203.019
176.82
-0.843323
-0.803871
-0.816828
-0.791181
-0.764963
-0.817359
-0.79093
-0.91126
-0.885157
-0.913971
-0.93751
-0.911301
-0.953673
-0.927096
-1.01924
-1.01671
-1.04607
-0.976887
-1.00337
-0.992941
-1.01933
-0.909488
-0.896357
-0.870261
-1.06128
-1.03436
-1.0211
-1.06226
-1.03512
-1.02238
-1.00914
-1.03577
-1.03554
-1.06245
-1.00124
-0.975582
-1.01559
-1.02937
-1.05564
-1.00279
-1.02893
-0.976086
-1.00204
-2.01139
-1.97721
-1.87971
-1.81813
-1.81622
-1.90628
-1.91568
-2.03669
-2.19206
-2.09053
-2.10683
-2.2185
-2.06233
-2.14786
-2.69367
-2.64922
-2.65814
-2.64813
-2.69653
-2.70682
-2.66374
-2.90207
-2.8939
-2.91852
-2.79458
-2.7574
-2.78918
-2.80497
-2.77409
-2.75241
-2.78288
-2.90433
-2.92773
-2.89632
-2.88154
-2.85777
-2.90319
-2.92764
-2.90788
-2.88314
-2.91661
-2.93816
-2.91485
-2.93709
-2.92767
-2.92689
-2.91021
-2.91038
-2.89998
-2.90005
-2.9083
-2.89332
-2.88038
-2.90767
-2.93403
-2.89359
-2.88007
-2.90787
-2.90614
-2.92807
-2.90117
-2.89233
-2.92637
-2.89923
-2.87676
-2.90307
-2.55299
-2.58298
-2.54066
-2.55358
-2.52509
-2.55305
-2.58271
-2.29289
-2.24619
-2.29258
-2.27785
-2.30815
-2.33867
-2.17378
-2.12885
-2.17464
-2.18896
-2.21876
-2.15836
-2.18918
-2.21876
-2.03297
-2.0485
-2.00269
-1.93435
-1.97952
-1.94942
-1.91879
-1.94797
-1.97874
-1.94883
-1.94958
-1.97995
-1.93539
-1.94844
-1.91965
-1.9791
-1.94922
-1.7977
-1.82657
-1.8131
-1.85782
-1.82779
-1.8576
-1.82777
-1.81243
-1.82639
-1.79683
-1.82577
-1.85692
-1.85707
-1.82652
-1.72946
-1.6988
-1.68244
-1.63726
-1.66723
-1.69818
-1.66847
-1.72679
-1.69737
-1.68133
-1.72578
-1.69653
-1.66532
-1.69336
-1.43156
-1.38582
-1.4141
-1.47606
-1.44718
-1.41574
-1.44366
-1.36679
-1.39284
-1.41138
-1.42743
-1.40095
-1.36919
-1.39591
-1.26159
-1.2893
-1.30641
-1.29094
-1.31837
-1.35027
-1.32179
-1.28777
-1.25663
-1.29932
-1.31032
-1.34235
-1.21035
-1.18482
-1.16733
-1.1249
-1.15022
-1.20826
-1.18259
-1.17757
-1.15226
-1.16507
-1.13552
-1.17693
-1.1874
-1.21766
-1.19338
-1.16381
-1.19
-1.21982
-1.05867
-1.03374
-1.04442
-1.00354
-1.02824
-1.00501
-1.03009
-0.950493
-0.936939
-0.975437
-0.897719
-0.922832
-0.948654
-0.92362
-0.821023
-0.834908
-0.794693
-0.874515
-0.848515
-0.821337
-0.847452
-0.71644
-0.728785
-0.689384
-0.741828
-0.767858
-0.715836
-0.742355
-0.712589
-0.687052
-0.726247
-0.714031
-0.738978
-0.687664
-0.712872
-0.42953
-0.406174
-0.446382
-0.410903
-0.429605
-0.4388
-0.458436
157.537
144.538
171.024
189.327
162.709
155.148
142.097
168.84
189.653
163.026
157.732
171.475
197.063
144.78
170.107
170.631
172.167
198.984
172.574
185.563
159.868
151.478
137.983
164.721
159.235
185.641
138.833
112.747
151.451
163.671
190.726
138.613
164.97
164.251
43.2232
6.58418
26.3245
55.4215
29.9891
5.21712
28.5254
40.029
51.8502
21.6982
3.29088
19.9898
23.249
7.66673
0.0982266
-0.014107
-0.893985
0.0270527
-0.448443
-3.6443
-0.151814
-0.53635
0.203123
-0.262714
-0.224747
-0.188637
-0.264361
-0.211988
-0.117984
-0.254354
-0.26809
-0.217494
-0.2946
-0.307734
-0.326533
-0.278152
-0.268965
-0.289471
-0.300307
-0.369727
-0.338165
-0.382212
-0.368244
-0.395885
-0.396958
-0.423519
-0.600405
-0.639184
-0.613549
-0.586884
-0.612104
-0.638828
-0.613215
-0.583936
-0.558132
-0.59664
-0.609621
-0.63563
-0.60983
-0.583687
-0.714219
-0.740711
-0.701598
-0.688089
-0.714483
-0.688468
-0.662524
-0.744622
-0.705515
-0.718407
-0.70283
-0.67703
-0.728248
-0.702741
-0.718459
-0.744315
-0.69935
-0.660704
-0.686403
-0.835671
-0.809738
-0.805355
-0.809734
-0.783769
-0.792259
-0.766289
-0.850576
-0.824075
-0.811278
-0.824355
-0.850582
-0.714573
-0.701592
-0.74086
-0.688562
-0.662771
-0.688506
-0.71486
-0.497512
-0.536011
-0.509641
-0.48487
-0.510153
-0.536227
-0.509997
-0.453646
-0.491686
-0.478025
-0.504826
-0.530327
-0.47882
-0.504323
-0.114304
-0.190935
-0.172395
-0.203338
-0.202925
-0.209953
-0.187291
43.2745
56.4309
82.3204
0.349786
1.35126
1.80441
0.234071
-0.264952
1.318
1.02574
0.675523
-0.256233
0.176156
0.380975
19.9693
37.2955
47.2815
79.8949
46.6627
19.7786
-0.318742
-0.289712
-0.273035
-0.281842
-0.313137
-0.285919
-0.259326
-0.288428
-0.284681
-0.327682
-0.236876
-0.280494
-0.273691
-0.297905
-0.387764
-0.401778
-0.379176
-0.349202
-0.369364
-0.373126
-0.349466
-0.998725
-0.972184
-0.962855
-0.951421
-0.924979
-0.947813
-0.974337
-0.822117
-0.848359
-0.858334
-0.846695
-0.87289
-0.89562
-0.869824
-1.08534
-1.05912
-1.05037
-1.01512
-1.04205
-1.06126
-1.03466
-1.03962
-1.01303
-1.04178
-1.05462
-1.07615
-1.02793
-1.00605
-1.02935
-1.05152
-1.29163
-1.2842
-1.31065
-1.27514
-1.25395
-1.27231
-1.29333
-1.2908
-1.30904
-1.28093
-1.27341
-1.25235
-1.29381
-1.27227
-1.3628
-1.35317
-1.37513
-1.34391
-1.32665
-1.36139
-1.3447
-1.35931
-1.36475
-1.38292
-1.35714
-1.33426
-1.39595
-1.40843
-1.42699
-1.41147
-1.39811
-1.43607
-1.42574
-1.7126
-1.76484
-1.75256
-1.67377
-1.68531
-1.73037
-1.71848
-1.78211
-1.77125
-1.83434
-1.78718
-1.73958
-2.17922
-2.19772
-2.14016
-2.21717
-2.26002
-2.2183
-2.17974
-2.371
-2.34776
-2.33186
-2.35654
-2.39508
-2.40013
-2.362
-2.51342
-2.53728
-2.4858
-2.504
-2.52923
-2.48881
-2.46525
-2.60616
-2.57325
-2.56495
-2.55198
-2.58466
-2.60903
-2.57692
-2.66449
-2.62191
-2.65361
-2.67564
-2.70677
-2.76909
-2.72602
-2.75684
-2.78197
-2.75255
-2.7254
-2.75513
-2.86838
-2.89618
-2.88334
-2.83916
-2.86891
-2.86829
-2.83967
-2.93756
-2.91158
-2.90927
-2.88446
-2.84155
-2.87181
-2.92024
-2.89149
-2.90606
-2.87731
-2.85584
-2.88502
-2.9211
-2.92121
-2.93592
-2.90656
-2.89233
-2.84204
-2.87065
-2.88574
-2.89953
-2.93727
-2.90795
-2.9085
-2.72016
-2.76442
-2.75042
-2.74842
-2.77805
-2.74948
-2.71973
-2.76876
-2.7989
-2.76601
-2.76917
-2.73869
-2.75131
-2.72145
-2.77052
-2.81616
-2.78632
-2.64974
-2.60508
-2.65055
-2.63528
-2.66514
-2.6947
-2.57765
-2.54836
-2.53434
-2.48945
-2.51915
-2.5785
-2.54888
-2.51945
-2.54921
-2.51833
-2.48774
-2.53292
-2.54742
-2.57679
-2.51774
-2.54691
-2.12931
-2.16123
-2.17664
-2.22319
-2.192
-2.16112
-2.19213
-2.16545
-2.18142
-2.19467
-2.22599
-2.19583
-2.22555
-2.19563
-2.1038
-2.07174
-2.05757
-2.04177
-2.07213
-2.07207
-2.10322
-2.0039
-2.05113
-2.0347
-2.0982
-2.06674
-1.93255
-1.91703
-1.94613
-1.97794
-1.94742
-1.9475
-1.97745
-1.93232
-1.9461
-1.91615
-1.94595
-1.97794
-1.97783
-1.94649
-1.84694
-1.81594
-1.79853
-1.75254
-1.7829
-1.78498
-1.81475
-1.78657
-1.83688
-1.80585
-1.76634
-1.73753
-1.79593
-1.78033
-1.74745
-1.81017
-1.84384
-1.81145
-1.77934
-1.67473
-1.65852
-1.68629
-1.72138
-1.69175
-1.69072
-1.71994
-1.65251
-1.70102
-1.67249
-1.63555
-1.66118
-1.69785
-1.66954
-1.55581
-1.53014
-1.50904
-1.46377