/*--------------------------------*- C++ -*----------------------------------*\
| =========                 |                                                 |
| \\      /  F ield         | OpenFOAM: The Open Source CFD Toolbox           |
|  \\    /   O peration     | Version:  v2012                                 |
|   \\  /    A nd           | Website:  www.openfoam.com                      |
|    \\/     M anipulation  |                                                 |
\*---------------------------------------------------------------------------*/
FoamFile
{
    version     2.0;
    format      ascii;
    class       volScalarField;
    location    "0.05";
    object      p_rgh;
}
// * * * * * * * * * * * * * * * * * * * * * * * * * * * * * * * * * * * * * //

dimensions      [1 -1 -2 0 0 0 0];


internalField   nonuniform List<scalar> 
6576
(
2788.05
2768.25
2774.63
2783.58
2796.33
2803.65
2782.45
2773.75
2792.35
2786.91
2826.43
2808.59
2795.44
2810.24
2762.36
2774.49
2742.2
2775.67
2778.56
2817.33
2767.13
2814.16
2819.28
2773.26
2786.48
2829.14
2872.46
2797.8
2764.92
2763.18
2789.23
2746.89
2787.16
2806.4
2790.93
2804.42
2792.1
2828.45
2779.17
2811.63
2774.59
2764.45
2799.37
198.5
158.078
192.204
89.7946
197.791
196.906
199.317
199.574
197.974
0.00209024
0.00173744
0.00065291
0.00445557
0.00351784
0.00263093
0.00380571
0.00145062
0.00391628
0.00440641
0.00597232
0.00396725
0.00178584
0.00432041
0.0192709
0.0158359
0.0145102
0.0131423
0.0161806
0.0107599
0.0139318
0.263003
0.263496
0.266813
0.265296
0.264469
0.268004
0.268791
0.2528
0.251143
0.250988
0.256352
0.255836
0.254247
0.254706
0.049508
0.112171
0.128875
0.101614
0.0888536
0.0866341
0.0220589
201.384
201.221
202.83
150.431
197.274
200.883
198.073
201.698
201.351
201.679
201.679
201.759
201.887
201.833
199.742
199.589
199.709
199.472
199.989
199.46
-0.306568
-0.0355424
-0.312003
-0.151978
0.226811
-0.386602
-0.303849
832.806
2064.2
1022.07
2646.98
2624.37
2709.53
2756.23
-0.0373888
-0.0798111
-0.0395586
-0.356729
-0.143491
-0.429401
-0.15549
0.190093
0.187008
0.187762
0.195982
0.194383
0.191578
0.192123
0.188741
0.192177
0.188099
0.200703
0.198501
0.194558
0.195471
0.173723
0.173493
0.167082
0.179503
0.172752
0.169324
0.175474
0.182477
0.181078
0.191102
0.186815
0.18633
0.201674
0.200217
0.196264
0.195889
0.167536
0.158495
0.167496
0.176137
0.167515
0.162273
0.170829
0.178185
0.174055
0.188527
0.18349
0.182127
0.200307
0.201953
0.194786
0.195251
0.109781
0.0862666
0.121888
0.120477
0.0991786
0.148037
0.160311
0.14686
0.128426
0.00918362
0.0225619
-0.00391582
0.0495271
0.0649225
0.0288066
0.0418785
-0.0156628
-0.0203035
-0.0786629
-0.00513941
0.0537459
0.0104533
-0.0350069
-0.175043
-0.193367
-0.201106
-0.108185
-0.0929003
-0.127955
-0.137413
-0.435723
-0.76279
-0.441747
-0.297116
-0.432985
-0.253271
-0.465031
-0.0278373
-0.0338971
-0.0348083
-0.00804882
-0.00346726
-0.015244
-0.0179345
0.014266
-0.00153231
0.0120568
0.00667653
0.0225718
0.029731
0.0101513
0.0553374
0.0789915
0.069551
0.0471282
0.0565665
0.0742696
0.0645757
0.117449
0.110056
0.129302
0.107289
0.0968669
0.118143
0.10822
0.14259
0.15272
0.143296
0.131666
0.144809
0.135346
0.146465
0.150454
0.140816
0.159197
0.16362
0.156697
0.165276
0.157521
0.165389
0.158902
0.157731
0.157018
0.160587
0.160622
0.157144
0.158165
0.16132
207.58
206.379
207.598
208.057
207.062
208.65
209.638
207.776
208.957
208.955
213.42
212.586
209.002
204.465
202.982
129.869
0.204759
0.213002
0.420458
0.263243
0.280505
0.65383
0.657702
0.612347
0.539476
213.429
209.502
212.199
-1.49179
-3.41302
-0.0108587
-2.89598
-2.16716
-3.06519
-4.87461
0.258204
0.260804
0.259921
0.259781
0.257528
0.258497
0.260636
0.374618
0.363104
0.373079
0.377384
0.36597
0.389078
0.371849
0.370625
0.383943
0.266323
0.267128
0.266792
0.265324
0.264486
0.265747
0.265121
0.184498
0.131773
0.0509871
0.171951
0.13548
0.117789
0.183331
2.20971
0.470883
0.845851
0.0667552
0.307747
0.00411791
0.0636312
0.39676
0.284674
-0.293759
12.4961
0.604866
-0.214744
0.587164
0.015834
-0.257471
-0.0303431
-0.151374
202.751
203.751
202.913
202.627
203.024
202.168
203.26
208.59
207.375
207.503
205.592
206.158
207.087
205.332
207.446
209.416
206.226
220.278
208.3
204.778
204.687
205.763
203.444
2.35594
1.37006
1.26884
0.100429
-0.564128
0.967692
0.897951
0.272428
0.272961
0.273579
0.271889
0.274006
0.272364
0.27391
0.273733
0.272468
0.271527
0.272983
0.27151
0.271206
0.27052
0.271821
0.270898
0.281013
0.278354
0.277985
0.278374
0.276193
0.278969
0.276819
0.277765
0.280253
0.318734
0.311577
0.317435
0.327965
0.319784
0.314815
0.321113
0.323011
0.325301
0.331416
0.319156
0.315012
0.319656
0.32353
0.104699
0.106202
0.0987366
0.108222
0.103772
0.104314
0.0990058
0.0925473
0.0884903
0.0866593
0.0881338
0.091747
0.0873228
0.0835646
0.0989882
0.0997848
0.0942766
0.0978037
0.101552
0.0992215
0.0946425
0.0977359
0.0921097
0.098024
0.0987909
0.094328
0.0997783
0.104284
0.0981542
0.102438
0.0792829
0.0745036
0.0790809
0.0797242
0.0813496
0.0745371
0.0783344
0.0654344
0.0719949
0.0672239
0.065409
0.0604445
0.0690532
0.0650242
0.0648375
0.0622674
0.057688
0.0669416
0.0716042
0.0667559
0.0632138
0.0275802
0.0302
0.0351909
0.0273686
0.0221979
0.027226
0.0323568
0.0513157
0.0469466
0.0466225
0.0466885
0.0415486
0.0386357
0.0440097
0.0190038
0.0272767
0.024217
0.049475
0.0467916
0.0545461
0.00325936
0.00876893
0.00688152
0.00741974
0.00385275
0.00687443
0.00955824
0.00875307
0.00723468
0.00320504
0.0162593
0.0111243
0.0119602
0.0078484
0.00573666
0.00083965
0.0103114
0.00937219
0.0165399
0.0111978
0.00393993
0.00819773
0.00591293
0.0102862
0.01389
0.00888176
0.00112498
0.0036649
0.00434943
0.00623269
0.00829313
0.00891572
0.0164124
0.0115128
0.00633888
0.00333754
0.00345718
0.00104786
0.00709245
0.00748818
0.00581143
0.00589863
0.0441463
0.0472963
0.0522893
0.0431881
0.036985
0.0449548
0.040067
0.0449544
0.0497449
0.0652833
0.0714204
0.0608649
0.0591168
0.0531925
0.0654804
0.0602788
0.0594198
0.0522553
0.059152
0.0605206
0.0558843
0.0505679
0.0577234
0.0855594
0.0806239
0.0823591
0.0799109
0.0728081
0.0742306
0.0793528
0.143016
0.155546
0.152726
0.13027
0.136526
0.157763
0.169898
0.152078
0.154739
0.137584
0.165164
0.151391
0.199364
0.211944
0.210353
0.204212
0.224794
0.212487
0.196805
0.282197
0.306366
0.310338
0.305837
0.343532
0.317319
0.289606
0.280598
0.272025
0.272617
0.275124
0.269655
0.273381
0.280585
0.254157
0.254426
0.260816
0.254135
0.248115
0.255543
0.249667
0.252706
0.258875
0.266137
0.262498
0.259205
0.259159
0.261673
0.254586
0.257133
0.26128
0.258567
0.257911
0.257369
0.25468
0.256552
0.258944
0.25367
0.251655
0.25589
0.25594
0.254401
0.259151
0.257185
0.257478
0.254594
0.2534
0.249445
0.252592
0.254732
0.252119
0.280803
0.278095
0.282483
0.283312
0.280988
0.286362
0.283646
0.294949
0.297527
0.29418
0.293022
0.290233
0.297847
0.295431
0.295317
0.293032
0.290001
0.292787
0.294146
0.296853
0.294225
0.294209
0.291874
0.292577
0.290359
0.306349
0.307694
0.305325
0.305338
0.303486
0.304933
0.306295
0.302855
0.304532
0.301952
0.305461
0.307997
0.30555
0.305116
0.303038
0.301121
0.325268
0.321269
0.322233
0.313866
0.312629
0.310008
0.515363
0.709703
0.800166
0.557637
0.330027
0.0688164
0.116339
0.0854003
0.0953505
0.172929
-0.00631921
0.0660165
0.886527
1.36486
0.674475
-0.0891848
0.398184
0.901059
1.56135
4.2919
-0.113051
-0.618237
0.0290405
0.190479
-0.648697
-0.584558
-0.486522
0.831878
5.02955
-0.0795605
-0.624771
-0.0216274
207.703
205.846
206.135
203.321
132.412
200.52
208.436
202.982
202.757
204.427
203.935
204.461
204.704
204.933
205.254
204.937
205.078
203.892
204.15
204.06
204.216
204.317
204.11
203.813
204.408
204.299
203.646
204.183
204.239
207.28
206.73
207.076
207.193
207.319
207.359
206.96
207.126
207.418
204.698
204.898
204.983
205.42
204.882
205.663
205.801
204.506
204.871
204.462
205.431
205.965
205.393
204.948
205.434
205.115
204.545
206.828
208.7
207.46
206.859
207.24
208.82
207.859
196.274
210.747
152.765
209.423
205.702
202.045
206.933
203.996
181.476
208.769
205.458
206.638
201.517
208.083
0.452801
0.486713
0.468097
0.484435
0.453558
0.473675
0.446809
0.312243
0.314057
0.311523
0.30304
0.273148
0.30664
0.309352
0.318167
0.312353
0.319591
0.312855
0.325246
0.333628
0.30671
0.280617
0.27396
0.284974
0.255374
0.249422
0.264419
0.262736
0.279296
0.276631
0.27788
0.276081
0.278801
0.280396
0.282237
0.278488
0.281225
0.277464
0.279098
0.257123
0.256456
0.259552
0.258744
0.258319
0.261729
0.26098
0.210042
0.206623
0.20972
0.199304
0.199497
0.2032
0.203831
0.220551
0.227911
0.224307
0.217935
0.225211
0.226227
0.21789
0.196915
0.18579
0.190787
0.195515
0.186758
0.135017
0.136069
0.129492
0.135373
0.141379
0.13888
0.134024
0.126009
0.129722
0.131536
0.127963
0.131893
0.129532
0.125715
0.1283
0.132065
0.126484
0.128452
0.125303
0.121449
0.125426
0.112407
0.1178
0.114315
0.112433
0.108258
0.115422
0.112365
0.112459
0.110839
0.106018
0.117987
0.1141
0.114416
0.110973
0.0911919
0.0980397
0.0971407
0.0975103
0.101855
0.10158
0.0985174
0.0958181
0.103447
0.0982683
0.0969788
0.100004
0.102987
0.0809977
0.0756256
0.0816954
0.0829676
0.0870638
0.0793335
0.0873494
0.083789
0.0630541
0.0652552
0.05808
0.0674092
0.0645885
0.0718045
0.05787
0.062915
0.0674261
0.0636484
0.0208894
0.0256341
0.0272942
0.0305331
0.0357685
0.0304898
0.0265549
0.027692
0.0251413
0.0200497
0.0296938
0.0347805
0.0295399
0.0254392
0.00769601
0.0070285
0.0102472
0.0295707
0.0260855
0.0347075
0.0195406
0.0246153
0.0294766
0.0255382
0.00720087
0.00581447
0.00137711
0.00958403
0.00487195
0.0065095
0.00671225
0.0011684
0.00520159
0.00693496
0.0084401
0.00952062
0.00289685
0.00354986
0.000936924
0.00714644
0.00704426
0.00611444
0.00631379
0.00169139
0.00632087
0.00453668
0.00173491
0.00479428
0.00594316
0.00304743
0.023854
0.02743
0.0198256
0.0193496
0.0142821
0.0207106
0.0234276
0.0176614
0.0141005
0.0554915
0.0542885
0.0638318
0.044253
0.0544733
0.0585082
0.0514332
0.0596851
0.042548
0.0597185
0.0337241
0.0272364
0.0409931
0.0369101
0.122
0.129837
0.155465
0.0839318
0.120307
0.118182
0.143817
0.124687
0.139423
0.0727735
0.120862
0.0825945
0.255042
0.293787
0.305946
0.209566
0.223957
0.230076
0.240001
0.276649
0.27881
0.30116
0.287474
0.264239
0.284197
0.275652
0.237117
0.237531
0.250347
0.253339
0.21033
0.210229
0.217126
0.212916
0.206351
0.209689
0.215594
0.217054
0.215767
0.222122
0.22493
0.22572
0.220322
0.219668
0.229607
0.230092
0.224754
0.227004
0.22763
0.218931
0.220329
0.222711
0.221691
0.228714
0.228308
0.232475
0.224066
0.227915
0.2296
0.226141
0.262755
0.259931
0.259796
0.257262
0.259936
0.255271
0.25845
0.27061
0.27212
0.274849
0.270585
0.268643
0.268027
0.269894
0.269649
0.271845
0.267192
0.27072
0.273217
0.270826
0.270447
0.268489
0.266719
0.279932
0.283011
0.283117
0.282718
0.285602
0.284625
0.2877
0.277876
0.282798
0.281165
0.294712
0.299197
0.296133
0.30548
0.310163
0.306817
0.125457
0.278664
0.234797
0.104951
-0.0272023
-0.0487729
0.12359
206.413
207.285
207.535
205.72
205.387
206.541
204.075
204.552
206.222
205.116
205.462
206.328
205.748
203.892
203.597
203.737
203.51
203.844
203.651
204.149
204.061
203.604
203.274
202.998
203.567
202.996
202.286
202.715
203.004
202.622
204.503
205.051
205.038
204.625
205.132
205.294
146.411
198.352
205.618
203.273
206.173
203.981
198.989
200.782
167.134
203.252
200.477
203.224
192.184
203.345
0.253924
0.259349
0.332798
-1.0792
0.499226
2.86443
3.00928
0.340417
0.226973
0.348066
0.429631
0.330759
0.331095
0.33808
0.236758
0.238391
0.236176
0.23658
0.231749
0.237944
0.234316
0.243247
0.241969
0.24573
0.247257
0.247582
0.244495
0.243578
0.249694
0.248351
0.25242
0.254028
0.255469
0.251818
0.250705
0.260854
0.262527
0.257954
0.258368
0.259668
0.256278
0.25458
0.25708
0.256442
0.260624
0.262488
0.264074
0.259382
0.258756
0.189088
0.191318
0.192847
0.184081
0.184208
0.186862
0.186537
0.162084
0.163833
0.158284
0.161741
0.166392
0.165416
0.161244
0.157874
0.152966
0.155741
0.154403
0.157215
0.152471
0.155985
0.149553
0.152471
0.153613
0.151476
0.153923
0.152334
0.149365
0.147607
0.150541
0.150969
0.149808
0.151735
0.147466
0.149931
0.13543
0.138995
0.14077
0.137451
0.140434
0.143251
0.14525
0.143715
0.141239
0.150988
0.154707
0.152221
0.150932
0.148094
0.153072
0.150856
0.151034
0.149891
0.146483
0.152133
0.154812
0.152213
0.149864
0.139696
0.142633
0.139425
0.139571
0.136552
0.134265
0.137803
0.122724
0.126594
0.126614
0.131653
0.128444
0.129413
0.126413
0.139658
0.144311
0.141231
0.120671
0.126458
0.124637
0.105976
0.110644
0.112324
0.0907303
0.0958068
0.0972339
0.0993785
0.0955723
0.103491
0.0991701
0.0984374
0.0962762
0.0918828
0.100607
0.104892
0.0752549
0.0789068
0.0804246
0.0828847
0.0876139
0.0830324
0.0792491
0.100688
0.106097
0.101351
0.0993836
0.103431
0.106263
0.10227
0.0757353
0.0815868
0.0794668
0.0807482
0.0838646
0.0794631
0.0755945
0.0450842
0.0427348
0.0373432
0.0471779
0.0522548
0.0186406
0.0217583
0.0230308
0.0187002
0.0223539
0.022709
0.0255981
0.0514889
0.0473334
0.0415342
0.0409967
0.0459832
0.0468218
0.050021
0.0219177
0.0182726
0.0227865
0.0224208
0.0179199
0.0213384
0.0249099
0.00788891
0.0100363
0.00852443
0.00636359
0.00115439
0.0057242
0.0112889
0.00407705
0.00773439
0.0126778
0.00641682
-5.51754e-05
0.0112772
-0.0021335
0.00170671
0.000174175
0.0020291
0.00284293
0.00770937
0.00386988
0.00151382
-0.0011806
-9.12304e-05
0.00215393
0.00197942
0.0033904
0.00106242
0.00402992
0.00175795
0.00402763
-0.00290888
-0.000605582
-0.00132148
-0.000784866
-0.00218362
0.00107236
-0.00370298
0.00111833
0.000948253
-0.00494869
-0.00621659
-0.00242918
-0.00435353
-0.00454281
-0.0077282
-0.00958992
-0.0115889
-0.0122078
-0.0102875
-0.0218958
-0.0212487
-0.0502961
-0.0348842
-0.0328811
-0.0189877
-0.0290855
-0.0267194
-0.0384232
-0.544152
-0.527593
-0.373423
-0.543112
-0.717747
-0.718938
-0.516272
-0.13654
-0.131556
-0.0730045
-0.259655
-0.0776639
-0.258584
-0.140176
-0.412599
-0.322033
-0.410358
-0.273127
-0.265289
-0.352748
-0.346744
0.102827
0.0731799
0.0946073
0.054624
0.0318386
0.0718171
0.0564636
0.0841814
0.0970839
0.155182
0.183364
0.160712
0.125444
0.165233
0.18067
0.152854
0.149157
0.129818
0.147636
0.125629
0.120222
0.141241
0.137297
0.177769
0.180122
0.169506
0.161873
0.15805
0.163842
0.160938
0.174601
0.172964
0.156731
0.148397
0.15899
0.16517
0.157113
0.163462
0.155447
0.151294
0.160379
0.188672
0.181699
0.187758
0.17925
0.177944
0.185965
0.184368
0.191711
0.193844
0.196651
0.188137
0.185016
0.189248
0.191601
0.186332
0.18739
0.181757
0.19327
0.189164
0.185821
0.189484
0.213038
0.21472
0.217765
0.210571
0.207414
0.21106
0.213538
0.206044
0.209942
0.21012
0.209278
0.206143
0.211846
0.209401
0.222991
0.219556
0.22496
0.226426
0.229392
0.225898
0.223323
0.251255
0.24919
0.249639
0.251379
0.249562
0.248303
0.250195
0.239806
0.236891
0.236648
0.231822
0.235026
0.236807
0.23401
0.252449
0.24904
0.248606
0.244678
0.25258
0.247557
0.264671
0.261432
0.260025
0.261191
0.264104
0.259978
0.258206
0.255181
0.260947
0.258561
0.275238
0.272152
0.270907
-0.157138
0.534821
5.35252
0.18057
0.455267
0.887878
6.6825
203.213
202.897
203.871
202.092
201.873
203.551
202.664
203.054
203.278
203.937
201.691
201.367
201.365
200.986
201.352
201.281
200.76
201.92
201.31
201.394
199.352
201.128
198.274
186.865
201.44
197.566
49.2668
198.723
198.513
181.743
189.766
199.742
197.627
60.7888
0.22313
0.214782
0.220503
0.226102
0.224967
0.221823
0.224256
0.222354
0.223594
0.22076
0.218799
0.221203
0.221079
0.212777
0.217598
0.211452
0.236016
0.23314
0.233338
0.236504
0.233655
0.235088
0.232228
0.232464
0.23414
0.230868
0.230701
0.232031
0.228069
0.229556
0.229472
0.22789
0.23805
0.239369
0.236024
0.236826
0.237945
0.234062
0.232992
0.235275
0.234273
0.242197
0.242213
0.239283
0.240568
0.240613
0.237922
0.237703
0.176601
0.172803
0.174776
0.172054
0.174804
0.173101
0.175461
0.172193
0.16907
0.171227
0.168706
0.170988
0.169889
0.172009
0.165572
0.168778
0.168026
0.169081
0.170623
0.169102
0.167135
0.15789
0.160051
0.160305
0.162109
0.159919
0.16143
0.1637
0.169252
0.170692
0.169015
0.169522
0.171056
0.157633
0.159982
0.16001
0.159422
0.157315
0.171491
0.169495
0.17174
0.170569
0.168769
0.1566
0.159583
0.160662
0.159068
0.156688
0.150824
0.146439
0.149646
0.140572
0.135719
0.140048
0.145283
0.14181
0.157332
0.154148
0.154299
0.153314
0.156221
0.154845
0.157663
0.128638
0.132802
0.12971
0.134218
0.130209
0.134545
0.130993
0.140218
0.145029
0.143868
0.143428
0.139707
0.14181
0.145546
0.109471
0.114215
0.115331
0.123117
0.117837
0.118093
0.113827
0.0829506
0.0766006
0.0861394
0.0880416
0.0831531
0.0954607
0.0885625
0.0215729
0.00863866
0.0221598
0.00315363
0.00460407
0.0150686
0.0137178
0.00316019
-0.00239595
-0.00112089
-0.00453119
-0.0112353
-0.015
-0.00996976
-0.0112966
-0.0197324
-0.0218163
-0.000527393
-0.00559373
-0.00604094
-0.0113035
-0.0170152
-0.00558822
-0.0377435
-0.0327304
-0.0328683
-0.0362814
-0.0226818
-0.0357739
-0.0392966
-0.0988369
-0.0209894
-0.0596605
-0.0448043
-0.0751609
-0.0567096
-0.218817
-0.121734
-0.164899
-0.518363
-0.543388
-0.537606
-0.65648
-0.647042
-0.20756
-1.19763
585.299
1639.08
2248.11
2720.83
2696.93
2640.58
2593.63
-1.59884
-2.3357
-2.64411
-5.91291
-5.97772
-3.15649
5.40742
-1.70329
-2.39377
-2.57132
-1.23779
-2.93112
2.53148
-1.46914
-0.95854
-1.05082
-0.539008
-0.407536
-0.496135
-0.587336
-0.63094
-1.11882
-0.435457
-1.21588
-1.25276
-0.339106
-1.41261
-0.665865
-0.11078
-0.120752
-0.162397
-0.139735
-0.142044
-0.18574
-0.183527
-0.162569
-0.180666
-0.143459
-0.116829
-0.113594
-0.143062
-0.156205
-0.128064
-0.120654
0.0157358
0.00150614
-0.018143
-0.0281825
-0.0412162
-0.0137323
-0.00284331
0.00739802
0.0257698
0.012182
0.0117205
0.0274276
0.00739176
0.021545
0.0633696
0.0501985
0.0666111
0.0612223
0.0711811
0.069996
0.0802634
0.128783
0.133246
0.137001
0.128758
0.125281
0.131479
0.135366
0.167135
0.163387
0.170114
0.17202
0.175668
0.170774
0.167682
0.187297
0.183887
0.183589
0.183761
0.180019
0.177383
0.181889
0.199296
0.202212
0.197092
0.197068
0.194555
0.1966
0.198849
0.19401
0.196302
0.192754
0.197272
0.200405
0.197366
0.196974
0.194363
0.192408
0.20763
0.211066
0.21117
0.210965
0.214128
0.216226
0.212886
0.210957
0.205403
0.209114
0.227243
0.224214
0.223988
0.221241
0.224152
0.219013
0.222328
0.22337
0.224764
0.220107
0.227163
0.229769
0.22652
0.224323
0.224213
0.229154
0.225844
0.236903
0.241699
0.238444
0.237546
0.238778
0.241855
0.236002
0.232725
0.236026
0.238798
0.372734
0.303952
0.334093
0.331309
0.344603
0.342527
0.383319
0.749866
0.860012
2.17507
4.53122
0.310139
0.542294
0.342881
201.812
203.468
201.858
196.269
164.292
199.984
201.648
198.94
197.823
197.968
199.759
200.313
199.767
199.368
202.62
202.194
202.606
203.066
202.574
203.376
202.732
200.946
201.038
200.72
201.609
201.003
201.103
0.188471
0.185799
0.1868
0.186984
0.184969
0.186987
0.18532
0.184458
0.182174
0.183453
0.183437
0.181712
0.183785
0.182406
0.179925
0.1814
0.18185
0.180825
0.181896
0.181201
0.179727
0.180971
0.180709
0.178876
0.181345
0.182585
0.181692
0.180475
0.173775
0.175466
0.175514
0.177688
0.17635
0.176706
0.175419
0.175379
0.17269
0.174649
0.175919
0.174129
0.176351
0.175029
0.176571
0.173928
0.175642
0.178044
0.176359
0.179029
0.17861
0.176916
0.175898
0.177907
0.18012
0.183194
0.181455
0.181926
0.179949
0.181666
0.179301
0.187706
0.190694
0.190304
0.18597
0.186437
0.189488
0.189171
0.270765
0.277069
0.263837
0.299359
0.288179
0.277715
0.284859
0.258184
0.241951
0.257643
0.26775
0.251507
0.258341
0.280174
0.280661
0.252389
0.217483
0.27686
0.243064
0.334811
0.359413
0.339401
0.434547
0.40418
0.420742
0.398259
4.39427
6.96257
3.13528
33.9402
5.13888
5.31835
3.31999
-1.75803
-1.61148
-2.78316
-1.75094
-2.44857
-2.48582
-2.08757
-1.17173
-0.934299
-1.14915
-0.855554
-0.853434
-0.912078
-0.936692
-0.504372
0.510359
-0.20217
-0.230312
-0.0790654
-0.190092
-0.0615343
-0.195813
-0.140537
-0.24165
-0.258505
-0.0321466
-0.199671
-0.0890118
-0.113676
-0.0282367
-0.14182
-0.112322
-0.11743
-0.0452797
-0.0106
-0.0328902
-0.0355674
-0.0456596
-0.0528443
-0.0656718
-0.159728
-0.148476
-0.122738
-0.143171
-0.137677
-0.107083
-0.100676
0.0222275
0.017346
0.0114573
0.0267552
0.0170638
0.0169379
0.0261522
0.0537363
0.0520875
0.060861
0.0583119
0.0519379
0.0547845
0.0622174
0.0814663
0.0843883
0.0912549
0.0793583
0.0728152
0.0785682
0.0845058
0.106297
0.111933
0.104121
0.101852
0.0960003
0.104079
0.0987625
0.10886
0.103835
0.0966099
0.100747
0.101943
0.0973334
0.100779
0.104771
0.101791
0.151813
0.154078
0.158417
0.146127
0.150367
0.150359
0.153894
0.162264
0.168229
0.166853
0.156552
0.152508
0.152249
0.148815
0.152364
0.145996
0.150201
0.174361
0.168684
0.170704
0.168416
0.173746
0.162578
0.185668
0.183865
0.189612
0.181712
0.17785
0.183898
0.185392
0.189278
0.18524
0.182103
0.199144
0.197477
0.202636
0.19603
0.192594
0.196615
0.19848
0.196038
0.195726
0.192543
0.229645
0.233194
0.228548
0.227601
0.223795
0.230427
0.227169
0.282277
0.279702
0.279831
0.275793
0.276268
0.304593
0.289764
0.295415
0.294875
0.289922
0.287936
0.295528
0.283552
0.269612
0.270571
0.276607
0.257761
0.264427
0.264007
0.270306
0.281732
0.263691
0.266689
0.275094
0.185465
0.121047
0.341111
0.141509
0.0595506
0.114091
0.129914
0.443028
0.402582
0.302951
0.246445
0.293498
0.37891
0.430065
23.003
2.93433
4.90663
14.4195
1.31512
0.499034
8.3595
202.661
201.981
202.404
207.073
207.327
206.961
206.749
206.233
206.602
207.064
204.851
203.909
205.016
204.54
205.762
205.367
208.161
207.92
208.19
208.237
208.153
208.319
208.41
207.535
207.078
207.437
0.188151
0.188592
0.188083
0.187851
0.18701
0.187633
0.188148
0.188175
0.188476
0.188942
0.188536
0.187502
0.188054
0.187855
0.18897
0.187904
0.189383
0.205999
0.206271
0.204516
0.2088
0.206803
0.20555
0.20709
0.207316
0.208043
0.209769
0.206263
0.204927
0.206334
0.207536
0.374985
0.376508
0.358802
0.395713
0.377553
0.367924
0.383184
0.386104
0.371253
0.40269
0.399924
0.388037
0.427661
0.411728
0.474847
0.47414
0.446998
0.499706
0.471759
0.458483
0.483987
0.504481
0.48007
0.539232
0.527837
0.511567
0.559602
0.577144
-1.37653
-1.86281
-1.40489
-1.61243
-2.10413
-1.73339
-1.47084
-1.14483
-0.892981
-0.840519
-0.910236
-0.767662
-0.674378
-0.698584
-0.78505
-0.692962
-0.734904
-0.651709
-0.61049
-0.80698
-0.769564
-0.74361
-0.692957
-0.178582
-0.210224
-0.252417
-0.192873
-0.236785
-0.257632
-0.201478
-0.0656306
-0.0950347
-0.0819132
-0.0342764
-0.0134772
-0.0308603
-0.0105698
-0.0312759
-0.0223876
-0.0394377
-0.0322649
-0.004783
-0.0304346
-0.0145644
-0.0172065
-0.00465951
-0.0223675
-0.018716
-0.0180246
-0.00693962
-0.00163722
-0.00470749
-0.00552789
-0.00644508
-0.00796089
-0.00937623
0.010967
0.0111922
0.0154416
0.0131976
0.013545
0.0211906
0.0200447
0.0185676
0.0177874
0.076703
0.071517
0.0720784
0.0745187
0.0700482
0.0728843
0.0772803
0.0905758
0.0944662
0.0885091
0.0935382
0.0902456
0.0897644
0.0866257
0.10771
0.103581
0.103199
0.0992008
0.103375
0.0960694
0.100586
0.115716
0.120008
0.120162
0.123931
0.119717
0.121969
0.126275
0.112987
0.11988
0.117491
0.136608
0.142471
0.135582
0.138545
0.13396
0.129705
0.154338
0.152609
0.158855
0.16597
0.169095
0.17104
0.166562
0.169461
0.173274
0.170891
0.240746
0.24197
0.244802
0.244244
0.243307
0.247513
0.246365
0.253437
0.252055
0.249562
0.251154
0.250037
0.246679
0.248126
0.258008
0.256708
0.257036
0.260237
0.260289
0.259041
0.259438
0.266061
0.263585
0.264009
0.263724
0.261439
0.264979
0.26312
0.27492
0.274955
0.276932
0.274607
0.273464
0.274166
0.275593
0.269834
0.269437
0.269601
0.269666
0.267794
0.268336
0.269194
0.274342
0.27481
0.273127
0.271676
0.271932
0.260091
0.26221
0.264251
0.257412
0.255505
0.258768
0.260022
0.257627
0.26997
0.277982
0.274137
0.273569
0.276865
0.271737
0.249639
0.253099
0.252315
0.243986
0.251992
0.251818
0.244062
208.092
207.986
207.736
208.257
208.093
208.197
208.313
208.221
208.306
208.255
208.437
208.34
208.505
208.406
208.606
208.408
207.528
207.708
207.511
207.183
207.514
206.939
207.526
208.007
208.274
208.352
0.194586
0.194624
0.194805
0.194176
0.194117
0.194274
0.194427
0.191464
0.19129
0.19138
0.19149
0.191423
0.191093
0.191393
0.190344
0.190248
0.189788
0.190651
0.190446
0.190364
0.190252
0.191484
0.191477
0.191297
0.189463
0.190109
0.190234
0.190242
0.191098
0.190709
0.190808
0.190453
0.190686
0.190052
0.193389
0.19277
0.192174
0.191539
0.191541
0.191835
0.191977
0.192266
0.19259
0.28774
0.29565
0.380014
0.402186
0.430364
0.340308
0.357185
0.240555
0.111458
0.173573
0.170411
0.0850238
0.188643
0.129383
-0.0747956
-0.0566245
-0.0786827
-0.0818187
-0.103935
-0.0879455
-0.0711395
-0.00899809
-0.0139685
-0.012316
-0.0136352
-0.015875
-0.0213788
-0.010885
-0.0062848
-0.0108891
-0.0150789
-0.00488135
-0.00200141
-0.00475822
-0.00311556
-0.00562609
-0.00373788
-0.00190964
-0.00316896
-0.00471685
-0.00514116
-0.000417271
-0.00338149
-0.00021866
-0.00131059
-0.000537236
0.000384025
0.000204977
9.94895e-05
2.26102e-05
-0.00209498
-0.000247468
-0.00044715
0.000292628
0.000207933
0.00123425
0.00161657
8.67238e-05
0.00181888
3.59203e-05
0.000660738
0.00162107
0.00173469
0.00260315
0.00405129
0.00401896
0.039631
0.0359187
0.0388221
0.0390454
0.0412511
0.0395734
0.0361913
0.0719909
0.0792768
0.0723027
0.0738896
0.0698686
0.0656306
0.0869308
0.0924414
0.0860699
0.0848939
0.081372
0.0892152
0.0846727
0.0813648
0.10593
0.103536
0.10993
0.119584
0.113833
0.117651
0.122003
0.119104
0.114605
0.11824
0.117493
0.113397
0.11854
0.118632
0.121143
0.114245
0.117852
0.137985
0.135393
0.135729
0.130418
0.134174
0.130639
0.13419
0.136393
0.135574
0.138853
0.136194
0.131325
0.131174
0.135446
0.149296
0.153678
0.1569
0.162669
0.158972
0.154298
0.157727
0.156345
0.159481
0.162389
0.157352
0.160322
0.165256
0.163498
0.197562
0.20389
0.201885
0.192481
0.195082
0.200248
0.198606
0.218544
0.218767
0.213359
0.210449
0.210659
0.216137
0.215692
0.22301
0.221579
0.217604
0.219942
0.218787
0.213162
0.21537
0.223109
0.227975
0.224702
0.226838
0.221084
0.248912
0.248167
0.252518
0.255537
0.256491
0.251007
0.250398
0.255419
0.254457
0.24164
0.244918
0.242917
0.245589
0.241608
0.239609
0.242908
0.242994
0.23945
0.263894
0.262546
0.265005
0.26647
0.268047
0.265008
0.2662
0.271347
0.271763
0.272679
0.27157
0.272732
0.273186
0.271944
0.269437
0.26869
0.269491
0.268498
0.268221
0.269123
0.269284
0.268915
0.269709
0.269696
0.269804
0.27005
0.26952
0.269276
0.268387
0.267648
0.267867
0.266944
0.268274
0.267036
0.268104
0.236132
0.233212
0.232419
0.228484
0.236057
0.226862
0.233502
207.461
207.601
207.81
204.217
203.875
204.196
204.283
204.75
204.543
204.192
205.905
206.509
205.822
206.091
205.142
205.666
203.699
204.239
204.105
200.453
201.034
200.527
200.17
200.632
200.401
200.53
203.585
203.776
203.064
202.147
202.925
203.365
203.446
202.727
202.857
195.529
200.585
204.32
205.066
180.323
203.7
198.822
200.674
196.746
125.239
189.307
198.282
144.421
0.945641
0.290959
0.552441
0.333791
-0.107275
15.8234
5.65144
-0.273495
0.439693
0.144567
0.156257
0.179233
0.129782
0.156513
0.21296
0.100388
0.10001
0.14326
0.177496
0.177499
0.184977
0.149274
0.184737
0.164231
0.179671
0.19521
0.200496
0.195864
0.196693
0.195328
0.194255
0.193971
0.19226
0.192894
0.192254
0.192642
0.193698
0.193251
0.192587
0.191211
0.190739
0.191645
0.191802
0.192069
0.191593
0.19146
0.192309
0.192093
0.191792
0.192163
0.192045
0.191783
0.191452
0.19156
0.191254
0.191499
0.191311
0.190834
0.192169
0.1914
0.191447
0.191867
0.191412
0.190645
0.191222
0.19202
0.191676
0.19168
0.19168
0.191369
0.191638
0.191331
0.191712
0.191937
0.191597
0.191657
0.191707
0.191955
0.191798
0.191944
0.19169
0.191205
0.191746
0.191668
0.190048
0.190963
0.191057
0.189552
0.190545
0.190747
0.190701
0.19012
0.191494
0.192017
0.191493
0.192268
0.191222
0.191995
0.226474
0.176298
0.197262
0.205809
0.179847
0.159587
0.207513
198.303
198.322
197.933
3.98224
4.08503
4.49032
0.564644
0.143777
11.1358
20.3478
1.41876
1.8564
0.517723
38.1287
166.094
189.063
191.117
197.116
190.257
177.012
0.198023
0.200776
0.204316
0.208646
0.203628
0.20457
0.204886
0.183667
0.200552
0.183827
0.19055
0.173208
0.180011
0.182073
0.185932
0.185057
0.181382
0.18508
0.191194
0.187432
0.184816
0.249391
0.249656
0.245847
0.244143
0.244309
0.247751
0.247503
0.242066
0.242101
0.245264
0.243764
0.243846
0.247391
0.246911
0.266942
0.266888
0.262493
0.258335
0.257682
0.264743
0.26507
0.260108
0.26042
0.272028
0.272323
0.277071
0.272743
0.268344
0.271314
0.275422
0.350627
0.344917
0.357884
0.340836
0.335755
0.343672
0.348919
0.351455
0.359487
0.348183
0.342571
0.337352
0.348439
0.343706
0.384561
0.381046
0.398505
0.377169
0.368158
0.385962
0.376385
0.374912
0.382612
0.390712
0.363939
0.360547
0.399582
0.41337
0.407953
0.410329
0.397418
0.412014
0.39606
0.33693
0.324101
0.310105
0.336346
0.351082
0.332298
0.31791
0.267419
0.291416
0.254601
0.249217
0.270533
0.0673887
0.062026
0.0801726
0.0557161
0.0391488
0.0545925
0.0668738
0.0113738
0.0214859
0.0242395
0.0258404
0.0135827
0.00853119
0.0203811
-0.0259342
-0.0235111
-0.011446
-0.016514
-0.0154579
-0.00131924
-0.00404041
0.0127322
0.0193668
0.01452
0.0143549
0.00795514
0.0098616
0.0156931
0.0157252
0.0188818
0.013465
0.0177162
0.0128574
0.0118587
0.0155095
0.0109652
0.0121191
0.0152575
0.016126
0.0126806
0.00454427
0.00302221
0.0027242
0.00748626
0.00401523
0.00463108
0.00697759
0.000188736
-0.000112142
0.00219648
0.00504146
0.00853475
0.00455004
0.00211679
0.0045801
0.00315587
0.0056235
0.00738285
0.00448098
0.00218859
0.00208239
0.000509483
0.0035964
0.00467997
0.00898891
0.00665213
0.00470182
0.00404948
0.000471444
0.00351603
0.0029676
0.021376
0.0165343
0.0173945
0.0193868
0.0160437
0.0183296
0.0218079
0.0174496
0.0135826
0.0175642
0.0170328
0.0212422
0.0191248
0.0227089
0.01744
0.0112161
0.014774
0.030478
0.0357255
0.0296659
0.0318021
0.0282178
0.0249352
0.0378109
0.0408221
0.041703
0.0471784
0.0437493
0.0369588
0.0403005
0.0434591
0.0399678
0.0436369
0.0479514
0.0421899
0.0408282
0.0377363
0.044225
0.0413327
0.0910393
0.0853983
0.0831328
0.0759889
0.0809023
0.0855107
0.0807802
0.08556
0.0827294
0.0826187
0.0775719
0.0814533
0.0780201
0.0816613
0.0946565
0.100433
0.101468
0.104128
0.100043
0.100109
0.0952302
0.111348
0.103529
0.106817
0.0958754
0.101053