/*--------------------------------*- C++ -*----------------------------------*\
| =========                 |                                                 |
| \\      /  F ield         | OpenFOAM: The Open Source CFD Toolbox           |
|  \\    /   O peration     | Version:  v2012                                 |
|   \\  /    A nd           | Website:  www.openfoam.com                      |
|    \\/     M anipulation  |                                                 |
\*---------------------------------------------------------------------------*/
FoamFile
{
    version     2.0;
    format      ascii;
    class       surfaceScalarField;
    location    "0.05";
    object      phi;
}
// * * * * * * * * * * * * * * * * * * * * * * * * * * * * * * * * * * * * * //

dimensions      [0 3 -1 0 0 0 0];
oriented        oriented;


internalField   nonuniform List<scalar> 
13152
(
7.8191e-07
2.00858e-05
-1.29828e-06
-1.95695e-05
1.85162e-05
-1.7262e-05
-4.72287e-07
-3.51073e-06
4.21128e-05
-3.46575e-05
3.52968e-05
-1.93756e-06
2.12541e-05
-7.5481e-05
2.8482e-05
-2.449e-05
6.02681e-05
-1.61017e-05
-2.97313e-05
-2.8531e-05
7.43639e-05
3.46152e-07
-1.67467e-05
2.98928e-07
-2.9933e-05
5.47896e-07
7.76877e-06
5.15952e-06
-2.9675e-05
7.79571e-06
2.71986e-07
-5.08858e-06
-1.56467e-05
-2.98621e-05
-8.60337e-06
-1.49911e-05
-5.16696e-06
2.87614e-05
2.06548e-08
-8.61804e-06
-5.986e-09
-1.44764e-05
-4.94038e-07
5.60767e-06
-3.0418e-05
1.61923e-05
-2.96242e-05
3.00649e-05
2.94696e-05
-6.48692e-07
-5.92612e-08
-1.53155e-05
-2.99467e-05
2.53871e-08
-7.49372e-05
2.31648e-07
1.59547e-05
3.03362e-05
-3.96408e-08
7.50523e-05
3.58129e-05
1.27485e-05
2.53414e-05
-7.39027e-05
2.80273e-07
-5.67684e-07
3.61003e-05
1.25565e-05
2.83666e-07
-1.88703e-05
7.35396e-05
7.74981e-05
2.92248e-05
-5.82746e-07
-2.94537e-05
8.1171e-07
-1.6138e-05
-2.72448e-05
7.26075e-05
2.52545e-07
-1.69733e-05
-7.83831e-06
7.78686e-06
3.03996e-07
5.19971e-06
-3.00113e-05
-4.97506e-06
-1.44829e-05
-2.92291e-05
-1.42713e-05
9.24136e-08
2.9257e-05
1.20333e-07
5.80466e-07
8.99582e-07
-1.00548e-06
-4.74569e-07
-5.68402e-07
-4.44155e-07
1.59302e-06
3.23294e-07
7.88629e-09
9.4225e-08
-8.93796e-07
3.55416e-07
-3.82501e-08
-8.73004e-07
-8.76839e-08
1.3191e-07
2.79068e-07
-1.36824e-07
5.70262e-08
-2.93915e-07
-7.36705e-07
-2.00255e-07
-1.45245e-07
1.80485e-06
-5.35202e-07
-1.1244e-06
2.94901e-06
-1.17473e-06
-1.91953e-06
-2.165e-06
-3.27953e-06
5.66604e-07
1.29284e-07
-1.87062e-06
3.53322e-07
-3.21919e-07
-1.89653e-06
8.48547e-08
-5.04677e-06
-5.97046e-07
-1.28908e-06
-1.53127e-07
2.03925e-06
-3.36162e-07
-4.98857e-07
2.37973e-07
-1.42132e-06
-2.03918e-07
2.6028e-06
1.55319e-06
-5.5773e-06
2.36863e-06
3.02541e-08
-1.23053e-06
3.44603e-06
-1.76195e-07
1.61581e-06
1.68993e-06
1.84083e-06
-5.14656e-06
2.82808e-07
1.7942e-06
-4.61205e-07
1.63374e-06
3.38993e-07
-4.03267e-07
1.97084e-06
2.26631e-07
1.64617e-06
-2.08616e-07
-1.76593e-06
5.37051e-06
2.19228e-07
3.8339e-07
-2.03091e-07
-5.27041e-07
3.46742e-07
-5.03526e-07
-6.89406e-07
1.57631e-06
-4.38184e-07
-2.68444e-07
2.19916e-07
-5.18166e-07
-3.91168e-07
-7.19127e-07
4.11984e-07
5.25949e-08
-1.20992e-06
-7.34038e-07
1.90085e-07
5.40412e-07
-1.81573e-07
-5.48924e-07
4.2554e-07
-5.66367e-07
3.30895e-07
-8.38837e-07
1.80477e-06
-3.89431e-07
6.04502e-07
-3.96651e-07
6.29993e-07
-1.56836e-06
-8.33744e-08
1.46988e-07
-3.17732e-07
-1.27327e-06
-5.01181e-06
-3.87565e-06
1.01607e-05
6.78724e-06
-1.66315e-06
-6.39737e-06
1.87617e-07
1.5878e-06
7.55963e-07
3.89279e-06
-4.46114e-06
1.16405e-05
-9.29675e-06
1.00751e-05
-7.84545e-06
1.78399e-05
2.26251e-08
5.54407e-08
5.33558e-08
-1.31422e-07
8.77553e-07
-5.4117e-07
-3.13758e-07
1.40379e-07
7.92616e-07
1.78506e-06
1.49847e-06
-3.8247e-06
-6.31559e-07
2.10286e-06
-1.13122e-06
6.40043e-07
4.206e-07
5.27416e-08
-3.82013e-08
-1.88839e-08
4.34357e-09
-1.32504e-07
-4.41576e-08
2.29403e-07
-8.43853e-08
-8.632e-08
1.24549e-08
-1.67158e-07
1.10545e-07
-1.03487e-07
9.70579e-08
5.66826e-08
-3.08225e-07
-1.33124e-07
4.79892e-08
4.1242e-08
3.58412e-07
-4.47643e-07
-4.51279e-08
8.52813e-08
7.83565e-09
-4.43477e-08
4.04616e-08
-5.09409e-08
4.94633e-07
2.60717e-07
-3.56005e-07
3.09014e-07
-1.08435e-05
7.10767e-06
5.13066e-06
-1.39488e-06
1.79683e-05
7.67796e-06
1.50149e-05
2.80547e-06
2.22703e-05
3.0414e-07
1.81501e-06
5.55879e-06
7.86635e-06
7.45269e-06
-1.24768e-06
1.19193e-05
5.69781e-06
2.65535e-05
-1.10668e-06
-1.98228e-05
-5.62398e-06
-2.62207e-05
-2.94554e-05
8.22296e-05
-8.90669e-07
-2.64367e-05
-2.94435e-05
2.85497e-05
3.13772e-09
2.17758e-05
-7.7656e-05
-3.87313e-06
2.96742e-06
-1.92008e-06
-1.12968e-06
-1.58724e-05
6.45948e-06
1.05426e-05
-8.56692e-06
4.83082e-06
2.60641e-06
1.33002e-05
1.80938e-05
-6.37572e-08
9.34977e-06
-4.4552e-06
2.39185e-06
4.00379e-06
-5.41259e-07
2.31911e-05
1.9944e-05
8.92842e-07
5.32204e-07
-9.7665e-07
-4.48396e-07
-2.86517e-07
-1.52958e-06
2.70893e-06
-1.02348e-06
1.26914e-06
5.83689e-07
1.53592e-06
-3.09627e-06
1.17681e-06
-1.04153e-06
5.25867e-07
-8.78651e-07
1.03827e-06
-7.20929e-07
3.11283e-07
-1.45557e-06
1.86521e-06
1.23068e-06
-1.36151e-06
-5.90123e-07
-2.07573e-06
3.61766e-06
9.11145e-07
2.11014e-06
-4.3828e-06
1.53673e-06
-1.21573e-06
6.09887e-07
-1.14889e-06
1.2644e-06
1.21977e-06
3.12311e-06
-2.59919e-08
-4.31689e-06
5.93299e-07
-3.96828e-07
1.02327e-06
1.43851e-06
2.27787e-06
2.2635e-06
-8.08178e-07
-1.85216e-06
-9.86319e-08
3.38538e-06
-3.09449e-06
4.43435e-06
-3.9287e-06
-1.37004e-06
-1.71723e-06
-1.38407e-06
4.47134e-06
-7.6795e-07
-2.66087e-06
2.05876e-06
-1.81142e-06
-6.73793e-07
-4.51745e-07
-8.77795e-07
-5.45628e-08
-9.31549e-07
-2.1811e-06
1.89677e-06
1.26432e-06
-4.97252e-06
2.40447e-06
-1.18153e-06
5.0294e-07
-1.70206e-07
2.02959e-06
7.58875e-07
-1.69388e-06
-4.83934e-07
1.41894e-06
-4.12015e-06
1.96982e-06
2.90918e-06
-4.18294e-09
-5.8099e-06
2.98984e-06
-1.41507e-06
-1.39734e-07
4.54849e-06
-4.1494e-06
5.97947e-06
-5.56868e-06
-2.16276e-06
-1.46871e-06
-2.28085e-06
5.91232e-06
-8.99918e-07
-3.5823e-06
2.31946e-06
-8.0616e-07
-1.56247e-06
-5.37383e-06
-3.48577e-06
6.57876e-06
-2.52315e-06
-6.43299e-06
-2.0709e-06
3.00149e-06
-1.73674e-06
2.77822e-06
-6.41159e-06
-1.2318e-06
1.48687e-06
-1.71609e-06
-2.98613e-06
-4.05126e-06
-3.28699e-06
1.03244e-05
-1.83985e-06
-6.31911e-06
5.17285e-06
-4.53262e-06
-1.35844e-06
-1.12598e-06
-2.09465e-06
-6.63153e-08
-2.30101e-06
-5.14404e-06
5.15633e-06
3.01974e-06
-1.27087e-05
5.79675e-06
-1.99879e-06
-1.356e-06
5.05814e-06
-6.37161e-07
3.65106e-06
9.07885e-06
-1.22841e-07
-1.26071e-05
2.61221e-06
3.0923e-06
-2.05339e-06
3.18621e-06
8.50493e-06
-7.40025e-06
3.41043e-07
1.01515e-05
-4.28072e-06
-8.95817e-06
1.24855e-05
-1.33617e-05
5.04271e-06
2.54274e-06
-5.58665e-06
-1.9988e-06
-4.05153e-06
-4.97935e-06
1.40737e-05
-1.07295e-05
9.22094e-06
6.70167e-06
4.61495e-06
-1.6903e-05
1.01731e-05
-5.46992e-06
-1.02953e-05
1.54892e-05
-1.64095e-05
3.95413e-06
-4.58994e-06
-2.72641e-06
3.36222e-06
-1.42275e-05
3.80901e-06
1.4373e-05
-2.4792e-07
-1.8569e-05
8.65736e-06
-2.16234e-06
1.61134e-07
1.18587e-05
-8.6295e-06
1.26e-05
-1.10393e-05
1.19677e-05
-4.97693e-06
-1.6124e-06
-5.37842e-06
-4.6833e-06
4.27589e-06
1.23748e-05
-4.16502e-06
-5.49568e-06
-5.12265e-06
-1.69506e-05
1.79081e-05
-6.17356e-06
-4.44533e-06
-9.02617e-07
-6.88403e-06
-1.3578e-05
3.89261e-06
-2.16314e-06
-3.08597e-06
1.35649e-06
-9.82256e-06
1.22743e-06
1.24877e-05
-2.36206e-06
-9.62366e-06
6.65843e-06
-5.59074e-07
-9.18533e-06
2.68531e-06
5.32961e-06
-7.48399e-06
1.13967e-05
-1.04051e-05
-1.10302e-06
-3.06734e-06
-4.56675e-06
8.73711e-06
-2.91725e-06
-7.37108e-06
-3.19777e-06
-2.78681e-06
5.49431e-06
-4.16985e-06
-8.69554e-06
-7.84798e-06
8.77556e-06
-1.57127e-06
-9.47449e-06
-8.52795e-06
-1.16367e-06
2.5195e-06
1.54934e-06
-2.90517e-06
5.23966e-06
-1.07962e-06
-5.32371e-06
2.97536e-07
7.4616e-06
-6.62825e-06
2.2732e-06
5.90436e-06
6.18096e-07
4.97833e-06
-5.43987e-06
7.54905e-06
-1.97979e-06
-4.66117e-06
4.41133e-07
6.19983e-06
-1.11608e-06
-2.30397e-06
1.44024e-06
-1.35213e-06
-4.42516e-06
5.88514e-06
-9.75606e-08
-8.09159e-06
2.34632e-06
4.97901e-06
5.32436e-06
-6.77408e-06
8.11175e-06
-1.08332e-06
1.82676e-06
1.24887e-06
-1.99231e-06
4.1344e-06
-2.30858e-06
1.06023e-06
4.90092e-06
-4.86293e-06
2.32592e-06
3.78587e-06
-9.17958e-07
-5.93731e-06
-1.30512e-06
2.83086e-07
3.34793e-06
3.85148e-07
-2.60824e-06
1.19778e-06
-3.12123e-06
2.54108e-06
-4.62044e-07
1.22181e-06
-1.31368e-06
5.53908e-07
2.41715e-06
-6.01353e-07
-8.19151e-08
3.72087e-06
2.71006e-06
5.24729e-07
1.05791e-06
2.20603e-06
2.24878e-06
-2.32541e-06
3.22475e-06
5.14591e-07
-4.00193e-07
-4.40028e-07
3.2563e-07
-1.78471e-06
2.28495e-07
2.0708e-06
-3.04481e-07
-1.88043e-06
1.24822e-06
2.78607e-08
-1.71611e-06
2.85764e-07
1.28809e-06
-1.57798e-06
2.09224e-06
-1.85461e-06
-1.25318e-08
2.58221e-08
-1.39109e-08
6.20537e-10
1.68486e-08
2.08733e-08
-5.02532e-08
6.64311e-08
-2.37568e-08
3.30727e-09
-5.33506e-09
-1.18823e-08
4.90235e-08
-2.48419e-08
-1.97008e-07
8.11232e-08
1.82316e-07
-6.02647e-09
-2.14736e-07
-5.94306e-08
1.89581e-07
-7.07897e-08
9.32297e-08
-2.80362e-07
6.94687e-08
1.17664e-07
-1.5155e-06
1.98497e-07
1.41023e-06
-1.01903e-06
-7.76826e-07
-2.31125e-07
1.05225e-06
-6.22629e-07
1.22633e-06
-1.38799e-06
1.47886e-07
-1.14669e-07
5.9739e-07
8.92931e-06
6.08033e-06
-1.57767e-05
7.67101e-07
9.03822e-06
-2.2042e-05
2.19329e-05
6.57831e-06
8.54002e-06
-2.24249e-07
-1.08634e-06
7.88871e-06
-1.87741e-07
8.50332e-06
6.44698e-06
-5.76443e-06
-2.27247e-05
-7.29129e-06
-2.03882e-06
8.93352e-08
-6.94026e-06
-7.38981e-06
7.6531e-07
-7.00267e-08
7.14948e-07
-5.05017e-07
-1.19767e-06
6.658e-06
1.89448e-05
-4.08162e-05
1.52134e-05
-5.44673e-06
-3.77107e-06
1.58755e-05
1.08405e-05
2.65705e-06
-2.86086e-06
1.44708e-05
-1.53817e-05
-6.44517e-06
1.94594e-05
4.68005e-06
-2.8511e-07
-2.16659e-05
-7.73962e-07
-5.56132e-08
3.70004e-07
4.59571e-07
4.88823e-07
3.8762e-07
-1.65041e-06
4.79862e-07
-4.66539e-08
5.84116e-07
4.21189e-07
-6.17688e-07
2.3185e-07
7.22267e-07
-8.20729e-07
1.53244e-06
-4.46199e-07
2.08471e-06
2.39465e-07
-1.59201e-06
-7.32162e-07
-1.13138e-06
9.73688e-08
3.11866e-06
-1.25976e-06
3.67757e-07
6.17258e-07
-4.1378e-07
-1.79559e-06
-3.07522e-07
1.02206e-06
3.16935e-06
1.72026e-07
-4.60116e-06
1.58806e-06
1.94899e-06
-7.36339e-07
2.01681e-06
-9.78181e-07
-5.86294e-07
-2.24302e-07
2.68643e-07
5.41952e-07
8.35714e-07
4.33877e-07
-1.85591e-06
1.18401e-06
-5.72621e-07
6.43904e-07
-7.70105e-07
3.94833e-07
-5.17161e-07
1.703e-06
1.28085e-06
-1.61711e-06
1.94768e-06
2.17186e-06
8.17623e-06
1.75773e-06
-1.21058e-05
1.11521e-06
-8.09735e-07
1.86641e-06
-1.25785e-05
2.187e-05
5.1957e-06
1.36346e-06
-7.36888e-06
1.52051e-06
5.54168e-06
-1.842e-06
-9.21595e-06
1.27927e-06
1.19101e-05
1.31146e-05
-6.45418e-06
-1.85705e-05
-3.30269e-06
5.0586e-06
1.01542e-05
-2.29382e-06
1.95301e-06
-5.52531e-06
8.63094e-06
-4.16945e-06
1.62768e-05
-7.62834e-06
2.70191e-06
-5.98816e-07
-8.44251e-07
-1.09534e-05
-7.56043e-06
4.42237e-06
-1.13126e-05
1.69121e-05
-2.39402e-06
-4.6306e-06
-9.88747e-06
9.43268e-06
6.28845e-06
1.19106e-06
4.59665e-06
2.44213e-06
6.78442e-08
-8.27387e-06
3.57578e-06
2.04001e-07
6.15255e-06
1.56262e-05
7.32872e-06
-1.83582e-05
1.13792e-06
1.69306e-05
-8.03783e-06
9.3801e-06
-8.98245e-06
1.43078e-08
-7.23153e-09
-4.73927e-09
-2.337e-09
-2.51328e-08
-1.07035e-08
5.01441e-08
-9.74302e-09
-2.2621e-08
1.68481e-09
-3.40237e-08
2.16355e-08
-2.70749e-08
2.40204e-08
5.75636e-09
-4.95232e-08
-4.39396e-08
2.91363e-08
1.52822e-08
-5.63003e-08
-1.52265e-08
-8.50994e-09
5.28733e-08
6.80466e-10
8.1706e-08
-1.31277e-07
4.8356e-08
-2.8962e-07
-1.01758e-07
5.8096e-07
8.0757e-09
-2.49339e-07
-4.08072e-08
-1.67894e-07
9.79833e-07
5.06475e-07
7.27057e-07
-2.21336e-06
4.67076e-07
1.20663e-07
3.92095e-07
4.96435e-07
4.77116e-07
-4.98198e-07
-7.02312e-08
1.06486e-06
-7.42346e-07
7.21263e-07
8.26767e-07
-7.76335e-07
8.11478e-07
1.37568e-05
1.63187e-05
-1.37579e-06
-2.86998e-05
-1.72456e-06
1.02687e-06
1.44545e-05
2.29131e-05
-8.31891e-06
-7.22289e-06
1.11283e-06
2.90231e-05
-1.58534e-05
3.1159e-07
1.08895e-05
-8.74979e-06
-6.33977e-06
-6.06086e-07
5.00383e-07
-1.15028e-06
1.25598e-06
8.94485e-07
-7.99872e-07
-7.00701e-07
-1.01338e-06
2.40825e-06
3.87453e-09
1.05987e-06
-1.86362e-06
1.38039e-06
-2.07722e-06
2.16926e-08
4.9928e-07
5.38896e-07
5.66618e-07
8.35461e-07
-9.75018e-08
-3.49264e-07
-7.48503e-07
-3.00455e-07
-3.57498e-07
-4.65177e-07
1.12313e-06
-2.90513e-07
-5.16144e-07
5.0619e-07
-3.28735e-07
-3.19293e-07
1.8395e-07
3.96579e-07
-9.09284e-07
9.42326e-07
-1.0777e-06
7.18855e-07
-8.38444e-07
1.19597e-06
-5.98814e-08
4.24676e-07
-2.72477e-07
-9.23182e-08
2.43633e-07
-1.92363e-07
-1.11162e-07
-1.74509e-07
8.42792e-07
5.67032e-08
9.43983e-08
-3.43477e-07
2.88796e-07
-3.43286e-07
3.81859e-08
7.87643e-08
-2.2585e-08
1.24148e-07
2.02812e-07
-8.67192e-08
3.63372e-08
-2.80462e-07
5.58565e-07
-1.78622e-07
-5.95947e-07
2.16003e-07
-1.22536e-06
7.07953e-08
1.71311e-06
-4.09733e-07
-9.94322e-07
1.29149e-06
4.76106e-07
-2.36357e-06
4.23838e-07
1.08362e-06
-1.17827e-06
1.67287e-06
-1.11196e-06
-2.14472e-07
-6.50606e-07
2.6966e-07
5.95418e-07
-5.89583e-07
6.55112e-07
-2.80017e-07
1.20494e-06
-2.44515e-06
2.76779e-07
-7.34244e-07
7.27119e-07
-6.72252e-07
1.54443e-06
1.60029e-07
-1.77186e-07
6.30689e-07
-9.2612e-07
1.32369e-06
-1.38797e-06
9.90401e-07
3.54984e-06
-3.8662e-07
-4.08936e-06
3.12867e-07
4.56064e-06
3.88123e-06
-4.00514e-07
-4.86871e-06
1.51072e-06
3.36087e-06
3.78886e-06
-4.57602e-06
5.61242e-06
1.223e-06
1.53388e-06
1.9628e-06
-4.71968e-06
1.36826e-06
3.20676e-06
-3.35204e-06
1.17885e-06
1.72327e-06
-3.28924e-06
1.77367e-06
4.72231e-06
3.45308e-06
-4.77957e-06
2.06515e-06
2.56675e-06
5.56203e-06
-4.59332e-07
1.26546e-06
5.68294e-07
-1.37442e-06
2.93089e-06
-1.11003e-06
-2.28019e-06
-2.02412e-07
4.39875e-06
-3.27824e-06
1.79046e-06
2.05607e-06
-2.27395e-09
-4.65041e-06
3.75146e-06
-4.86378e-06
5.33948e-06
2.78243e-06
2.80085e-07
-1.55055e-06
-1.51197e-06
-1.43782e-06
6.50502e-08
4.15519e-06
2.07299e-07
-1.36504e-06
7.06712e-07
-3.72275e-07
-1.88499e-06
-4.06373e-07
1.17813e-06
-2.43377e-06
1.68006e-06
9.61011e-07
-1.2963e-07
-3.66918e-06
-6.7468e-07
1.94836e-06
-1.17659e-06
2.38109e-06
-1.30156e-07
-1.14413e-06
-1.1068e-06
-1.32035e-06
-5.33932e-07
4.23537e-06
-5.5894e-08
-1.3946e-06
-2.52058e-06
2.47191e-06
-7.22212e-09
5.07184e-07
-4.42236e-06
-3.33189e-06
5.26987e-06
-3.96884e-06
-8.83817e-07
-2.55965e-07
1.85309e-07
9.54473e-07
1.61067e-06
1.84637e-06
-4.34087e-06
1.54983e-06
-1.9513e-07
4.41698e-07
-4.16759e-07
1.60367e-07
-3.42841e-07
1.739e-06
2.6637e-07
1.16324e-06
1.47335e-06
1.96145e-07
1.37123e-06
-2.03852e-07
-1.36352e-06
1.6741e-06
-1.47932e-06
1.36308e-09
-1.75375e-06
4.79907e-06
-1.66883e-06
1.26982e-06
1.46358e-06
-4.49594e-06
5.12281e-07
-5.28015e-07
2.83376e-08
-3.57763e-07
-1.3033e-06
2.11761e-07
1.4493e-06
-1.90517e-06
1.9033e-06
-3.55891e-07
1.8315e-06
-5.03997e-06
5.08539e-07
-4.89053e-07
1.92274e-07
-3.97889e-07
2.35573e-06
-3.40338e-07
1.84575e-06
1.00211e-06
4.69851e-07
1.38688e-06
2.55025e-07
-2.11176e-06
1.76301e-07
4.6634e-07
-1.72791e-07
1.30265e-06
2.60531e-07
4.21192e-07
1.73035e-06
-1.89652e-06
1.80015e-06
-9.12619e-07
-1.93717e-06
5.37078e-08
-8.9351e-07
-1.85447e-06
5.10371e-06
3.00877e-07
2.92162e-07
3.10236e-07
-1.67732e-06
-5.29433e-07
-7.75177e-07
-4.56427e-06
-1.13846e-06
-1.34022e-06
-1.49092e-07
2.62777e-06
-2.8743e-07
-5.7115e-07
-2.79883e-07
-2.75239e-07
-1.35241e-06
1.73029e-06
-1.55591e-06
-7.45532e-07
-2.47923e-06
4.06043e-06
-2.62044e-06
-1.34025e-07
-5.52877e-06
2.98486e-07
1.30292e-06
-1.31729e-06
-2.84114e-07
5.24653e-07
-6.62803e-07
4.36641e-07
-8.56635e-07
2.68422e-06
1.53208e-06
2.52585e-06
-5.37522e-06
1.79398e-06
-5.46001e-07
-1.91814e-07
2.05487e-06
1.98811e-06
-1.91068e-06
3.59215e-07
-1.35685e-07
-1.7846e-06
-1.47444e-07
1.77667e-06
1.55371e-07
2.59323e-06
1.27436e-06
-5.65219e-06
2.26761e-06
1.78171e-07
-6.34008e-07
-1.40266e-07
2.55094e-06
-6.75691e-07
1.97049e-07
-2.42949e-07
-7.52563e-07
8.55244e-07
-1.1483e-06
2.29663e-07
1.17822e-06
-1.05216e-06
2.69327e-06
-3.27087e-06
-3.16357e-06
-2.56166e-06
3.67682e-07
-2.78331e-06
-8.61079e-07
-1.93481e-06
-2.15949e-06
-2.05125e-07
-2.79091e-06
-1.92393e-06
-2.3497e-07
2.24082e-07
2.70688e-06
-5.68296e-06
-3.19004e-07
-1.58566e-07
2.19368e-06
-6.98329e-07
-1.33679e-06
3.54502e-06
-1.37569e-06
-2.32789e-06
-3.89097e-06
-2.83453e-06
-5.83023e-07
2.07202e-07
-3.22508e-07
1.11081e-07
-2.0698e-06
1.91101e-06
-5.6909e-06
-7.16319e-07
4.39512e-07
-2.202e-06
-6.00781e-07
2.36326e-06
-3.81671e-06
2.6782e-06
1.57802e-06
-3.91404e-07
-5.6273e-06
4.65744e-06
-2.51496e-06
-2.74326e-06
2.74834e-07
6.74586e-06
1.18411e-06
-5.61998e-07
-3.13708e-06
-6.17179e-07
2.07611e-06
-1.12919e-06
3.19021e-06
-2.08258e-06
-3.55019e-06
-4.01419e-07
1.46961e-06
2.482e-06
1.88961e-06
4.13493e-07
-5.85331e-06
-5.56855e-07
2.04504e-06
3.79333e-06
-1.22776e-06
-3.12243e-06
-6.83447e-07
6.52181e-06
3.01894e-06
-3.83322e-06
3.80508e-06
2.5223e-06
1.37285e-06
-2.54669e-06
-1.34845e-06
-2.52076e-06
-2.36526e-06
7.40831e-06
-4.27039e-06
2.4803e-06
2.06257e-06
-7.08958e-06
5.40764e-06
-4.27583e-06
-5.3471e-06
8.38946e-06
-7.55495e-06
1.88882e-06
4.91585e-06
-4.56458e-07
-6.34821e-06
1.18344e-06
-1.1552e-06
1.86056e-06
2.2693e-06
3.82995e-06
4.58501e-06
-6.74538e-07
-5.06568e-06
5.75545e-07
5.87e-06
-4.97651e-06
7.82134e-06
-6.10756e-06
-1.12009e-06
-1.90386e-06
1.28281e-06
1.74114e-06
-1.47453e-06
-2.76681e-06
-5.98667e-06
6.24289e-07
4.00643e-06
4.90648e-06
-4.59811e-06
-1.73379e-06
-3.27418e-07
6.65932e-06
5.28061e-07
-3.15066e-06
-1.97554e-06
-1.92032e-06
7.14553e-07
4.3844e-06
8.5295e-07
-7.15767e-06
2.11408e-06
2.98486e-06
5.58387e-06
-7.8816e-06
7.37047e-06
-3.18808e-06
-2.21243e-06
-1.52116e-06
6.92167e-06
-5.58744e-08
-1.91313e-06
-1.21908e-06
-5.94459e-09
-2.26237e-06
-2.96083e-06
2.15664e-06
7.98246e-07
2.39431e-06
-7.61751e-06
1.82766e-06
-1.34648e-06
2.46314e-06
-2.24954e-06
-2.9437e-06
-4.47684e-06
9.67008e-06
-1.18888e-06
-3.29505e-06
2.23442e-06
-1.10818e-06
-3.02434e-06
-2.18868e-06
3.42225e-06
-2.34174e-06
4.65204e-06
-9.86505e-06
-3.58794e-07
1.71582e-06
-1.41334e-06
1.01479e-06
1.37975e-06
1.14574e-06
-3.54028e-06
-3.16734e-07
2.65455e-07
1.06604e-06
1.72869e-06
-6.65726e-07
1.94664e-06
-2.05868e-06
3.77481e-07
-6.13498e-07
3.62611e-06
-2.70698e-06
3.82214e-06
-3.62001e-06
-3.50913e-08
-9.73645e-07
1.65889e-08
9.92148e-07
-1.37614e-06
1.40181e-06
-6.07803e-08
2.70297e-07
-2.62013e-06
1.47085e-06
-1.23595e-06
-2.18325e-07
-1.71114e-07
2.63407e-06
4.11632e-07
-3.49867e-07
-1.29775e-06
-3.60374e-07
6.00869e-07
-4.00461e-07
1.44183e-06
-4.80077e-07
7.50826e-07
7.54889e-07
9.94501e-07
-2.50022e-06
2.00326e-07
7.58457e-07
-2.0797e-07
7.13105e-07
2.42087e-07
-7.03783e-08
9.79717e-07
-1.50896e-07
7.67736e-07
1.56336e-07
-5.85767e-07
2.27856e-06
4.24011e-07
7.02218e-07
6.30974e-08
-4.00564e-07
-3.64752e-07
-3.58547e-07
-1.0795e-07
1.16871e-06
-4.18533e-07
1.23079e-07
1.00077e-06
7.66586e-08
-1.49597e-06
5.47895e-07
5.75951e-07
-1.09291e-06
1.53285e-06
-1.41682e-06
-3.05511e-07
-3.70151e-07
-4.08465e-07
1.08413e-06
-2.24153e-07
-7.05666e-07
6.24309e-07
-1.59665e-07
-4.34638e-07
-8.06689e-07
-7.87784e-07
1.18601e-06
-3.05373e-07
-1.20698e-06
-5.59504e-07
-3.87948e-07
-1.29952e-06
5.51707e-07
1.53319e-07
-1.51782e-07
-5.53244e-07
-2.09142e-07
5.29655e-08
7.07882e-07
2.06974e-07
-2.62799e-07
-8.57837e-07
2.09056e-07
8.55755e-07
-5.14181e-08
-1.06922e-06
7.97887e-07
-1.00109e-06
1.0599e-06
-1.56824e-07
-2.443e-07
-2.26801e-07
6.27925e-07
-1.44943e-07
-4.01117e-07
3.89239e-07
-9.09624e-08
-2.98277e-07
-4.14339e-07
-5.77747e-07
7.65288e-07
-2.17396e-07
-5.98054e-07
-3.83986e-07
-2.84719e-07
-8.9965e-07
7.87061e-07
2.07459e-07
3.59062e-07
-1.35358e-06
-7.31962e-08
6.94582e-07
1.6568e-07
1.64154e-07
-2.98891e-08
-3.26186e-07
-5.25832e-08
5.42925e-07
-3.42479e-07
-1.35865e-08
-2.99629e-07
7.04124e-08
9.23795e-07
1.72307e-07
-1.12856e-07
-6.31219e-07
6.49062e-07
-8.01368e-07
-4.74742e-08
1.32082e-07
3.15994e-08
-1.16207e-07
9.87192e-08
3.96754e-07
1.54318e-07
7.64927e-08
-4.40402e-08
3.79562e-08
1.60422e-07
1.01689e-08
2.22981e-08
-6.5629e-08
-8.20322e-08
1.85625e-07
1.4656e-09
-5.69172e-08
-9.4109e-08
4.08847e-07
-6.10125e-08
1.15406e-06
2.6643e-09
-5.20948e-07
-6.35782e-07
-2.19174e-07
-6.50242e-07
2.02348e-06
-1.97852e-08
-1.96717e-07
-2.22374e-07
2.49992e-07
-4.73899e-08
7.4953e-08
-4.94026e-07
5.60099e-07
-1.52716e-07
-9.2833e-07
-2.97574e-07
2.07476e-07
3.97438e-07
-4.75178e-07
3.49885e-07
3.02011e-08
8.92132e-08
-6.13428e-07
-5.83836e-08
4.12114e-08
-8.98565e-08
-1.23025e-07
1.54518e-07
-8.90382e-08
4.0406e-08
-9.30771e-08
3.19942e-07
-3.70103e-07
1.87994e-07
-7.56027e-07
4.29953e-07
1.64127e-06
1.323e-07
-2.20352e-06
-1.23151e-06
-3.77607e-07
1.32777e-07
2.7686e-07
2.38583e-07
-4.83434e-07
1.42577e-06
-9.10362e-07
1.07452e-06
2.89505e-06
1.16958e-06
-4.33954e-06
2.74908e-07
-2.28255e-06
7.0275e-06
-1.85001e-06
-1.29094e-06
1.37803e-06
2.25783e-06
-1.40316e-05
-7.65725e-06
-7.66642e-06
2.93553e-05
-2.07682e-06
-1.25533e-05
-9.14329e-07
-8.81961e-06
-1.80554e-05
-7.96843e-06
-2.76494e-06
-2.78437e-05
-1.25977e-05
3.71497e-06
-2.41823e-05
1.67495e-05
-1.38187e-05
1.3016e-05
1.88339e-06
-8.33132e-06
-2.73311e-06
-1.42941e-05
2.30064e-05
-3.83362e-06
8.22079e-06
-1.72791e-05
-1.87018e-05
-4.80955e-06
1.21988e-05
1.87653e-05
4.051e-06
-4.15179e-05
-7.41462e-06
2.13705e-05
1.96464e-05
-8.82879e-07
-6.56458e-06
1.38107e-05
4.83784e-06
1.55835e-06
2.53258e-05
7.26819e-06
4.06869e-06
-1.95641e-06
1.34991e-05
-7.81704e-08
1.25058e-05
5.06212e-06
-2.54357e-05
5.48094e-07
-8.46874e-07
4.811e-07
-1.53648e-07
7.02033e-07
-2.89985e-10
-1.52212e-07
-8.48308e-07
2.6469e-07
-3.83015e-07
-3.38865e-08
-6.61784e-07
2.30183e-06
-2.26158e-06
2.39991e-06
-4.38675e-10
2.21222e-08
5.90088e-08
-3.78119e-08
2.12085e-07
1.97032e-08
2.29491e-07
-4.61279e-07
1.22399e-08
2.22197e-08
1.77626e-07
1.73172e-08
1.46258e-08
3.04075e-08
-1.82477e-09
-1.12655e-08
-2.08826e-08
6.59158e-08
3.64209e-08
-1.6026e-08
2.45029e-07
7.32429e-09
6.65734e-08
-3.92836e-08
-3.46141e-08
3.85413e-08
-1.11748e-08
-2.00422e-08
2.00913e-08
8.50234e-08
6.7433e-09
4.15592e-08
-8.75861e-08
1.76382e-08
-2.20697e-08
1.67306e-07
-6.84337e-08
-7.87807e-08
-3.92272e-07
6.44601e-07
-1.3119e-07
8.03945e-08
-4.81903e-07
7.94057e-09
-8.64943e-08
-3.41715e-08
-2.08252e-07
-2.49945e-08
1.15906e-08
1.91607e-08
-5.75683e-09
6.39326e-08
6.49506e-09
-9.54221e-08
1.15662e-08
6.39566e-08
-1.92621e-08
9.80388e-08
-5.9616e-08
6.44783e-08
-7.72455e-08
6.71827e-08
-1.07246e-08
-4.4892e-08
4.01313e-09
1.27126e-07
-1.22785e-07
2.24836e-07
-6.90313e-08
1.36484e-08
1.61168e-08
5.49442e-09
-3.52596e-08
5.8552e-09
9.07118e-09
-1.27799e-09
1.07063e-08
-6.89361e-09
3.33766e-08
-1.74119e-08
-1.74253e-08
-1.18464e-07
1.95086e-07
1.59941e-07
1.56671e-08
2.94678e-08
-3.0228e-09
9.01968e-09
-2.39575e-08
1.05603e-08
1.56389e-08
-2.24172e-09
6.41466e-08
1.67208e-08
-1.04825e-07
3.11483e-08
4.35588e-08
-6.72114e-09
7.56929e-08
-5.33328e-08
6.78237e-08
-5.7824e-08
3.34676e-08
6.55045e-08
1.52719e-07
-1.23216e-07
8.11039e-08
2.02053e-07
3.08265e-08
4.36015e-07
-5.90058e-07
6.70381e-08
-4.69233e-08
2.41087e-07
-8.1924e-08
2.59837e-07
-9.0066e-08
4.44157e-07
4.29555e-08
-1.14087e-07
2.01521e-07
-9.75286e-07
8.87851e-07
-1.00332e-06
9.04523e-07
-1.52874e-08
8.83607e-08
-8.90162e-07
2.44513e-07
6.99525e-08
-3.68787e-08
2.66104e-07
1.66211e-06
-1.61063e-06
7.5678e-07
-9.55617e-08
-1.46877e-07
-4.64113e-07
7.06552e-07
8.7473e-07
-7.10832e-07
-2.5946e-07
3.44012e-07
3.83841e-07
-5.79911e-07
2.66898e-07
6.57025e-07
-2.29142e-07
3.30719e-08
1.49599e-06
-1.93992e-06
8.02731e-07
-8.11224e-06
-5.84884e-06
-4.87083e-07
1.44482e-05
-8.14019e-08
6.65478e-06
-1.46856e-05
-5.25046e-06
-6.79715e-07
-5.54244e-06
-3.39186e-06
8.44731e-06
-1.11934e-06
2.23177e-06
9.22621e-06
-1.78685e-05
7.42723e-06
3.66099e-06
4.54611e-06
1.58756e-06
-9.79466e-06
-5.16603e-07
-1.18911e-06
5.36671e-06
6.26164e-06
-2.23212e-06
1.16168e-05
-1.85377e-06
-1.09521e-05
-2.65547e-07
1.72491e-05
-8.79617e-06
1.47923e-05
-9.06235e-06
-2.04738e-06
-2.48488e-06
-4.55424e-06
9.0865e-06
-1.06613e-06
-2.73175e-06
1.75051e-06
-1.26035e-06
-2.29065e-06
-1.05697e-06
-3.8892e-06
2.21441e-06
-3.16676e-06
-2.44443e-06
-2.03134e-06
-2.39575e-06
-8.21116e-06
-1.52741e-06
1.72227e-06
-3.18544e-06
2.99058e-06
2.77034e-06
-2.8819e-06
-1.41585e-06
-2.04855e-06
6.54116e-06
2.52345e-06
3.36776e-06
-8.77312e-06
4.61674e-06
-3.50913e-06
5.94778e-07
1.57438e-06
1.19862e-06
1.58674e-06
3.62479e-06
-4.84995e-07
2.31874e-08
-2.09606e-06
-3.16525e-06
-7.33749e-07
1.21577e-06
2.68323e-06
1.487e-06
-1.60266e-06
-3.0496e-06
-8.56732e-07
1.60998e-06
3.90311e-06
-1.76926e-06
7.3225e-07
4.78085e-06
1.03627e-06
-1.18114e-07
-2.68742e-06
-1.66374e-07
1.9349e-06
1.04029e-06
-2.76106e-06
2.08969e-06
-7.47929e-07
2.19853e-08
4.07116e-07
3.18827e-07
5.21115e-07
4.86508e-07
-1.75556e-06
4.85746e-07
5.73465e-08
-4.52019e-07
3.09727e-07
5.49403e-07
4.75424e-07
-4.40954e-07
-6.11409e-07
1.40687e-06
-7.86503e-08
1.48341e-06
2.25199e-06
8.32301e-07
-4.5677e-06
-3.33876e-07
5.47586e-07
1.26966e-06
2.47566e-06
-5.57601e-07
1.52535e-06
-2.14166e-06
1.16389e-06
-1.18609e-06
3.98107e-06
-3.09329e-06
-4.40271e-06
-2.22699e-06
-1.36609e-06
-5.80306e-07
4.17339e-06
-7.30058e-08
-1.57826e-06
-5.75752e-07
-1.6023e-06
1.63168e-07
-3.65726e-06
-2.32545e-06
5.40238e-06
-5.78661e-07
-4.65692e-06
3.30097e-06
-5.48196e-06
1.13862e-06
3.46323e-06
1.56795e-06
-5.20141e-06
-3.72277e-07
1.65437e-06
-2.79799e-07
1.47546e-06
2.91361e-06
4.33447e-06
-7.01158e-07
4.94444e-07
6.59788e-07
-4.53075e-07
2.68747e-06
-5.75597e-07
-2.81304e-06
-8.22551e-08
3.26416e-06
-1.38517e-06
7.20622e-07
1.32432e-06
-5.5048e-07
-1.28777e-06
1.75549e-06
-2.88158e-06
2.39383e-06
-8.78595e-07
-2.19534e-06
-6.01763e-08
3.13411e-06
-3.63613e-07
4.11336e-07
-9.26324e-07
-3.73999e-07
-2.18497e-06
-2.41078e-06
1.20547e-06
1.61665e-06
-1.89589e-08
-3.31817e-06
2.52296e-06
-2.91593e-06
3.66824e-06
-1.08702e-06
4.53982e-09
6.99818e-07
3.82657e-07
8.46242e-07
6.74495e-07
-2.60776e-06
8.71202e-07
-2.04237e-08
7.18467e-07
7.38713e-07
-7.8269e-07
7.49356e-07
6.68924e-07
-1.45359e-06
3.07415e-06
-7.35311e-07
-5.63831e-07
-2.39376e-07
1.28701e-07
6.74506e-07
1.05326e-06
1.27156e-06
-2.88865e-06
1.09882e-06
-2.84934e-07
3.26694e-07
-2.81499e-07
8.35043e-08
-2.81313e-07
1.28251e-06
1.48679e-07
8.41377e-07
9.66179e-07
5.31515e-08
1.0502e-06
-1.00403e-06
-9.93221e-08
1.50421e-06
-8.59181e-07
-5.9188e-07
-1.14538e-06
3.69978e-06
1.27455e-06
8.16129e-07
-3.09471e-06
8.90276e-07
6.48325e-07
-6.9138e-07
3.93211e-07
-5.59288e-07
-1.71722e-06
-1.9085e-06
4.18501e-06
1.10505e-07
-1.10049e-07
-5.59748e-07
-1.85281e-06
2.46092e-07
-6.49236e-07
4.94789e-07
4.43941e-08
4.9016e-07
-1.69915e-06
1.36294e-06
-2.7256e-06
1.27342e-06
5.84307e-07
-3.89012e-07
1.10747e-06
7.60134e-07
-3.56675e-06
1.06947e-06
8.23907e-08
-2.35388e-06
4.00765e-06
-1.7343e-06
-5.37195e-07
1.72482e-06
-2.77909e-07
3.85146e-07
-1.83206e-06
-9.71017e-07
-1.64503e-06
-3.47159e-07
-9.01768e-07
-1.72727e-06
1.83373e-06
-4.53615e-07
1.57638e-06
-4.20542e-06
-1.29518e-06
3.52941e-08
3.92932e-06
4.46787e-06
-2.79637e-07
1.78131e-06
1.04396e-06
1.22703e-07
-1.51698e-06
1.33158e-06
6.26979e-08
-1.44392e-06
1.48727e-06
7.9351e-08
1.10077e-06
-4.06168e-06
-2.12142e-06
-1.50728e-06
5.11596e-06
-1.32042e-06
-7.21675e-07
8.94369e-07
-1.11402e-06
7.18658e-07
-2.13468e-06
-1.69775e-06
-1.81976e-06
-2.05998e-07
-1.60353e-06
-3.25156e-07
-1.87862e-07
-1.71589e-06
-1.90945e-06
1.67707e-06
4.45204e-08
1.64915e-06
-5.2745e-06
7.62944e-07
-7.17328e-07
6.20243e-07
4.80888e-07
1.80174e-06
-5.13886e-07
-1.76875e-06
1.80853e-06
-1.92433e-06
5.96694e-07
-2.2756e-06
5.88588e-06
-1.44129e-06
1.80921e-06
-8.81799e-07
2.39989e-06
-5.60992e-06
1.13668e-07
3.61891e-07
-3.52716e-07
-1.94592e-07
-1.46471e-06
-2.72762e-06
-6.26213e-06
1.37575e-07
-2.24595e-06
1.7769e-06
3.31472e-07
-1.93119e-06
1.93991e-06
1.28855e-07
1.6489e-06
-5.82604e-06
-2.62058e-06
-1.9336e-06
6.49409e-06
-1.76518e-06
-7.26553e-07
1.03305e-06
-1.14932e-06
8.76348e-07
3.03868e-09
2.0169e-06
-2.28282e-06
2.62875e-07
3.28915e-06
-4.00242e-06
-3.35989e-06
-4.60274e-06
7.79585e-07
-7.06482e-06
-2.82576e-06
-2.71246e-07
-6.64891e-06
4.99298e-06
3.29027e-06
-1.01109e-06
-7.27216e-06
-3.55106e-06
-4.01126e-06
-2.33696e-06
-5.32017e-07
3.40893e-07
-4.00466e-06
-3.47493e-07
-2.52808e-06
-7.54383e-06
-2.08155e-07
3.07654e-06
-1.02976e-06
-1.83862e-06
4.63927e-06
-1.82022e-06
-3.02721e-06
-5.46606e-06
-4.13972e-06
-7.68792e-07
1.09511e-07
-3.70481e-07
-1.86494e-07
-2.40251e-06
2.64138e-06
-8.29393e-06
-1.38882e-06
-2.09917e-06
-2.56657e-06
-2.75472e-07
4.94122e-06
-6.7306e-07
-1.09652e-06
-3.29589e-07
-2.38457e-06
-8.55049e-07
-2.74186e-06
-4.1992e-06
6.66559e-06
-2.59587e-06
-1.24251e-06
4.2162e-06
-9.19662e-06
-8.38034e-07
-4.70118e-06
7.93782e-08
2.73791e-06
1.8839e-06
1.96539e-06
1.41556e-06
-8.08215e-06
5.78096e-09
2.03896e-06
6.67896e-06
-3.06776e-06
-3.60543e-06
-6.00674e-07
9.31857e-06
-2.56898e-06
3.03245e-06
2.27442e-06
1.95128e-06
-3.10475e-06
8.04027e-06
-9.15678e-06
1.0472e-05
1.88472e-06
6.02458e-07
2.89603e-06
-5.38321e-06
-2.15022e-06
2.29572e-06
1.73919e-06
4.66924e-06
-6.21704e-06
-3.9485e-07
-4.73353e-06
7.42408e-06
-2.93153e-06
-3.04882e-06
4.78652e-06
-4.88637e-06
2.06518e-06
7.42526e-06
-1.94148e-06
2.85671e-06
-2.98503e-06
2.19348e-06
1.29785e-06
8.98411e-06
7.83612e-06
1.66436e-06
2.5495e-06
7.48009e-06
5.62717e-06
3.62886e-06
-7.20643e-07
1.09776e-06
-4.00598e-06
-6.94202e-06
1.05047e-05
-2.60442e-06
-8.62686e-06
4.5807e-06
-1.32699e-05
-6.84636e-06
-4.34154e-06
-2.08192e-06
5.06793e-08
-4.07439e-06
-2.82258e-06
-4.81392e-06
5.23165e-07
7.2421e-06
5.39466e-06
-1.74506e-05
3.32884e-06
4.43656e-06
4.22259e-06
-2.9021e-06
1.44396e-07
-4.62418e-06
3.09615e-07
4.17017e-06
-7.63018e-06
5.43286e-06
8.56322e-07
-1.31107e-05
5.30975e-06
-6.35279e-06
1.35268e-06
-1.4801e-06
1.096e-05
1.77519e-06
-1.84379e-06
-6.28419e-06
-1.59425e-06
1.88933e-06
-1.98277e-06
5.8214e-06
-2.97013e-06
4.90857e-06
2.84122e-06