/*--------------------------------*- C++ -*----------------------------------*\
| =========                 |                                                 |
| \\      /  F ield         | OpenFOAM: The Open Source CFD Toolbox           |
|  \\    /   O peration     | Version:  v2012                                 |
|   \\  /    A nd           | Website:  www.openfoam.com                      |
|    \\/     M anipulation  |                                                 |
\*---------------------------------------------------------------------------*/
FoamFile
{
    version     2.0;
    format      ascii;
    class       volVectorField;
    location    "0.05";
    object      U;
}
// * * * * * * * * * * * * * * * * * * * * * * * * * * * * * * * * * * * * * //

dimensions      [0 1 -1 0 0 0 0];


internalField   nonuniform List<vector> 
6576
(
(0.0277183 -1.47726 -0.0432357)
(-0.0736889 -1.52933 0.0589537)
(-0.0238585 -1.56078 0.0122438)
(0.0401619 -1.4499 -0.0499434)
(-0.00189014 -1.50374 0.00416019)
(-0.0653288 -1.58731 0.0646741)
(-0.0102807 -1.53861 0.0262673)
(0.0144296 -1.50074 0.00423413)
(0.0153686 -1.24769 -0.0102229)
(0.0138727 -1.46279 0.000210405)
(-0.0105797 -1.50648 -0.0175128)
(-0.012211 -1.54023 -0.0151998)
(0.000129912 -1.55436 0.00928627)
(0.00725042 -1.48811 -0.00063324)
(0.0518347 -1.47012 0.0208986)
(0.0111637 -1.79827 -0.0251998)
(0.0525962 -0.903084 0.0299173)
(0.0163913 -1.70724 -0.00982483)
(0.0451525 -1.56156 0.0539578)
(0.0158023 -1.48821 0.00691137)
(0.0380895 -1.38767 0.0410391)
(0.0012803 -1.54332 0.0221753)
(0.00908255 -1.47303 0.00932537)
(-0.00489067 -1.50072 -0.0123875)
(0.00257902 -1.60032 0.012495)
(0.0397345 -1.52955 0.0434354)
(0.0519075 -1.50272 0.0538688)
(-0.00012093 -1.4592 0.0135779)
(-0.00646198 -1.57717 -0.0267349)
(0.00495939 -0.976263 -0.00462308)
(-0.0450303 -1.56826 0.0551719)
(-0.0194877 -1.45157 -0.00848339)
(-0.00539092 -1.54691 -0.00261458)
(0.00254815 -1.45353 0.0197693)
(0.00572965 -1.46678 0.019796)
(-0.0154015 -1.23858 0.00928861)
(0.00923473 -1.56687 0.0131722)
(-0.00537961 -1.52819 0.0117261)
(0.0117136 -1.49234 0.0115026)
(0.00291269 -1.47182 0.0114278)
(-0.00161528 -1.40639 0.0100925)
(-0.0106273 -1.47715 0.00616603)
(-0.0058066 -1.43047 -0.0020381)
(-0.0335784 -0.00256951 -0.0203196)
(-0.00105839 0.033308 0.013023)
(-0.00815094 0.0355411 0.0411764)
(-0.0130356 -0.00918824 -0.0306485)
(-0.0385372 -0.0259291 -0.0343972)
(0.0131676 -0.00493653 0.00793292)
(-0.00967485 -0.0360019 0.00757359)
(-0.0102836 0.0456244 -0.00831687)
(0.0217894 0.0303723 0.0260828)
(-0.0082595 0.0877313 -0.0166877)
(-0.000435899 0.106294 0.0171314)
(0.0034973 0.0962087 0.000867305)
(-0.00964912 0.108849 0.0221125)
(-0.00902818 0.0873207 -0.00703285)
(-0.0148179 0.09122 -0.00102644)
(-0.0041752 0.0994799 0.00875298)
(-0.00644342 0.0919024 -0.0137265)
(-0.0133639 0.0907801 0.00224302)
(0.00136295 0.10614 -0.014911)
(0.00547785 0.101373 0.00519477)
(0.00785279 0.105425 -0.000210298)
(-0.00287667 0.115394 0.0153728)
(-0.0183929 0.116842 0.0288358)
(-0.000762696 0.0981924 -0.00376021)
(0.00471613 0.103471 -0.00725973)
(0.00021525 0.0924455 -0.0193163)
(0.0154838 0.117084 0.00373206)
(-0.010904 0.109957 0.015985)
(0.00642648 0.103708 -0.00585779)
(-0.0139478 0.102795 0.0103491)
(-0.0039851 -0.00689712 0.031169)
(0.000389741 -0.00561636 0.0297271)
(0.000198442 -0.012982 0.0263532)
(0.00104578 -0.0057597 0.027604)
(-0.00316043 -0.00771079 0.0285947)
(0.000486721 -0.0120058 0.0227081)
(0.00159963 -0.0122202 0.0230857)
(-0.000127637 -0.0103433 0.0305253)
(-0.00388885 -0.00234421 0.0322681)
(0.00269833 -0.00908734 0.0341773)
(0.00254251 -0.00758725 0.0330472)
(0.000712174 -0.00495357 0.029386)
(9.71392e-05 -0.00278911 0.0307843)
(0.00747983 -0.0060703 0.037866)
(-0.0933777 -0.192923 0.233216)
(0.217244 0.060986 -0.15819)
(0.048132 -0.248541 -0.197374)
(-0.282877 -0.365931 -0.0490607)
(-0.127341 -0.186032 0.173568)
(-0.251815 -0.428589 -0.161839)
(-0.18976 -0.338902 0.239626)
(-0.0123912 -0.0042451 -0.00102373)
(-0.00438984 -0.05404 -0.0262274)
(-0.0149894 -0.0186228 0.0122937)
(-0.020505 -0.0421283 0.0256282)
(0.083406 -0.0832205 -0.124325)
(0.0442596 -0.00861885 -0.0659569)
(-0.0605921 -0.0652408 0.00892076)
(-0.00228852 0.00110287 0.00747237)
(-0.000225221 -0.000863347 0.0106429)
(8.65725e-05 -0.00506583 0.00805751)
(0.000499857 -0.00276438 0.00563758)
(-0.000120615 -0.00214563 0.00271858)
(0.00112072 -0.00457677 0.00389617)
(0.00180707 -0.00285269 0.00231302)
(0.00321635 0.00410837 0.00817643)
(1.17299e-05 0.00267171 0.0020605)
(-0.00276327 -0.000194602 0.0023307)
(-0.00369359 0.0144039 0.00566106)
(-0.00872527 0.00388257 0.00420464)
(-0.00449992 -0.0025262 0.00592239)
(0.224074 -0.465807 0.0246616)
(-0.052346 -0.483856 -0.00149792)
(0.136109 -0.627682 -0.0831416)
(0.0765106 -0.309405 0.0404191)
(-0.0922094 -0.591259 -0.247108)
(0.259614 -0.823273 -0.269315)
(0.178888 -0.339016 0.0223415)
(-0.119786 -1.28963 0.00499167)
(0.0683869 -1.66468 0.0646331)
(-0.00779018 -1.53322 -0.059275)
(0.0146579 -1.69134 0.0220575)
(-0.0833597 -1.57163 -0.0164816)
(0.125845 -1.75581 0.170529)
(-0.0100026 -1.19744 0.0664271)
(0.0547602 -0.569642 -0.0707532)
(0.118824 -0.509962 -0.122013)
(0.00793893 -0.517936 -0.0758739)
(-0.0567627 -0.288637 -0.557811)
(-0.198779 -0.586944 -0.365661)
(-0.00211212 -0.33683 -0.329308)
(-0.246477 -0.674446 -0.471052)
(2.43293e-05 0.0269282 0.0525962)
(0.00137183 0.0233836 0.0513694)
(-0.00638905 0.0175073 0.0504156)
(-0.00201378 0.0165111 0.0577327)
(0.00479681 0.0198973 0.0612553)
(0.00319775 0.0164224 0.0610785)
(-0.00722763 0.0110543 0.0574474)
(-0.00617363 0.0288957 0.0682857)
(0.000318979 0.0365545 0.0757095)
(0.00199403 0.0341175 0.0690588)
(-0.00557587 0.0186711 0.080261)
(0.00779359 0.0236127 0.0832489)
(0.00820526 0.0212889 0.083054)
(-0.00925943 0.0126467 0.0821762)
(-0.00741455 0.0519781 0.089183)
(-0.00123622 0.0282812 0.0599194)
(0.00499215 0.0443976 0.0819261)
(-0.012429 0.0377508 0.063865)
(0.00674337 0.0273676 0.062939)
(0.00593676 0.0494429 0.0860202)
(-0.0202883 0.0582806 0.0938193)
(0.000132091 0.0334042 0.0840809)
(-0.00152246 0.0355328 0.088542)
(0.000315165 0.0362646 0.0872637)
(0.00208227 0.0290268 0.0855921)
(-0.00103373 0.0325946 0.0930476)
(-0.00303678 0.0222908 0.0917964)
(0.00632215 0.0227283 0.0932855)
(0.00201945 0.0270498 0.0921326)
(0.00604953 0.0237957 0.0907229)
(-0.00157714 0.0350058 0.0827874)
(0.00650141 0.0574925 0.110545)
(-0.005971 0.0647786 0.11508)
(-0.0136043 0.0436128 0.0888817)
(0.00672978 0.0335814 0.085239)
(0.00641311 0.0647135 0.115541)
(-0.0178905 0.0674535 0.120803)
(-0.00842656 0.0498189 0.113649)
(-0.0202607 0.0380382 0.113856)
(0.00161997 0.0717836 0.13187)
(0.00341331 0.0115083 0.128007)
(-0.0120286 0.0177083 0.132457)
(0.0142346 0.0349828 0.11959)
(0.00312607 0.0291459 0.119661)
(0.00352995 0.0313051 0.112754)
(0.00539555 0.0327417 0.106112)
(-0.00166797 0.0876769 0.194357)
(-0.00639443 0.0898195 0.208889)
(0.00103719 0.0789743 0.212139)
(0.00144148 0.0709051 0.207982)
(-0.0153549 0.0810045 0.234933)
(-0.0109769 0.0397345 0.234407)
(0.0136825 0.0396824 0.22354)
(0.0151777 0.045745 0.222374)
(-4.17095e-05 0.055058 0.235378)
(-0.00593735 0.155415 0.240815)
(-0.00281778 0.13794 0.171064)
(0.0103845 0.166388 0.214886)
(0.0118136 0.129552 0.189794)
(-0.0093094 0.107991 0.209447)
(0.0236191 0.158594 0.233179)
(-0.00251481 0.110941 0.251959)
(0.00606482 0.131557 0.285892)
(-0.0203781 0.1724 0.266111)
(0.00709279 0.168728 0.265554)
(0.00169564 0.0859951 0.317303)
(-0.00631906 0.0871517 0.305888)
(-0.0110853 0.142633 0.292557)
(0.0264296 0.155527 0.273505)
(-0.0028174 0.184462 0.211726)
(0.0202827 0.285835 0.370918)
(-0.0483586 0.259393 0.3426)
(-0.0401957 0.176999 0.214459)
(0.0220858 0.193119 0.226955)
(0.0305496 0.274128 0.361782)
(-0.0446817 0.206808 0.309072)
(-0.162852 0.0234227 -0.580525)
(-0.0177181 0.00522007 -0.298038)
(0.0988166 0.384987 -0.181106)
(0.216197 -0.355282 0.28962)
(0.156353 -0.0801422 0.0469063)
(0.0859052 -0.466463 -0.0257291)
(0.175402 -0.721145 0.252046)
(-0.00147565 0.175985 0.101977)
(-0.00689586 0.227413 0.186438)
(-0.0321636 0.213237 0.175091)
(-0.00570367 0.176292 0.120755)
(0.0233448 0.178944 0.0971996)
(-0.00202151 0.21258 0.165216)
(-0.0209684 0.196276 0.157468)
(-0.00889244 0.184805 0.164008)
(0.00870527 0.17058 0.154229)
(-0.000405527 0.170708 0.167697)
(0.0166863 0.175631 0.140121)
(-0.0105296 0.184242 0.165511)
(0.00598616 0.174307 0.183953)
(-0.00104992 0.154997 0.154645)
(-0.00211237 0.0791954 0.139364)
(-0.0387285 0.100834 0.143399)
(-0.00366032 0.10156 0.142629)
(0.0239931 0.138603 0.202771)
(-0.0075028 0.107203 0.188065)
(-0.0606116 0.102253 0.185652)
(-0.00361923 0.146128 0.204968)
(0.00413784 0.0805758 0.11487)
(-0.00275094 0.0747859 0.113504)
(-0.0236891 0.0884577 0.122884)
(-0.0113013 0.096248 0.16297)
(0.00673193 0.0959495 0.153425)
(-0.0312567 0.0995242 0.157943)
(-0.0018899 0.106721 0.155726)
(-0.000761565 0.055552 0.0920263)
(-0.000596632 0.0532466 0.103651)
(0.00171011 0.0603479 0.092021)
(0.00538232 0.072059 0.111486)
(-0.00601932 0.0701304 0.106769)
(0.00509334 0.0687322 0.108036)
(0.00246404 0.0581217 0.107994)
(-0.00532421 0.0531328 0.103509)
(-0.00113 0.0619856 0.0950927)
(-0.00100345 0.0284101 0.0670344)
(-0.0156231 0.0425163 0.0727255)
(2.81833e-05 0.0420223 0.0703155)
(-0.00424006 0.033652 0.0849146)
(0.0119078 0.0545515 0.0915714)
(-0.0324847 0.0439458 0.0895898)
(0.00399605 0.0670511 0.0965258)
(0.000109195 0.0258556 0.0208091)
(0.00809943 0.0481575 0.0403089)
(-0.00818843 0.0346831 0.0353011)
(-0.00755898 0.0325361 0.0223188)
(0.00468567 0.0296472 0.024415)
(0.00727519 0.0484827 0.0415967)
(-0.0173853 0.035424 0.0347074)
(0.00120798 -0.000612198 -0.000280499)
(-0.000997012 0.00160438 -0.00311911)
(0.000236989 0.000680102 -0.000184678)
(0.000954555 0.00021745 0.000451214)
(4.87442e-05 0.00359336 -0.00097344)
(-0.000517199 0.00839439 0.0031944)
(-0.000660135 0.00215671 0.00399674)
(-0.00463499 0.00356953 0.00171726)
(-0.00108014 0.00318064 0.00271831)
(-0.0192217 -0.00398037 -0.00446956)
(-0.032573 -0.0489468 -0.0172576)
(0.0258311 -0.128511 -0.00165341)
(0.0019677 0.0134561 0.0435421)
(0.027725 0.0315031 0.0357467)
(0.0580387 -0.00856983 0.0626186)
(-0.0191224 0.048426 -0.00245834)
(-0.217027 0.146146 0.236152)
(-0.585095 -0.226374 0.555318)
(-0.162882 -0.568086 -0.536709)
(0.145899 -0.398356 -0.599068)
(0.262355 -0.604037 -0.396743)
(-0.682864 -0.361373 0.411048)
(-0.414396 0.0679489 0.127255)
(0.162475 0.461562 -0.0976882)
(0.13401 0.31886 0.0981364)
(-0.0163131 -0.0132161 -0.0239617)
(0.0421684 0.0972595 -0.00482509)
(0.0216943 0.0374711 -0.000523517)
(-0.759028 0.850938 -0.0100147)
(1.59539 -1.35197 0.0703248)
(1.28283 0.520072 0.0751411)
(-2.25773 0.819087 -0.144591)
(1.24124 -1.12899 -0.269568)
(-0.303569 -0.381119 -0.324153)
(-1.27844 0.961159 -0.175964)
(-0.00498008 0.00834021 -0.0297087)
(0.00215028 0.00898872 -0.0305283)
(0.000217442 0.00299342 -0.0270275)
(0.00829511 0.0205999 -0.0389685)
(-0.00499312 0.0142603 -0.0336071)
(-0.00157153 0.0100912 -0.0293028)
(0.00538858 0.0141581 -0.0329792)
(0.00288626 -0.0664018 -0.0123692)
(-0.00417683 -0.0591744 -0.0191239)
(-0.000427465 -0.0639046 -0.0138883)
(0.00471467 -0.0684188 -0.0132109)
(-0.00236556 -0.0598296 -0.0207949)
(0.0196867 -0.083243 -0.0357509)
(-0.00902473 -0.081321 -0.0349651)
(-0.00439515 -0.0712398 -0.0292013)
(0.00757237 -0.0754884 -0.0197128)
(0.000108272 0.0130034 -0.0305747)
(0.000572197 0.00676158 -0.0352444)
(-0.0015223 0.010623 -0.0377637)
(0.00669457 0.00677136 -0.0295877)
(-0.00131687 0.0133303 -0.031754)
(0.00789716 0.000439492 -0.0384812)
(0.000175656 0.00956439 -0.0372067)
(-0.0229167 0.115886 0.233998)
(0.0212743 -0.0842883 -0.0170794)
(-0.318402 -0.545951 0.233382)
(0.0555618 -0.139673 -0.0411635)
(-0.000581279 -0.157242 0.168566)
(-0.432656 -0.508011 0.321538)
(0.0337297 0.00740831 -0.0201203)
(-0.128179 0.38348 -0.107087)
(-0.0897068 0.996932 -0.21447)
(-0.134562 0.424148 0.183005)
(0.259521 0.447134 -0.256499)
(0.28253 0.456667 -0.352555)
(-0.0852242 -0.0322381 -0.0756157)
(0.106702 -0.179534 -0.292097)
(-0.360621 0.485057 0.521766)
(-0.32628 0.30224 0.574808)
(0.794882 -0.88692 -0.0285352)
(0.020626 -0.0378471 -0.112721)
(-0.247797 0.639558 -0.517101)
(0.549007 -0.73472 0.513171)
(0.36427 0.100094 0.0688228)
(0.390449 -0.270741 -0.500705)
(-0.249273 0.133215 -0.331932)
(-0.107249 -0.439606 -0.434243)
(0.176723 -1.13921 -0.160234)
(-0.000379957 0.00055834 -0.00190982)
(-9.82561e-05 -3.20531e-05 -0.00250322)
(0.000433693 -1.60761e-05 -0.00167114)
(0.000429517 -0.000392878 -0.00139262)
(0.000432025 0.000204473 -0.000747977)
(0.00115124 -0.00020713 -0.000755004)
(0.000564936 -0.00024865 -0.000885761)
(-0.000410924 0.000625983 0.00279678)
(-0.00192054 -0.000395331 0.000617891)
(-0.000663181 2.02108e-05 0.000568723)
(-0.000420444 0.00123824 -0.00251442)
(-0.000747419 0.00168391 -0.00181066)
(-0.00234513 0.0109043 -7.70976e-05)
(0.00214399 0.00573528 -0.00502185)
(-5.61401e-05 0.00421577 0.000966515)
(-0.000111569 0.00129037 0.00324382)
(0.00631897 -0.0325312 0.0469288)
(-0.0162645 0.0141804 0.0463111)
(0.00237866 -0.0389907 0.0157023)
(0.00494221 -0.00336911 0.0173899)
(-0.00160479 -0.018026 0.0257531)
(0.00948489 -0.0160711 -0.0268616)
(-0.0239264 -0.0474974 -0.00950625)
(-0.190996 0.0296938 0.520792)
(0.153485 0.22916 0.424353)
(-0.212601 0.0137793 1.219)
(0.385562 -0.734477 0.444282)
(-0.594495 -0.0638526 0.893083)
(0.601569 0.282911 -0.681472)
(-0.43696 -0.24793 0.0488853)
(0.00296413 0.0241004 -0.0424691)
(-0.000240473 0.0338018 -0.0406228)
(0.000949034 0.0267869 -0.0443946)
(-0.00238388 0.0366902 -0.0356531)
(0.00348261 0.0384857 -0.0392456)
(-0.00074815 0.0324366 -0.0342355)
(0.0034959 0.0359402 -0.0387875)
(0.00306161 0.0310593 -0.0435342)
(0.00157102 0.0255207 -0.038287)
(-0.000163608 0.0159178 -0.0210261)
(0.00487434 0.00929118 -0.0179179)
(-7.82727e-05 0.0167548 -0.018217)
(-0.00185579 0.0164029 -0.0151006)
(0.000630773 0.0192951 -0.0217425)
(0.00666873 0.00671137 -0.0227325)
(0.00334759 0.0186683 -0.0225392)
(0.00295517 -0.00160624 -0.0142057)
(-8.59604e-05 0.00406593 -0.0103657)
(-0.00192939 8.61798e-05 -0.0155667)
(-0.00186279 0.00421418 -0.00637566)
(7.98208e-05 0.0062054 -0.00826733)
(-0.000812783 0.00269502 -0.00758229)
(-0.000930432 0.00564505 -0.0105601)
(-0.000551741 0.00263465 -0.0139281)
(0.000518551 -0.000669523 -0.0108545)
(0.00050347 -0.033056 0.0109881)
(-0.00121494 -0.0328849 0.0237252)
(0.0078451 -0.0400964 0.0270907)
(0.00746897 -0.0451455 0.0197998)
(-0.00742544 -0.0403977 0.0198994)
(-0.00335071 -0.0449111 0.0323357)
(0.0203552 -0.0570992 0.0425267)
(6.74774e-05 -0.0348953 0.0130221)
(-0.00612002 -0.0414184 -0.00091365)
(0.00497965 -0.0456855 0.0137461)
(0.00232796 -0.0367019 0.0135439)
(0.00268699 -0.029187 0.00908555)
(0.000961094 -0.0334058 0.0045182)
(0.0127567 -0.0505583 0.0115434)
(0.00216845 0.0733439 0.0529596)
(0.0177903 0.0874649 0.0778496)
(-0.00980306 0.0851177 0.0619614)
(0.00982622 0.10335 0.0769665)
(-0.0047764 0.0986633 0.064462)
(0.0334816 0.120429 0.103004)
(-0.00111039 0.11048 0.0804587)
(0.00217697 0.0890479 0.065089)
(-0.0109677 0.0916311 0.0632664)
(-0.000969423 0.0893438 0.0679263)
(-0.00777658 0.0950913 0.0487714)
(0.00930935 0.0902487 0.0549479)
(0.0113309 0.101184 0.050832)
(-0.00289887 0.107111 0.0428529)
(0.00123233 0.0701298 0.0307082)
(0.0157354 0.0854986 0.0449792)
(-0.00986688 0.0820106 0.0335708)
(-0.00499526 0.0918088 0.0398068)
(0.00574748 0.0950117 0.0496321)
(0.0201968 0.11285 0.0674908)
(-0.00795021 0.10459 0.0544418)
(0.00977787 0.0767436 0.0270172)
(-0.00269705 0.0777138 0.025606)
(-9.43556e-05 0.06729 0.0121816)
(0.00640419 0.0708335 0.0216446)
(-0.000610695 0.0740597 0.0201773)
(-0.00642615 0.0735188 0.0185066)
(0.000827049 0.0691985 0.0226375)
(-0.00364574 0.0715864 0.0176346)
(-0.00105047 0.0686362 0.0197014)
(0.0236856 0.0787254 0.0229059)
(-0.00236364 0.079677 0.00771864)
(-0.000153461 0.0711048 -0.00167033)
(-0.00313322 0.0930925 0.00167343)
(0.00201336 0.0870666 0.0142592)
(0.00740938 0.102319 0.016052)
(0.0267386 0.103011 0.0387655)
(0.00842823 0.0583122 0.00122857)
(0.00431271 0.0812184 0.00321993)
(-0.00867184 0.0819476 0.013691)
(0.00263851 0.0868365 -0.00938848)
(0.0035873 0.0815486 -7.61652e-05)
(0.00787933 0.0868608 -0.00503814)
(-0.00629043 0.0806514 0.0110364)
(-0.000364743 0.0775925 -0.0115501)
(0.0105569 0.0930452 0.000244574)
(-0.00916583 0.0912396 0.00314207)
(-0.0127629 0.0872196 0.0166831)
(0.00523079 0.0835585 0.0023616)
(0.00766061 0.0987622 0.010246)
(-0.0240246 0.099125 0.0276612)
(0.00118439 0.114126 0.0201607)
(0.0119117 0.0971767 -0.00403652)
(-0.00025489 0.0947428 0.00125226)
(-0.0061715 0.101664 0.00694723)
(-0.00305884 0.108891 0.0101416)
(0.00645668 0.0936908 -0.00521926)
(-0.00505154 0.091326 0.00330346)
(0.00789467 0.0931263 -0.00302723)
(0.00396647 0.0950197 -0.00726191)
(0.000784744 0.106646 -0.0153156)
(-0.00128821 0.0911992 0.0118345)
(0.00856248 0.0912526 -0.000365711)
(-0.00388911 0.0967736 -0.00411156)
(-0.0137447 0.0954192 0.0125965)
(-0.00813531 0.0984829 -0.00290818)
(-0.0132721 0.0696592 -0.000438655)
(0.00848082 0.0948854 -0.0163388)
(-0.002108 0.0882046 0.0135969)
(0.0131892 0.0642816 0.00146855)
(0.00415719 0.0854563 -0.000419136)
(0.00238686 0.0964729 -0.00774064)
(0.0243755 0.0982811 -0.0283057)
(-0.000522203 0.0992835 0.0116743)
(0.0583127 0.149978 -0.0573197)
(0.0180715 0.134789 -0.0352763)
(-0.0119401 0.102398 0.00475936)
(0.00501831 0.111788 -0.00479409)
(0.000103987 0.102942 0.0209072)
(-0.00617547 0.110842 0.0125395)
(0.00483215 0.103503 0.00730929)
(-0.00165388 0.100631 0.0145649)
(0.00434615 0.093103 0.00718972)
(-0.00852932 0.125281 -0.00245913)
(0.0273122 0.118897 -0.0280754)
(-0.0124927 0.114852 0.00644366)
(-0.000498239 0.107045 -0.00615701)
(-0.00794151 0.118618 -0.00434312)
(0.000363689 0.109191 -0.00924455)
(0.00491824 0.105397 0.00344548)
(0.0079745 0.108102 0.00325115)
(-0.00198687 0.10685 -0.00955602)
(-0.00182496 0.109377 -0.00637566)
(0.00276084 0.100398 0.00131886)
(0.0015213 0.0991592 0.00378181)
(-0.000848254 0.10319 0.00601898)
(0.00492179 0.104825 0.00567141)
(-0.00103284 0.108718 0.00544613)
(0.00940649 0.104062 -0.00139595)
(0.00223467 0.105897 0.00993358)
(-0.012476 0.115764 0.00471387)
(-0.00289672 0.10469 0.00601017)
(-0.000170025 0.108785 0.0140852)
(-0.00129992 0.105955 0.00575493)
(-0.00408382 0.10969 0.00576779)
(0.00567143 0.105506 0.000682922)
(-0.00867225 0.106526 -0.0132542)
(-0.00255557 0.126658 0.0186929)
(-0.00112813 0.117346 0.00764569)
(-0.0133136 0.102817 0.00513394)
(-0.0173059 0.128516 0.0326076)
(-0.0139365 0.121106 0.0242687)
(-0.0176413 0.115145 0.0125817)
(-0.000664305 0.108074 0.0261682)
(-0.00699283 0.113509 0.0296789)
(-0.00159878 0.105874 0.0380169)
(0.0143975 0.125754 0.0488435)
(-0.000984836 0.126221 0.0460835)
(0.00878335 0.113745 0.0403754)
(-0.00105008 0.119822 0.0387894)
(-0.00577674 0.11501 0.031875)
(-0.00318688 0.112259 0.0375369)
(-0.0231227 0.122693 0.07161)
(0.00486145 0.111538 0.061644)
(-0.00144327 0.104647 0.0292293)
(0.0282248 0.120642 0.0599958)
(0.00193883 0.124736 0.0611164)
(0.0211528 0.133827 0.0698612)
(-0.0240068 0.15463 0.0994464)
(-0.00228207 0.130711 0.0795643)
(0.00789771 0.140938 0.0727345)
(0.0155782 0.131649 0.0530456)
(-0.0129521 0.122861 0.0663011)
(0.00575478 0.154841 0.0752531)
(0.00386179 0.160547 0.0566793)
(-0.000331615 0.141244 0.040625)
(0.00944714 0.13169 0.0929407)
(0.00273152 0.100752 0.063474)
(-0.00303478 0.133687 0.0737667)
(0.0217612 0.115111 0.0987539)
(-0.00327928 0.109619 0.0796963)
(0.0133537 0.152398 0.10216)
(0.0391665 0.155539 0.127627)
(-0.000546447 0.069063 0.105541)
(-0.00318599 0.0527992 0.1057)
(0.00473186 0.0550627 0.10863)
(0.00020248 0.0750452 0.0989344)
(0.00113833 0.0701833 0.0926001)
(-0.0223018 0.0653081 0.150211)
(0.0115364 0.0361236 0.141562)
(0.000137177 0.0405926 0.0974583)
(0.0223378 0.0490667 0.132695)
(-0.0111651 0.0561046 0.118371)
(0.0221003 0.0445301 0.146097)
(-0.0244079 0.0814392 0.166792)
(-0.00167247 0.0323857 0.132631)
(0.0266021 0.0508639 0.141588)
(0.000134612 0.00151255 0.120733)
(-0.0151647 0.0142779 0.139719)
(0.00912571 0.0181707 0.141737)
(0.043659 0.0726597 0.171828)
(-0.00968156 0.0487393 0.158975)
(-0.013267 -0.0429636 0.183711)
(0.0233744 -0.017647 0.178389)
(0.000443905 -0.0610837 0.166443)
(-0.0227079 -0.0427285 0.199479)
(0.00830833 -0.0570193 0.18387)
(0.0255111 -0.00163096 0.20545)
(-0.03557 -0.0248964 0.214402)
(0.00839855 -0.0219283 -0.0658224)
(-0.000331729 -0.013927 -0.0565117)
(-0.00511175 -0.0123534 -0.0593165)
(0.00680726 -0.00705646 -0.071066)
(-0.00531801 0.0057341 -0.0737755)
(-0.00638711 0.00773478 -0.0784025)
(0.0156163 -0.014625 -0.0680552)
(-9.59787e-05 -0.00131302 -0.0478663)
(-0.000953513 -0.000389376 -0.0532459)
(0.00114297 0.00151228 -0.0487379)
(0.00346146 0.00423722 -0.0507772)
(-3.87562e-05 0.00519896 -0.0493667)
(0.00264101 0.00410563 -0.0499369)
(0.00176968 0.00381969 -0.0498571)
(0.0020536 0.0023545 -0.050555)
(0.00117072 0.00310479 -0.0486112)
(0.00395749 0.00202483 -0.0456534)
(-0.00627798 0.00411992 -0.0467668)
(-4.72025e-05 0.0124441 -0.0426305)
(-0.00905762 0.0024445 -0.0507485)
(0.00773852 -0.00567263 -0.05071)
(-0.0027158 0.00867468 -0.0431009)
(0.00538768 0.00248029 -0.0438481)
(0.00347281 0.00759238 -0.0222136)
(-0.00224756 0.00531939 -0.0218685)
(0.00029891 0.00560685 -0.0211225)
(0.00291125 0.0134214 -0.0311025)
(-0.00232994 0.0113481 -0.0277706)
(-0.00308186 0.0139245 -0.0295944)
(0.00654968 0.0154315 -0.033154)
(-0.000186649 0.0140428 -0.0203273)
(0.00159396 0.0113719 -0.0195195)
(0.00021403 0.0104953 -0.0218474)
(-0.000738847 0.00959987 -0.0228562)
(-0.000704045 0.00725445 -0.021327)
(-0.000841033 0.00709965 -0.0251049)
(-0.00141823 0.00609079 -0.0227491)
(0.00209603 0.0108951 -0.0141974)
(-0.0021622 0.0104363 -0.0132183)
(0.000275124 0.0103759 -0.0129709)
(-0.00258901 0.0163775 -0.0188073)
(0.00382201 0.017433 -0.0239635)
(0.00611211 0.018382 -0.0248205)
(-0.00431892 0.019498 -0.0205649)
(0.00106536 0.00931899 -0.0117233)
(0.00125921 0.00708317 -0.0110703)
(0.000249042 0.00659882 -0.0150203)
(0.00488287 0.00934076 -0.0148664)
(-3.14485e-05 0.0067606 -0.010923)
(0.000562086 0.00525428 -0.0193307)
(-0.00112929 0.00505386 -0.0154855)
(0.00350454 -0.00548668 -0.0262866)
(0.0021479 -0.00381979 -0.0259589)
(0.000221182 -0.00382418 -0.0185489)
(-0.000657507 -0.00130486 -0.00987273)
(-0.000504544 -0.000968992 -0.0111021)
(0.0141542 -0.0179761 -0.0233034)
(0.00781078 -0.010469 -0.0225294)
(-0.00488176 -0.0131605 -0.0134175)
(-0.00202977 -0.00459412 -0.0126512)
(-0.00363919 -0.00258035 -0.00419238)
(0.00227794 -0.00380993 -0.0105232)
(0.000169884 -0.00843283 -0.00410334)
(-0.000348218 -0.00879285 2.16905e-06)
(0.00225043 -0.00541449 -0.000831914)
(0.002932 -0.006363 -0.00168184)
(0.00379438 -0.000199386 0.00197868)
(0.0106069 0.00358687 -0.0120311)
(0.000910678 -0.00142737 -0.000975274)
(0.00412806 -0.0345284 -0.00989937)
(-0.00562623 -0.0465343 -0.00775526)
(-0.000123122 -0.023506 -0.000952443)
(-0.000668892 -0.0126389 0.00273378)
(0.000541092 -0.0198918 -0.000981491)
(-0.0074308 -0.0226623 -0.0164677)
(-0.0163842 -0.0363069 -0.0220278)
(0.00507177 -0.015456 -0.00725576)
(0.007089 -0.0113409 0.00385411)
(-0.00278642 -0.0112426 -0.000428252)
(-0.00234909 0.00281513 -0.000334816)
(-0.00301531 -0.0119006 -0.00589528)
(0.00176697 -0.00954211 0.00283621)
(-0.00334345 -0.0218769 -0.00763412)
(0.000515873 -0.0146737 -0.000870896)
(0.000248981 -0.0143116 -0.00763283)
(-0.0507645 0.0791281 -0.0820621)
(0.0125872 -0.185443 0.0627542)
(0.0142741 0.0929252 -0.0341158)
(0.0248261 0.0881516 0.00731031)
(-0.00304471 -0.02425 0.00826986)
(0.0413798 -0.0531768 0.0759297)
(0.469991 -0.0933431 -0.110464)
(-0.136391 0.449658 0.0849957)
(0.220055 0.239479 -0.0125976)
(-0.204258 0.436425 0.0854962)
(0.153198 -0.122984 -0.545052)
(0.205192 -0.568555 -0.0638228)
(-0.0189212 -0.402251 0.0919672)
(0.0291301 -0.56224 0.215363)
(0.351488 -0.4328 -0.1966)
(0.238366 -0.29574 -0.0201068)
(0.044719 -0.473615 -0.261987)
(0.0173009 -0.478405 0.121821)
(1.00158 -0.259965 -0.315117)
(0.373149 0.4854 -0.414394)
(-0.653188 -0.13584 0.237373)
(-0.559745 -0.180967 0.186808)
(0.0787057 0.338623 -0.296985)
(0.381369 -1.54098 0.669931)
(-1.04747 -0.0868252 0.0138017)
(0.131391 0.313553 -0.174778)
(-0.35956 0.132602 0.839571)
(0.13702 -0.157615 0.726586)
(0.122961 -0.127346 1.48357)
(-0.483097 0.114258 -0.471825)
(0.894701 -1.25777 -0.376145)
(0.774003 -0.112495 0.286687)
(0.0281006 -0.0265563 0.813985)
(-0.150258 -0.136226 0.0200702)
(0.11221 -0.0116341 0.3542)
(0.0412954 1.10177 0.694203)
(0.17862 -0.032727 0.813805)
(-0.165789 -0.586814 0.280252)
(-0.0240963 -0.00296172 0.000749897)
(-0.0132408 0.017996 -0.00945987)
(-0.000812301 -0.0473512 -0.0112588)
(0.0396192 -0.000398089 -0.0167472)
(0.0463809 0.0137117 0.0422691)
(-0.0493452 -0.0207863 -0.0924296)
(0.00132287 -0.0422594 -0.0578709)
(1.56743e-05 0.000161873 -0.0020378)
(-0.000199416 -0.00103304 -0.00205961)
(-3.30433e-05 -0.000313676 -0.00243839)
(-0.00501682 -0.00832624 -1.00182e-05)
(0.00176983 -0.00576289 -0.00402841)
(0.000277549 -0.00326308 0.000436309)
(-0.000661572 0.000905743 0.00150152)
(0.00135489 -0.000717649 0.00364137)
(-0.00125668 0.00123066 0.002126)
(-0.0048003 -0.0105975 0.000278279)
(0.00235657 -0.00064056 -0.000768502)
(0.00121992 0.000186202 0.000713029)
(-2.94218e-05 0.00345335 0.00219066)
(0.00398448 0.00402791 -0.000202932)
(0.000976439 0.000731142 0.000131837)
(-0.00206388 0.00589327 -0.00196955)
(0.00367466 0.0117632 0.0028328)
(0.00382711 -0.000618997 0.00132242)
(0.0115539 0.00874083 -0.00296064)
(0.00214935 -0.000540746 -0.000853814)
(0.00216559 2.85207e-05 0.0013136)
(0.00427763 0.000115804 -6.00202e-05)
(3.87686e-05 -0.000484631 0.0037926)
(-0.000441757 3.87514e-05 0.00452962)
(-0.000725738 6.01664e-05 0.00429546)
(-0.000645873 -0.000516615 0.00361636)
(-0.000193315 0.000381027 0.00397917)
(0.0017407 0.00135018 0.0033884)
(0.00118462 -0.00030966 0.0046702)
(0.00246064 -0.000576177 0.00679029)
(0.00826473 0.00891867 0.0127517)
(8.92562e-05 -0.000135162 0.0015328)
(-5.78522e-05 -0.000252924 0.00147124)
(0.000574627 -1.57882e-05 0.00130034)
(0.000226178 -0.00018626 0.00125087)
(-0.000255558 0.000329938 0.00108381)
(0.00140679 -0.00109319 0.00362829)
(-0.00187969 -0.00490738 0.00278186)
(0.000247785 -0.000102166 0.0016127)
(3.18518e-05 0.000113582 0.00152178)
(-0.000415911 0.000154233 0.00124441)
(-0.000620233 -0.000268446 0.00386715)
(-0.000201741 0.000295553 0.00474511)
(-3.35339e-05 0.00126928 0.00417268)
(-0.000276166 0.000635327 0.00313871)
(0.000405639 9.56994e-05 0.00304582)
(0.00105048 0.000694902 0.00316217)
(6.07386e-05 0.000786207 0.00290457)
(-0.00212721 -0.00789718 0.00303969)
(0.00520494 -0.00771829 0.00520798)
(-0.000266367 -0.00634188 0.00607444)
(0.000358015 -0.000351592 0.0046399)
(-0.00255228 0.00423556 0.0047686)
(0.00884924 0.00563987 0.0120756)
(0.0080737 0.00825805 0.0117914)
(-0.0300881 -0.00846691 0.0578569)
(0.0062384 -0.0494195 0.00740613)
(-0.0458187 -0.00633114 -0.0223853)
(0.0172411 -0.0148222 -0.0261964)
(0.000591044 0.00773242 0.00222616)
(0.000892868 -0.0290999 0.0303078)
(-0.0691982 -0.00942066 0.094438)
(-0.00895345 0.003497 -0.02909)
(-0.0416933 0.0130466 0.0224976)
(-0.00301817 -0.0386362 0.00794257)
(0.0115215 0.00637709 0.00369223)
(0.00286036 -0.0058958 0.0228685)
(0.0142258 -0.0119638 -0.0479502)
(-0.0406368 -0.0271437 -0.0206465)
(0.100693 -0.323367 0.0393246)
(0.162521 -0.0139353 0.281194)
(-0.0192901 -0.18044 -0.207059)
(0.135068 -0.182155 0.0023308)
(0.338591 0.0585169 0.038398)
(0.0390501 0.0718814 -0.393337)
(0.0450571 0.0836409 -0.288232)
(-0.00523418 0.0064342 -0.174824)
(-0.0224942 0.0655718 -0.211763)
(-0.0158541 -0.0523435 -0.177208)
(0.112431 0.182638 -0.280936)
(0.0407583 0.162046 -0.309523)
(0.0244988 0.0404241 -0.27473)
(0.111353 0.100446 -0.289915)
(-0.026349 0.0311344 -0.171996)
(0.0229619 0.0369425 -0.16108)
(-0.00305644 0.0708008 -0.15611)
(0.0229136 0.0389994 -0.158334)
(-0.0308658 0.015324 -0.177322)
(-0.00497954 0.047214 -0.166318)
(0.0371365 0.0422046 -0.142718)
(0.0127738 0.0585296 -0.115943)
(0.00545108 0.0605083 -0.12135)
(0.0142943 0.0507719 -0.12024)
(-0.000658251 0.121565 -0.177364)
(-0.0154425 0.0763427 -0.204063)
(-0.00145212 0.0901964 -0.1389)
(-0.0162564 0.0655374 -0.17018)
(0.00141927 0.0495809 -0.129289)
(0.0105229 0.0674417 -0.113898)
(-0.0110967 0.0503302 -0.0634821)
(-0.0111991 0.0654119 -0.0607004)
(-0.00114004 0.0415218 -0.0693216)
(0.00997006 0.0536067 -0.0969416)
(3.17224e-05 0.0518797 -0.0867507)
(0.00307606 0.0586415 -0.0820287)
(-0.00660309 0.0536497 -0.0792111)
(-0.00470763 0.0711338 -0.0758048)
(-0.0106999 0.0535541 -0.0708759)
(-0.0059855 0.0320093 0.00549242)
(0.00213336 0.0331067 0.00716189)
(0.000200427 0.0285407 -0.00215388)
(-0.00434991 0.0329068 0.0106595)
(0.00736804 0.0404459 0.0163074)
(-0.000325765 0.0273191 0.00501139)
(0.00488299 0.0320358 0.00681106)
(-0.00230152 0.00394311 0.0835134)
(0.00045085 0.0241208 0.0733927)
(-0.00400511 0.00953901 0.0859268)
(0.00986583 0.019467 0.0733992)
(-0.00407919 0.0305041 0.0744132)
(-0.00786341 0.011413 0.0844799)
(0.005422 0.00259883 0.0865407)
(-0.00300332 0.00305462 0.0784385)
(0.0149863 0.0133624 0.0775659)
(0.0010714 0.00417054 0.0802108)
(-0.00311916 0.0288686 0.104277)
(0.0210489 0.0348922 0.108978)
(0.00735759 0.0258244 0.110418)
(-0.00704601 0.0227678 0.10382)
(0.00424443 0.0309263 0.0963562)
(-0.00544312 0.0321569 0.0997853)
(0.000220797 0.0188214 0.0842116)
(0.00634743 0.0238866 0.0852383)
(0.000455821 0.027638 0.0820478)
(-0.000465934 0.0357864 0.0463203)
(-0.00141094 0.0574921 0.0524056)
(-0.00995924 0.0607759 0.0495213)
(0.00043114 0.07962 0.0516826)
(0.00705503 0.0478687 0.0627718)
(-0.00749213 0.049098 0.0518468)
(0.00407556 0.0735704 0.0401075)
(-0.00834832 0.0581632 0.0306437)
(0.00104913 0.0499764 0.0219901)
(0.0150225 0.0577879 0.0425893)
(-0.00535177 0.0662645 0.030627)
(0.00833369 0.0716999 0.0388382)
(0.0254655 0.0818079 0.0575123)
(-0.00442281 0.0716947 0.0401462)