/*--------------------------------*- C++ -*----------------------------------*\
| =========                 |                                                 |
| \\      /  F ield         | OpenFOAM: The Open Source CFD Toolbox           |
|  \\    /   O peration     | Version:  v2012                                 |
|   \\  /    A nd           | Website:  www.openfoam.com                      |
|    \\/     M anipulation  |                                                 |
\*---------------------------------------------------------------------------*/
FoamFile
{
    version     2.0;
    format      ascii;
    class       surfaceScalarField;
    location    "0.3";
    object      alphaPhi0.water;
}
// * * * * * * * * * * * * * * * * * * * * * * * * * * * * * * * * * * * * * //

dimensions      [0 3 -1 0 0 0 0];
oriented        oriented;


internalField   nonuniform List<scalar> 
13152
(
1.02058e-06
2.03204e-05
-1.69733e-06
-1.96436e-05
1.87474e-05
-1.7086e-05
-6.40881e-07
-3.465e-06
4.25328e-05
-3.46453e-05
3.5431e-05
-2.48305e-06
2.12139e-05
-7.55028e-05
2.85346e-05
-2.44067e-05
6.05005e-05
-1.60922e-05
-2.95464e-05
-2.84458e-05
7.40843e-05
3.86832e-07
-1.67669e-05
2.87934e-07
-2.99233e-05
7.63715e-07
7.84241e-06
5.15516e-06
-2.97645e-05
7.80725e-06
3.23096e-07
-5.08525e-06
-1.55533e-05
-2.98534e-05
-8.65211e-06
-1.46197e-05
-5.1352e-06
2.8407e-05
-7.92486e-08
-8.66358e-06
9.07251e-08
-1.41434e-05
-5.55578e-07
5.67202e-06
-3.05675e-05
1.62319e-05
-2.93092e-05
2.9846e-05
2.93734e-05
-4.91356e-07
3.63996e-08
-1.52666e-05
-2.9918e-05
1.01079e-07
-7.49491e-05
3.33141e-07
1.59895e-05
3.02206e-05
-4.14722e-08
7.46172e-05
3.57726e-05
1.26601e-05
2.54197e-05
-7.38523e-05
3.85964e-07
-7.48186e-07
3.61348e-05
1.24051e-05
2.64811e-07
-1.87388e-05
7.36768e-05
7.78965e-05
2.91604e-05
-7.39358e-07
-2.93935e-05
9.72444e-07
-1.64145e-05
-2.68781e-05
7.2453e-05
1.68088e-07
-1.73219e-05
-8.08095e-06
8.01037e-06
2.3867e-07
5.30579e-06
-3.07087e-05
-4.96804e-06
-1.38997e-05
-2.90558e-05
-1.37968e-05
1.35792e-07
2.91713e-05
2.51335e-07
3.12419e-05
1.50051e-07
-6.69225e-06
-2.41597e-05
-1.24669e-05
2.05383e-06
4.14553e-05
-1.2196e-05
-3.94484e-06
-2.7854e-05
-1.62777e-05
4.64209e-05
-3.2682e-06
-2.95882e-05
3.83165e-06
-3.3865e-06
-1.26815e-05
2.10414e-06
-2.89291e-06
-7.63618e-06
-7.7179e-06
-1.44036e-05
-1.64611e-09
2.52441e-08
-1.84305e-08
-1.1384e-08
6.64467e-08
-4.71747e-08
-2.63378e-08
-2.11847e-07
-3.41344e-07
2.58756e-08
-1.16427e-08
-7.93857e-08
1.66093e-09
-6.6272e-10
-3.4445e-07
2.15377e-08
-7.9013e-07
-2.72077e-10
-4.29519e-11
3.9563e-11
1.54578e-10
3.28202e-10
-3.19099e-10
-8.70072e-10
-1.20733e-10
3.94611e-11
2.35698e-10
-1.78716e-09
2.93355e-10
-3.42058e-10
1.79632e-10
-4.58211e-10
-3.96815e-10
-4.16293e-09
-4.02369e-12
-1.5668e-11
-5.00728e-10
2.82323e-10
-1.41835e-11
-3.82768e-11
2.02275e-11
-8.06526e-12
-8.84387e-11
-1.6112e-10
1.59153e-11
6.4612e-11
-1.57356e-10
-9.02448e-10
-1.33756e-12
-2.07012e-11
-4.64667e-10
-6.29541e-09
-6.97736e-09
-1.20918e-09
1.351e-08
1.90153e-10
-4.18302e-09
-3.4988e-09
6.6883e-11
-2.86454e-09
8.79419e-09
-4.84501e-10
-1.19094e-08
-4.39031e-09
1.25759e-08
-6.5873e-09
2.70642e-09
-9.51402e-09
6.79202e-09
1.61029e-10
-4.23624e-09
-4.44818e-10
-3.02685e-09
-1.01969e-09
1.09729e-08
-8.66561e-10
-6.12535e-10
9.38307e-09
9.5306e-10
-1.44509e-08
1.07756e-08
-1.33413e-10
-2.87492e-09
1.27563e-08
-2.29202e-09
3.52082e-08
9.18434e-09
-1.79873e-08
-2.66121e-08
-5.12106e-09
4.50763e-08
4.5212e-09
3.81498e-08
-9.5274e-09
-9.72471e-09
-1.64349e-09
6.17937e-08
5.10886e-08
-9.45772e-08
-5.27997e-08
1.00074e-07
-2.42614e-08
-1.8543e-06
-3.30207e-06
-3.60979e-07
5.36494e-06
-8.57134e-07
1.07727e-06
-2.40294e-07
-2.15449e-06
-4.76131e-07
-8.75546e-07
1.13344e-06
1.0685e-06
7.73178e-08
-1.21351e-06
2.37868e-06
-4.32785e-06
3.30192e-06
8.69963e-06
1.43473e-06
-8.40436e-06
2.14676e-07
-1.11404e-05
-3.06198e-06
2.27082e-05
2.60855e-06
-1.29925e-05
-5.29227e-06
-2.34351e-05
2.54444e-05
-2.74406e-05
1.35072e-05
-2.85481e-05
9.69593e-06
-6.96111e-05
1.30622e-05
8.63488e-06
1.97002e-05
-3.98578e-05
-1.11103e-06
3.83199e-06
1.0734e-05
7.1733e-07
7.19651e-06
8.38028e-06
1.53764e-05
3.78353e-06
5.48577e-06
2.1973e-05
-1.2987e-95
9.52898e-12
5.47503e-13
-1.26183e-11
0
0
0
3.41455e-13
8.90291e-12
2.01658e-16
1.00385e-15
-1.36221e-15
7.09619e-17
1.20705e-16
-4.26185e-13
7.14293e-13
4.21098e-14
2.13811e-05
-3.1316e-07
-2.1284e-05
-5.32182e-08
-2.51377e-05
-2.77396e-05
7.44497e-05
-8.8574e-07
-2.41866e-05
-2.5549e-05
2.68447e-05
-2.00005e-06
2.29153e-05
-7.19283e-05
-2.57678e-06
1.77725e-06
-6.4564e-08
-8.19693e-60
-1.4409e-165
0
0
-9.236e-166
0
-1.94853e-64
0
0
8.18774e-43
4.20508e-44
-6.40885e-43
-1.53053e-37
1.60236e-37
5.88305e-44
0
0
1.09165e-12
2.18051e-13
-5.87917e-13
-6.39121e-13
3.49562e-13
-4.58924e-12
5.7049e-12
-8.17158e-13
1.0336e-12
-6.95146e-13
4.5602e-13
-1.90896e-12
1.18829e-12
-2.95399e-12
1.79652e-12
-4.78743e-12
1.12205e-12
-3.01732e-13
-2.32272e-13
-2.60056e-13
5.14772e-13
1.06561e-13
1.38063e-14
-1.52154e-12
-1.00347e-12
2.90598e-13
-2.2922e-12
7.54077e-13
4.52144e-13
1.33802e-12
-6.78139e-12
9.57046e-13
-1.38194e-12
1.05602e-12
-3.17693e-15
5.15174e-15
-5.47679e-14
2.55132e-14
1.38525e-14
-3.92666e-14
-1.09455e-14
-2.89541e-13
2.0128e-13
6.21411e-14
1.20165e-14
-1.90496e-13
6.45954e-14
-5.72725e-14
1.31169e-13
-5.5629e-13
3.3185e-14
2.67555e-13
1.06749e-13
-3.14854e-13
-2.74489e-14
-1.10678e-12
3.64888e-13
9.31585e-13
2.1106e-12
-3.7975e-12
2.11058e-13
-1.86117e-13
-3.13835e-13
-2.97552e-13
8.3567e-13
-1.21577e-11
2.06637e-12
1.18682e-11
-8.38383e-13
-1.72072e-11
-8.89335e-13
2.62696e-12
-1.85269e-12
1.20621e-13
1.45155e-13
-2.36429e-13
-2.80266e-14
4.37351e-14
-3.72309e-14
1.42571e-13
-1.47681e-13
3.52355e-13
4.76353e-15
6.2733e-13
3.93236e-14
-3.01884e-14
3.03943e-14
-6.28505e-14
5.55031e-13
2.5563e-12
-2.90533e-13
-2.28924e-13
-1.45857e-12
-5.77295e-14
2.72781e-12
1.196e-12
-1.53856e-12
3.24253e-12
3.6014e-12
1.47121e-13
-2.91911e-12
8.20485e-13
6.53732e-12
1.81066e-11
-7.21858e-12
-2.38247e-12
-7.10675e-13
2.66366e-11
-2.75986e-12
6.13857e-12
-4.58887e-12
2.75863e-12
1.82162e-11
1.73551e-11
-2.71748e-11
5.01371e-11
4.29128e-11
-7.02155e-11
3.35397e-11
1.08707e-10
2.92748e-12
1.06513e-11
6.95298e-12
2.94821e-11
2.77733e-11
9.83936e-11
-2.38799e-10
2.22208e-10
-1.11114e-10
3.38553e-10
-2.73029e-12
-9.35023e-11
-1.94014e-10
-3.23006e-11
-3.75678e-11
3.60834e-11
6.33519e-11
-5.75709e-11
-3.17371e-12
5.61788e-11
4.75515e-11
-1.21884e-10
1.52209e-11
-6.21167e-12
-1.62208e-11
-1.10483e-12
2.77255e-11
-2.60031e-11
6.12667e-11
-1.43361e-12
-1.01274e-11
3.97184e-13
1.62405e-11
-1.00538e-11
2.83003e-11
-1.23582e-11
-9.43102e-12
-6.84293e-12
2.19548e-11
-2.3024e-11
5.59789e-12
-8.3789e-11
1.32644e-10
4.15467e-11
-7.69603e-11
1.43104e-11
-7.01415e-14
1.72266e-14
4.42059e-13
-2.457e-13
2.46408e-13
1.104e-13
-3.48437e-13
2.78637e-13
4.17996e-14
-5.48338e-12
-5.54876e-13
-1.90837e-12
-2.41778e-12
2.92147e-12
-4.34991e-12
2.91536e-12
3.61508e-20
3.47498e-20
3.51157e-20
-1.00331e-19
-6.87876e-20
1.16485e-19
1.15122e-20
2.76138e-18
-2.38339e-18
-1.1845e-16
-1.44984e-18
1.27497e-16
-1.75678e-17
-9.4787e-17
1.11413e-18
-1.69984e-17
2.89669e-19
-2.17581e-12
-4.8989e-13
-2.46122e-12
6.21562e-12
2.01116e-11
7.17342e-12
-1.94952e-11
3.21545e-11
-1.61609e-12
1.28896e-11
-6.09172e-13
-2.36212e-11
2.04289e-11
-1.8222e-12
9.42466e-12
2.16144e-11
4.92537e-11
1.42456e-11
6.63458e-12
-1.01243e-11
-1.21335e-11
1.33756e-13
-9.13429e-13
6.30175e-12
9.37334e-12
2.28696e-11
7.49841e-12
-2.57048e-11
8.81328e-12
2.67775e-12
-6.00177e-11
5.41311e-11
-3.41599e-11
4.55679e-13
-2.2185e-13
-2.13887e-12
3.4397e-12
-4.46664e-13
8.83502e-13
3.11574e-12
9.60887e-13
-1.04318e-12
1.1828e-11
-2.09702e-12
-2.20588e-11
1.90111e-13
-3.77161e-14
6.51709e-12
-2.73061e-12
8.02526e-14
1.26382e-13
6.92543e-14
-2.25044e-13
-1.72152e-13
2.45543e-13
8.92337e-14
1.30374e-12
-1.07891e-12
-1.1049e-13
-1.42164e-13
5.63068e-13
-9.06945e-14
1.34008e-13
-1.33203e-13
1.44337e-12
-1.29892e-13
-3.11111e-14
-9.5181e-15
1.44614e-14
3.19738e-14
-3.20113e-16
1.22983e-13
1.15168e-14
-2.89901e-14
2.95784e-14
-3.85727e-14
5.15959e-14
-1.11966e-13
2.14407e-13
3.87468e-15
-5.75296e-15
-3.17627e-14
-4.00238e-14
-3.7509e-14
-1.9583e-16
8.73846e-14
5.5373e-15
-4.41085e-14
-1.11685e-13
2.0815e-14
3.19813e-14
5.08012e-14
4.38353e-14
3.23747e-13
-9.06436e-13
8.08112e-15
-4.15793e-14
-7.23697e-14
6.67988e-14
2.89161e-14
-4.18142e-14
1.42106e-13
3.30815e-07
-1.55855e-08
-1.98225e-07
6.82529e-08
-3.56887e-07
-9.30712e-08
1.0737e-06
-9.19971e-08
-8.51293e-08
6.03555e-07
4.41627e-08
-6.92895e-07
8.29237e-07
2.3872e-07
-2.70223e-07
1.2717e-06
-2.16861e-07
-5.992e-06
3.5969e-07
5.04578e-06
6.38321e-07
6.90093e-06
8.21116e-07
-1.35722e-05
2.50405e-06
4.76012e-06
-3.42602e-06
6.70481e-06
1.77987e-06
6.61486e-06
-9.14976e-06
2.24455e-06
-1.47781e-05
1.50625e-05
-9.34311e-06
1.63722e-05
3.77419e-06
-1.18389e-05
1.12323e-06
-2.05455e-06
2.88404e-06
1.58855e-06
-3.28671e-06
5.43596e-06
-1.62814e-07
-7.31053e-06
1.01114e-06
4.59153e-06
3.20786e-06
1.28151e-06
-6.35587e-06
9.88292e-06
-5.46127e-06
1.14393e-05
-1.42973e-05
1.69576e-05
-2.59075e-05
-2.29843e-06
-2.68254e-06
3.25586e-05
6.06568e-06
-6.70473e-06
-2.46934e-05
-9.77852e-07
2.73328e-06
1.15221e-06
2.7597e-07
-5.6812e-06
1.40411e-06
1.50035e-06
9.30494e-06
-1.98545e-06
-2.05264e-05
-3.89184e-06
9.54599e-06
5.97855e-07
-2.59917e-06
-2.03545e-06
6.4081e-06
4.74125e-06
-1.84621e-05
-5.55322e-06
-7.93933e-06
-4.89904e-08
2.31745e-06
-2.20952e-06
-1.33014e-06
9.66055e-07
-1.41809e-06
-2.16003e-07
-3.16449e-06
5.87318e-06
4.54537e-07
-1.27767e-08
-2.28178e-06
5.43314e-07
-4.37432e-07
-4.85733e-07
-2.54668e-06
-3.36501e-06
-3.05492e-08
-2.05559e-08
2.09066e-08
2.16648e-08
3.55064e-08
-1.27116e-08
-5.88603e-08
3.39181e-08
-3.74269e-08
6.11249e-08
2.15421e-08
-8.29568e-08
-3.66948e-09
8.12589e-08
-5.53058e-08
7.50453e-08
-7.70137e-08
3.52048e-06
9.31916e-08
-2.558e-06
-3.24714e-07
-5.62551e-07
-6.03499e-07
5.0295e-06
-4.59698e-07
8.34017e-09
4.03634e-07
-3.43311e-07
-2.60642e-06
-4.2599e-07
2.82978e-07
7.73645e-07
2.66636e-07
-1.48806e-06
8.85649e-07
5.78127e-09
-1.28011e-07
6.1896e-07
-2.00888e-07
-2.9584e-09
1.00699e-09
-1.64056e-09
2.52698e-09
5.95502e-09
-4.01491e-10
-8.58977e-09
3.79597e-09
8.33526e-09
9.84134e-09
4.0538e-10
-1.86359e-08
4.62787e-10
9.91432e-09
9.54928e-09
-1.01134e-08
1.66845e-08
-1.89049e-06
-5.54473e-06
2.52229e-06
5.85376e-06
-5.00837e-06
6.52019e-06
-1.42711e-06
7.08889e-07
-9.85256e-06
-1.24339e-05
-3.10405e-06
2.34365e-05
-5.28779e-06
-7.58282e-06
4.72913e-06
-8.16999e-06
5.25409e-06
9.80643e-06
1.02577e-05
1.97134e-05
-4.02385e-05
-3.87929e-06
5.43657e-06
8.20881e-06
1.3405e-05
5.29886e-06
-2.26473e-05
2.30808e-05
-2.41036e-05
4.08021e-05
-1.11506e-05
-3.02259e-05
1.91687e-05
-1.71193e-05
-1.20878e-05
-3.70428e-05
2.21182e-05
-4.79762e-05
-6.8002e-06
8.25745e-06
2.00964e-05
-2.18516e-05
1.18225e-05
1.55712e-05
-3.45503e-05
1.06508e-05
7.80814e-06
-1.34926e-06
7.37628e-06
1.3966e-05
7.16601e-06
7.06733e-06
-1.44961e-06
-1.25418e-05
2.52723e-05
-1.51069e-05
2.06198e-05
7.44882e-07
-8.92173e-06
-3.97713e-06
3.77389e-06
-1.16179e-06
-3.68695e-06
1.4222e-06
-3.59715e-06
-1.60533e-06
8.91209e-06
9.47178e-07
-4.23642e-06
-4.98011e-06
-1.04783e-05
1.38073e-05
-1.74676e-05
8.49898e-06
-1.59147e-05
6.21042e-06
-3.80158e-05
-4.35436e-06
-6.51165e-06
1.2727e-05
-2.44177e-06
-5.84408e-06
4.0536e-06
-8.00904e-06
1.19161e-05
-3.23335e-05
-2.57022e-06
-2.14446e-05
-6.92292e-06
1.72214e-05
8.07864e-06
-3.01618e-05
5.5115e-06
1.93673e-05
-3.89359e-06
-1.21824e-05
-2.11042e-05
3.90671e-05
-1.16176e-05
-3.71204e-05
4.6292e-05
-1.51071e-05
-6.74785e-06
1.31506e-05
2.13637e-05
-4.86489e-05
2.75793e-05
-2.58239e-05
3.42703e-05
-4.9047e-05
3.7934e-05
2.59379e-07
-2.52105e-06
-2.65336e-06
5.52501e-06
-2.92476e-06
-2.66401e-06
6.40093e-06
-1.80581e-06
-2.13495e-06
2.46926e-06
2.11004e-06
-5.85235e-06
4.14164e-06
-2.67946e-06
1.21871e-06
-1.63775e-06
2.90903e-06
-7.85414e-10
8.25143e-11
-4.1869e-10
1.11691e-09
6.59615e-10
-4.26474e-10
-1.31323e-09
-7.85357e-10
9.74981e-10
1.52635e-11
1.73941e-09
-2.60382e-09
1.00975e-09
-3.59385e-09
2.3939e-11
5.76017e-10
9.98494e-10
4.98804e-10
2.97198e-10
-5.46593e-11
-4.49823e-10
-3.05133e-10
-1.75258e-08
1.16378e-09
1.27846e-08
-1.70295e-09
2.2382e-08
3.92098e-08
-1.00393e-07
2.51356e-09
1.72927e-08
4.30693e-09
-1.91507e-08
1.28431e-08
-1.74747e-08
4.08497e-08
-3.81417e-09
1.19065e-08
-7.11502e-09
2.91417e-08
3.37955e-08
2.02226e-08
-8.42809e-08
-3.13978e-09
5.60304e-10
3.02023e-08
3.72133e-08
-7.54972e-09
6.59122e-08
-6.0168e-08
-3.63844e-10
-1.58952e-08
1.16847e-07
1.67933e-08
-1.686e-08
-5.98021e-08
-1.35461e-08
1.4719e-08
-1.22579e-08
3.56479e-08
-9.05703e-09
9.0852e-07
7.75278e-08
-1.31073e-06
-3.7421e-08
-1.35849e-06
-5.80066e-07
2.52691e-06
-2.31334e-06
4.94677e-07
9.96492e-07
4.14147e-06
-7.14228e-06
7.86435e-07
-2.25323e-10
9.15098e-08
-4.93429e-11
1.34564e-06
1.26028e-06
-3.78048e-05
-1.46031e-06
3.80055e-05
-3.91941e-05
3.69527e-05
3.50208e-06
3.5614e-05
-0.000112612
3.99863e-05
-3.66169e-05
-4.95151e-06
-3.67535e-05
0.000114663
-2.98848e-06
3.16411e-06
-3.99108e-06
1.96343e-13
2.76176e-13
-4.44437e-13
-1.05046e-12
6.58245e-14
-5.65149e-13
2.38123e-13
-4.62892e-13
3.9765e-13
3.7012e-13
5.6995e-13
-2.86975e-12
2.51979e-12
-8.33842e-12
3.90235e-14
-6.35082e-13
9.53045e-13
6.9232e-12
2.70109e-12
-3.68247e-12
-1.37144e-11
-2.26252e-12
-1.69051e-13
3.0978e-12
-1.10493e-11
3.16947e-12
-1.58297e-11
-1.63182e-12
9.81625e-12
8.27714e-12
-4.67507e-11
2.80234e-11
-7.48747e-11
1.54097e-11
1.20455e-10
1.33697e-10
-5.21342e-10
-9.7124e-11
3.01565e-11
-2.061e-10
1.19395e-10
-2.03343e-10
2.10295e-10
2.94995e-11
8.86884e-10
-2.87514e-09
1.26465e-10
-4.62408e-10
8.12168e-11
-2.72556e-10
3.64451e-10
7.17695e-08
-2.09241e-08
-9.04509e-08
1.80122e-08
-1.867e-07
-4.47364e-08
2.42542e-07
-4.25788e-08
-2.55433e-07
3.92694e-08
-5.89194e-08
-8.68726e-08
-9.2765e-08
6.12581e-08
-6.60814e-07
3.37318e-07
-4.88641e-08
6.38674e-08
-1.10201e-06
-8.34933e-08
2.67146e-07
-1.16991e-07
7.59162e-07
-1.03328e-07
-7.40165e-07
1.41146e-08
-9.3606e-07
-5.32904e-07
1.8858e-06
-1.57372e-07
-2.06993e-06
-2.62172e-06
2.89249e-06
-4.27327e-07
4.62855e-07
-5.46142e-06
-1.36157e-06
3.66987e-06
-1.67383e-06
-1.79168e-06
-6.60186e-09
1.16286e-08
1.26854e-06
3.76137e-06
3.31213e-06
-8.85985e-06
3.56986e-06
1.85287e-07
6.74455e-07
-7.90501e-07
1.60562e-08
-5.72726e-07
2.31742e-06
7.16226e-07
1.61185e-06
3.71122e-06
1.50877e-07
2.14631e-06
-1.53881e-07
-3.17132e-06
2.50783e-06
-3.1021e-06
2.42865e-07
-3.29275e-06
7.09404e-06
-3.03935e-06
3.07103e-06
3.35838e-06
-9.56863e-06
-2.77761e-07
5.34311e-07
-4.99198e-07
-1.58867e-08
-8.54253e-07
-3.03687e-09
8.77366e-07
-1.47734e-06
1.50712e-06
-4.13689e-08
1.42463e-06
-3.75108e-06
3.95602e-07
-3.99154e-07
1.38905e-09
-2.71894e-07
1.54615e-06
-2.57558e-07
1.49397e-06
7.68987e-07
1.25392e-07
4.43714e-07
2.59386e-07
-9.65409e-07
9.23196e-09
3.33191e-07
1.02723e-08
9.11114e-07
3.78235e-08
2.38263e-07
1.2152e-06
-1.21819e-06
1.20595e-06
-6.60265e-07
-1.28831e-06
-4.86419e-10
-7.32682e-07
-1.43519e-06
3.71755e-06
4.11917e-08
-3.48227e-08
-1.21736e-08
-1.4105e-06
5.3079e-08
-7.53773e-07
-6.58344e-06
-9.18788e-08
-1.02688e-07
-2.61121e-08
2.17247e-07
-1.71196e-08
-8.39173e-08
3.68794e-08
-1.77887e-08
-5.81713e-08
1.27878e-07
-1.11731e-07
-7.43906e-08
-2.24874e-07
3.30057e-07
-9.46706e-08
-1.76784e-08
-1.69652e-07
1.53452e-08
9.52067e-08
-6.78375e-08
-1.97545e-08
1.97149e-08
-2.73698e-08
2.85721e-08
-7.02064e-08
1.94517e-07
1.03008e-07
1.07956e-07
-2.51367e-07
1.66329e-07
-2.03352e-08
-4.36126e-08
1.29596e-07
4.79041e-08
-1.35746e-07
1.41111e-07
4.84741e-08
-4.80675e-09
3.36283e-09
3.0711e-09
-4.8697e-10
2.15207e-08
3.12216e-09
-2.78508e-08
7.15909e-09
2.04669e-08
-1.15057e-09
7.98567e-10
4.59557e-09
-8.63848e-10
-3.02728e-10
-8.90505e-10
-7.39957e-10
2.76518e-09
-1.93084e-09
1.62243e-10
4.63822e-09
-3.56452e-09
1.19709e-08
-5.15138e-09
-2.1823e-09
-1.77887e-09
-6.02479e-12
-3.92977e-10
-9.3215e-10
-1.35232e-09
-1.27861e-09
4.50192e-11
-1.81072e-09
-2.13798e-09
-1.35808e-11
4.19646e-10
2.24146e-09
-7.378e-09
7.16316e-11
-1.93265e-11
8.31658e-11
-2.61958e-11
-6.20892e-11
1.98539e-10
-4.59576e-11
-1.93259e-10
-7.05098e-11
-2.94518e-11
-5.23485e-11
2.47784e-11
-2.63435e-11
4.93815e-11
-1.76628e-10
1.10808e-10
-1.77294e-10
4.44961e-11
-4.37487e-13
-1.46584e-12
1.40757e-13
5.68652e-13
-1.61223e-12
2.73983e-12
-4.72188e-12
9.32611e-13
-7.40936e-12
1.24178e-13
-2.43187e-13
7.43904e-14
-2.53245e-13
5.43759e-13
6.98525e-14
-2.70546e-13
-1.5153e-13
-4.61319e-13
2.21985e-14
-2.45349e-13
1.99526e-12
3.89218e-14
-3.67999e-15
1.7681e-14
5.86809e-14
-1.74043e-13
8.95273e-15
1.35915e-14
-6.24707e-14
1.58632e-15
5.41735e-15
1.29037e-15
-8.80184e-15
3.09388e-15
-3.91067e-14
2.13551e-14
-2.26851e-14
9.84006e-15
-6.11346e-14
8.89373e-15
-9.3123e-16
-2.53765e-15
2.68797e-15
-4.469e-15
-5.70189e-16
1.5931e-14
-3.13426e-15
4.76289e-15
2.57984e-16
-6.46138e-15
5.80538e-15
5.16851e-15
-5.19963e-15
1.1865e-14
-7.82301e-15
3.8219e-15
2.90902e-15
4.47447e-15
-2.26672e-14
-2.34333e-15
4.9724e-16
1.07131e-15
8.95119e-15
-2.8694e-14
1.67011e-15
-5.17637e-15
4.436e-15
-2.44375e-15
4.69016e-15
-4.099e-15
6.45803e-15
-6.91151e-15
-8.42885e-14
1.52682e-13
3.79811e-14
-6.09916e-15
5.42579e-13
-4.3915e-13
6.41309e-13
-1.33858e-14
4.30808e-14
-2.56703e-14
2.13737e-12
1.67171e-12
1.56231e-12
-5.14802e-12
4.62025e-13
5.08872e-12
-2.74884e-12
2.70384e-12
1.03421e-12
-2.9927e-12
-1.51293e-12
8.25707e-12
-7.5095e-13
4.12789e-13
-4.67231e-12
9.39938e-12
-3.17525e-12
6.68497e-12
9.40936e-12
7.74841e-12
-2.04184e-11
5.56459e-12
1.04734e-11
-1.28576e-11
3.9657e-12
2.04463e-11
2.3558e-11
-4.24709e-12
-5.79504e-12
-6.36295e-12
6.33791e-11
-7.74902e-12
1.61206e-11
5.12351e-14
6.04494e-10
2.8389e-11
-3.21536e-10
-2.71551e-10
-3.04712e-10
-1.06516e-10
1.04384e-09
-2.05291e-10
-1.50483e-11
2.76522e-10
4.9084e-11
-5.0941e-10
4.29366e-10
-1.20566e-12
-6.3414e-10
1.2608e-09
-6.99097e-10
-4.52081e-09
-1.3579e-08
1.41174e-09
1.77847e-08
-4.7866e-09
3.63693e-09
-1.13013e-09
-9.52293e-10
-1.58295e-08
-3.10812e-09
7.43534e-10
6.57699e-09
-3.65845e-10
-3.84152e-09
2.44603e-09
-3.73305e-09
4.8284e-09
-8.89758e-10
9.11565e-09
1.21128e-08
-2.26099e-08
1.47688e-09
-7.11426e-10
-1.58986e-09
3.72467e-09
6.44925e-09
-5.26655e-08
7.33098e-09
5.85201e-08
-4.34759e-09
-6.57974e-08
-2.07842e-09
9.33448e-12
9.56637e-09
4.47462e-11
-6.07828e-09
5.58539e-10
-1.17213e-09
4.2615e-09
5.71995e-08
-2.7863e-08
-4.33826e-08
3.69224e-08
-4.84763e-08
-6.28775e-08
1.68788e-07
-3.10449e-08
-4.51704e-08
-4.03711e-08
-1.29565e-07
1.37358e-07
-4.06383e-08
-4.22256e-08
-4.2512e-08
-1.04029e-07
-1.26374e-07
1.36108e-07
1.07927e-07
6.57665e-09
-2.66603e-07
-5.0056e-08
1.84946e-08
1.58648e-07
-3.61369e-08
7.15725e-08
1.23519e-07
-3.31528e-08
-1.30544e-07
9.92686e-09
1.70774e-07
-1.28416e-07
1.47358e-07
-1.63715e-07
6.69631e-08
-1.70282e-07
-4.24811e-07
4.92859e-07
-3.30734e-07
-3.40976e-07
6.7274e-07
-4.53755e-07
-1.80386e-07
-1.97473e-07
-7.28619e-07
4.74353e-07
-3.1366e-07
-2.37178e-07
5.77413e-08
-1.33483e-06
-4.71575e-07
2.61823e-06
9.16582e-07
1.94445e-07
-4.57075e-06
-4.45665e-07
3.84896e-07
2.58886e-06
3.84892e-07
-2.34974e-07
-8.402e-07
-4.92794e-08
1.12054e-06
-3.56823e-07
-7.7871e-07
8.29499e-07
-1.12494e-06
1.00672e-06
5.55426e-06
-1.22007e-07
-4.59917e-06
-1.53907e-06
-5.0914e-06
-4.61284e-06
1.1656e-05
-1.64938e-05
-1.14381e-06
1.27954e-06
-1.8656e-05
-1.34807e-06
-3.74649e-06
-3.70583e-07
5.12142e-06
-4.08792e-05
-7.18953e-06
-6.26986e-06
5.90455e-06
2.5908e-05
-2.55424e-05
7.26855e-06
1.52378e-05
-2.8776e-05
-9.49117e-08
5.62739e-06
3.68034e-06
-1.80252e-06
-2.06098e-06
-2.66324e-07
8.99126e-06
2.24475e-05
8.76259e-06
-2.19238e-05
7.76466e-06
3.26591e-05
6.48428e-06
-9.01407e-07
1.1937e-05
-1.10741e-06
-1.77215e-06
-8.89388e-07
3.76341e-06
-7.61113e-07
-2.30494e-06
1.15335e-07
-1.83011e-06
6.41364e-07
1.87352e-07
-5.42089e-07
3.43995e-07
-1.56922e-06
3.81187e-07
2.95927e-07
-4.86852e-07
2.15941e-06
-5.73583e-07
5.89113e-07
-2.66474e-06
1.791e-06
-2.32805e-06
6.51548e-07
2.17713e-06
-1.96478e-06
8.04202e-07
2.2389e-06
-7.27622e-06
3.37059e-07
1.08684e-06
1.80721e-06
-1.34356e-06
2.62341e-07
-3.04561e-07
2.97869e-06
-1.2823e-06
1.61463e-06
-7.04673e-08
1.97013e-06
-1.57914e-06
-2.79622e-06
3.28246e-06
-2.06184e-06
-6.55919e-08
-4.22639e-07
2.33924e-06
-1.68396e-07
2.23225e-07
4.3334e-07
5.08273e-07
-1.2487e-06
3.62831e-07
2.28707e-07
5.75845e-07
-2.21428e-06
2.05572e-06
-1.68021e-06
4.27687e-06
-2.82305e-06
1.29494e-06
6.01723e-06
-5.32859e-06
3.301e-06
3.25048e-06
1.0925e-07
3.43832e-06
3.89628e-06
-1.58488e-06
-3.35286e-06
8.51471e-06
-1.33548e-06
1.01335e-06
1.04891e-06
1.77327e-07
-2.30371e-06
-1.47024e-07
1.42883e-06
-5.69888e-07
-4.40577e-06
1.57532e-06
-1.7953e-05
9.14563e-06
7.91203e-06
1.07228e-05
-2.5815e-05
6.90639e-06
2.15549e-05
6.85053e-06
9.76484e-06
1.79955e-05
1.81374e-05
1.139e-05
2.82575e-05
6.88707e-06
1.82882e-05
2.62476e-05
1.05872e-06
2.17613e-06
5.19201e-06
-1.76262e-06
-2.6784e-05
-1.00956e-05
-2.76733e-05
-2.407e-06
-1.62204e-06
4.87574e-06
-9.08092e-06
-6.90919e-06
-1.29555e-05
-2.85172e-05
-6.65474e-06
-1.84455e-05
1.80566e-05
-1.2347e-05
-7.88743e-06
1.3221e-05
-1.99295e-05
-2.23966e-05
-2.70532e-05
2.65174e-06
-4.05371e-05
-2.46475e-05
-2.2752e-05
-5.62654e-06
1.94287e-05
1.00223e-05
-2.55466e-05
-6.54355e-06
8.09356e-06
2.38328e-05
-5.48114e-06
6.68733e-06
1.39184e-05
7.54092e-06
1.09378e-05
-2.35536e-05
5.91895e-06
7.13899e-06
-1.78317e-06
-1.10562e-05
1.87091e-05
-2.09086e-05
1.38857e-05
-2.38593e-05
1.67442e-05
3.5253e-06
7.7853e-06
1.29492e-05
9.1439e-06
1.58431e-05
-1.59015e-06
-3.91747e-05
9.84537e-06
-7.78681e-06
-2.00601e-05
3.42077e-05
1.00409e-07
-9.71175e-06
-1.09541e-05
1.15288e-05
6.65269e-07
3.54675e-06
-2.45576e-05
-3.05685e-05
1.89027e-05
-6.62507e-05
-6.50676e-06
-1.31676e-05
3.22347e-06
1.6537e-05
3.41688e-06
-1.00636e-05
2.16947e-07
-1.60716e-05
9.16374e-06
-9.21064e-06
-1.02549e-05
2.27799e-05
-2.98741e-05
1.07345e-05
3.3014e-05
2.18098e-06
-4.63998e-05
3.09597e-05
2.6648e-05
4.78484e-05
-4.70698e-05
6.33989e-05
-9.17904e-06
-1.59129e-05
2.04184e-06
6.30687e-06
9.10302e-06
-1.69729e-06
-9.36403e-06
1.2073e-06
-1.78002e-05
-8.17903e-07
2.67743e-05
-2.1916e-06
-2.1888e-05
1.10142e-05
-3.74929e-05
1.718e-05
-2.306e-05
3.24385e-05
-1.77309e-05
1.8119e-05
-2.52751e-06
1.78784e-06
-4.1283e-05
3.25913e-05
-6.82265e-05
2.77414e-05
-6.66461e-06
-6.81294e-06
-1.96299e-06
1.31323e-05
-6.05642e-07
-5.95815e-06
9.58038e-08
-9.84615e-06
7.01493e-06
-3.23698e-05
1.18842e-05
1.59297e-05
2.45526e-05
-7.65762e-05
-7.39851e-05
-1.10958e-05
-1.79951e-05
1.40326e-06
4.53377e-06
7.84702e-06
-4.27165e-08
-8.2074e-06
3.44613e-07
-1.75001e-05
-5.38152e-06
3.08563e-05
1.37615e-07
-1.71342e-05
5.86991e-06
-2.91729e-05
1.50162e-05
-3.23284e-05
3.29281e-05
-3.25317e-05
7.16101e-07
-7.82711e-05
-3.36945e-05
-1.18004e-05
-2.83856e-05
1.21902e-06
-4.01487e-05
5.32922e-06
-1.30252e-05
2.33378e-05
-7.75564e-05
4.03853e-05
-8.5131e-05
-5.23901e-06
5.56935e-06
-5.91803e-06
4.29196e-06
5.1208e-06
6.73579e-07
-9.87333e-06
1.8369e-06
-2.9155e-06
3.27542e-06
5.43955e-06
2.02775e-06
8.80126e-06
-8.20089e-06
-1.86847e-06
1.28376e-05
-7.09478e-06
1.11121e-05
-1.43469e-05
-1.6972e-06
-4.48376e-06
-1.96179e-06
9.46057e-06
-3.12722e-07
-1.5418e-06
2.36936e-07
-1.17993e-06
-1.40087e-07
3.62336e-06
5.57218e-07
-5.32214e-06
6.17492e-06
-9.06093e-08
2.39142e-06
-3.3596e-06
7.07546e-06
1.69232e-08
1.65952e-09
-1.18631e-08
-1.48181e-08
-3.05724e-09
-1.86048e-09
1.77984e-08
-5.64564e-10
-7.52612e-11
1.6777e-08
-2.43824e-11
-3.04033e-08
-1.98733e-09
1.54041e-08
2.33197e-09
-3.29748e-09
4.24395e-11
1.30201e-08
1.74258e-08
1.8702e-08
-5.01142e-08
3.50659e-09
-1.07679e-09
8.41842e-09
1.09199e-08
5.06528e-09
2.23506e-08
-2.62667e-08
1.57069e-09
-3.80946e-09
3.21747e-08
-1.52732e-08
2.07521e-08
-2.49314e-08
-1.80547e-08
-1.59154e-08
-9.04348e-09
4.73571e-08
4.25799e-09
-7.8608e-09
-5.33479e-09
5.02497e-09
-2.47214e-09
-4.47693e-09
-4.29622e-09
3.05873e-09
-9.85717e-09
-9.12534e-10
1.60557e-10
-2.00518e-09
-2.66148e-09
-1.00054e-09
3.43826e-10
-1.13229e-09
9.8302e-10
1.62064e-09
-3.69329e-10
-2.01402e-10
-1.02273e-09
2.21496e-09
1.09155e-10
4.80994e-10
-9.54973e-10
1.0297e-09
-1.31676e-09
6.43231e-12
2.57103e-10
1.73208e-10
3.84752e-10
6.28924e-10
-4.38639e-11
-2.68005e-10
-9.63302e-10
-8.42287e-10
-7.72775e-10
5.54123e-10
1.57479e-09
2.41175e-10
-5.76067e-10
-1.54286e-09
-6.19942e-11
6.21231e-10
1.01951e-09
-2.55199e-10
3.90457e-10
1.08997e-09
3.88869e-10
-1.75543e-10
-7.0355e-10
-3.46594e-11
7.68439e-10
8.6702e-10
-1.60618e-09
9.03757e-10
3.45267e-08
-9.05554e-10
-3.61211e-08
4.77173e-10
-8.27505e-08
-8.09463e-08
1.89235e-07
-3.08168e-08
-5.76607e-09
-1.04611e-08
-3.33328e-08
4.27025e-09
-7.53172e-08
-1.52635e-08
5.15507e-08
-1.62072e-07
-2.87064e-08
-4.07547e-13
-1.38586e-11
5.47824e-12
6.95324e-12
-3.91567e-12
1.89405e-12
3.59806e-14
3.96419e-12
-2.54255e-11
-1.12477e-12
-5.46184e-13
2.78655e-12
-1.04612e-12
-1.31025e-13
2.65366e-12
7.30748e-12
-1.41832e-11
7.72157e-12
2.89493e-11
-3.00431e-11
3.55333e-11
9.35864e-11
-1.49416e-10
9.70617e-12
2.1036e-11
2.39457e-11
2.90032e-11
-2.63283e-11
3.52048e-11
8.67571e-11
-3.77659e-13
3.99859e-11
4.23911e-11
2.47019e-13
-2.95986e-13
2.73995e-12
-3.75812e-13
1.33361e-12
-4.74862e-13
-1.33276e-13
3.15546e-13
-8.5994e-14
7.47989e-10
2.07615e-10
-2.7359e-09
-3.61258e-11
-5.27706e-10
-5.55327e-10
9.04254e-10
-2.70139e-09
6.02003e-10
1.83909e-09
1.20947e-09
-9.0482e-09
9.42185e-10
-4.76924e-10
-1.79673e-09
7.40762e-10
-6.89206e-09
-7.44237e-08
-5.28912e-08
-5.68957e-08
1.43709e-07
1.57542e-08
-2.72085e-08
-1.19908e-07
-1.06908e-07
2.82304e-08
-2.91098e-07
3.38684e-07
-2.50653e-07
5.88137e-08
-5.05634e-07
2.40039e-08
-1.30337e-07
2.40171e-07
-1.14263e-06
-1.83819e-08
1.50592e-06
1.13669e-08
1.38201e-06
2.24774e-06
-4.75233e-06
1.91611e-06
-1.04072e-08
-3.16022e-08
2.18114e-06
1.01942e-07
1.62686e-06
-3.69153e-08
-2.06891e-06
5.48744e-06
1.07355e-07
-9.36383e-07
1.04228e-09
-4.38676e-08
1.11767e-06
2.28894e-06
1.89509e-06
-4.95837e-06
2.63049e-06
4.64623e-08
5.91111e-07
-5.93008e-07
-1.15003e-08
-4.04285e-07
2.1534e-06
4.13595e-07
9.29318e-07
2.76925e-06
2.71282e-08
1.88925e-06
-1.1661e-06
-3.37782e-09
1.40056e-06
-1.13438e-06
7.13103e-08
-1.8985e-06
5.50791e-06
1.10895e-06
1.11918e-06
-3.40678e-06
1.51638e-06
-4.08293e-08
1.70825e-08
-9.42331e-08
-9.1569e-07
-5.07869e-06
-3.40691e-06
9.67271e-06
1.91564e-08
3.50634e-08
-7.76565e-07
-2.61283e-06
7.92566e-08
-1.7086e-06
2.79658e-06
-6.28901e-09
8.14741e-07
-3.19978e-06
2.12527e-06
-3.82747e-06
3.54619e-06
1.67955e-06
2.39832e-07
2.42399e-06
9.35191e-07
-6.41258e-06
3.49593e-06
2.84184e-09
-4.64338e-06
9.83749e-06
-2.79368e-06
9.50238e-08
3.72887e-06
6.37557e-08
6.9753e-08
-4.1621e-06
-2.17803e-06
-2.95345e-06
9.85833e-08
-2.21026e-06
-5.34083e-06
5.09571e-06
3.46506e-07
2.26857e-06
-9.81684e-06
-3.03606e-06
1.52879e-07
7.78097e-06
9.84117e-06
-7.96421e-08
3.29187e-06
1.10179e-06
7.29067e-09
-3.38324e-08
6.98111e-08
-9.6996e-08
-1.46347e-08
1.25778e-08
1.43935e-09
1.083e-08
-7.45956e-08
-7.52451e-09
-4.54469e-08
4.39228e-08
-1.16755e-08
1.64529e-09
-1.25719e-08
4.22014e-09
-2.84033e-08
-6.3486e-09
-5.47074e-09
-8.20484e-09
-5.89658e-10
-4.13801e-09
-6.6043e-10
-8.98338e-10
-1.01852e-08
-1.16913e-08
1.25092e-08
-5.44169e-10
3.73861e-09
-2.40691e-08
1.1145e-09
-5.65055e-10
9.4373e-09
-7.43978e-11
3.24086e-10
3.29371e-11
-1.97312e-10
5.81695e-10
-5.81905e-10
1.34066e-10
-1.91528e-10
1.20866e-09
-1.87621e-10
2.05171e-10
3.10376e-11
6.46103e-10
-9.72159e-10
-2.34721e-11
1.70777e-10
1.85994e-11
-6.403e-11
-1.07437e-10
-2.83471e-10
-7.14453e-10
1.01037e-11
-2.64242e-11
3.90209e-11
-4.28001e-11
-1.89859e-11
1.33773e-11
2.28257e-12
1.53735e-11
-7.59227e-11
-7.83881e-12
-3.00062e-11
3.77345e-11
-1.29887e-11
3.14911e-12
-1.22903e-11
8.12466e-12
-1.93153e-11
-5.54191e-12
4.36369e-12
-6.79881e-12
9.15592e-13
2.85607e-11
-1.41539e-11
-2.42555e-12
-5.05592e-12
4.59925e-12
-3.32476e-11
-4.12604e-12
6.57997e-13
-6.27905e-12
1.90599e-13
1.56329e-13
-1.03752e-14
-4.51113e-13
-3.32908e-13
-1.41811e-14
-1.5356e-14
3.56099e-14
-1.60975e-15
-3.60842e-14
3.07982e-15
-2.03184e-14
-1.007e-13
-5.73661e-16
6.12573e-15
-2.04314e-15
-3.21343e-15
7.72048e-15
-2.58047e-15
-6.15039e-15
-1.3698e-14
-2.08826e-14
-2.00101e-15
6.32025e-16
1.91712e-17
1.67727e-15
-6.85331e-15
1.32522e-14
-2.24835e-14
9.55315e-15
-4.40826e-13
-1.10045e-12
-8.69913e-14
1.84594e-12
3.79889e-14
-9.89368e-14
-4.1369e-14
-9.60001e-14
1.30406e-14
-1.46179e-13
-8.88294e-13
1.00635e-12
-1.53349e-13
-6.81233e-14
3.02336e-13
-4.58654e-13
-2.85524e-13
-1.52657e-14
4.45914e-16
2.18079e-14
-1.02846e-15
9.38071e-15
2.32662e-14
-3.9335e-14
5.5897e-16
1.43321e-14
1.4297e-13
-7.08216e-14
8.8121e-14
-3.09181e-14
2.64766e-13
6.33018e-15
2.11911e-14
-9.45593e-16
2.13862e-14
1.23901e-14
9.27439e-14
-1.30701e-13
9.8154e-14
-1.97369e-14
-5.37396e-14
1.99394e-14
7.47369e-14
-2.17569e-14
2.42381e-14
-3.74124e-15
2.3873e-15
-5.69691e-14
-1.19681e-14
-1.06276e-14
7.00872e-14
-5.96131e-15
7.13214e-15
-3.64851e-15
4.72501e-14
-1.1039e-11
-2.35954e-12
3.53595e-12
-3.31847e-12
6.97661e-12
-1.9326e-11
-5.01591e-12
-4.73504e-12
-5.95622e-11
8.55127e-12
2.58539e-11
-9.57604e-11
-3.75745e-11
-1.87787e-11
1.50054e-10
-1.36283e-10
7.56157e-11
6.60883e-11
-5.98766e-11
1.44355e-10
2.89369e-10
-3.30794e-10
2.23818e-10
2.79461e-10
2.94101e-11
-5.7296e-11
-3.47188e-11
-1.12576e-11
3.34978e-10
2.54969e-13
-5.60928e-12
-1.91767e-11
1.95671e-11
6.1692e-13
6.62465e-12
-2.95972e-11
-8.75995e-11
9.94883e-11
3.03708e-10
3.97867e-11
-2.1047e-10
-9.93156e-11
-1.43415e-10
-7.03049e-11
-9.41121e-11
2.39373e-12
2.67687e-10
6.37725e-11
-5.20721e-10
3.8207e-10
-1.92437e-10
3.65937e-11
3.31874e-11
-3.30168e-12
1.08083e-10
3.2046e-10
-2.89024e-11
7.2532e-11
-8.78502e-11
-9.6765e-09
-5.05297e-09
1.25971e-08
4.15323e-09
6.79791e-09
-4.27887e-09
-1.42217e-08
2.20612e-08
-2.34393e-08
-2.09479e-09
3.71537e-09
1.2368e-08
3.39346e-09