/*--------------------------------*- C++ -*----------------------------------*\
| =========                 |                                                 |
| \\      /  F ield         | OpenFOAM: The Open Source CFD Toolbox           |
|  \\    /   O peration     | Version:  v2012                                 |
|   \\  /    A nd           | Website:  www.openfoam.com                      |
|    \\/     M anipulation  |                                                 |
\*---------------------------------------------------------------------------*/
FoamFile
{
    version     2.0;
    format      ascii;
    class       volScalarField;
    location    "0.3";
    object      alpha.water;
}
// * * * * * * * * * * * * * * * * * * * * * * * * * * * * * * * * * * * * * //

dimensions      [0 0 0 0 0 0 0];


internalField   nonuniform List<scalar> 
6576
(
1
1
1
1
1
1
1
1
1
1
1
1
1
1
1
1
1
1
1
1
1
1
1
1
1
1
1
1
1
1
1
1
1
1
1
1
1
1
1
1
1
1
1
0.965814
0.807957
0.676682
0.725911
0.767169
0.958944
0.709211
0.709334
0.913298
0.000454837
0.000740143
0.00177183
0.00200245
0.00093538
0.00359764
0.00427104
1.35057e-05
5.20256e-05
8.42099e-06
3.2624e-05
8.77201e-06
3.07688e-05
0.000108727
7.93622e-06
1.70309e-06
1.74799e-06
5.4957e-06
2.87299e-05
2.47305e-06
1.28156e-05
0.000107208
0.000131359
0.000199489
7.81064e-05
7.87266e-05
0.00014596
8.43801e-05
0.000324899
0.00013084
0.000123778
0.000215512
0.000324899
0.000141304
4.69803e-05
0.000995661
0.00138448
0.00846463
0.00845807
0.00673739
0.00177165
0.00236518
0.0399123
0.0624057
0.0622446
0.0251929
0.00744479
0.0176527
0.0216252
0.629895
0.450284
0.450284
0.452761
0.45516
0.526379
0.450284
0.909397
0.973566
0.973458
0.955618
0.977622
0.977481
1.97891e-07
1.68504e-91
3.99644e-08
3.80331e-11
1.65584e-12
1.38627e-08
1.57991e-08
0.572789
0.899976
0.966736
0.96764
0.920741
0.986431
0.938858
1.80375e-52
7.3796e-55
8.41724e-162
1.5036e-38
1.06492e-33
3.49264e-40
7.5265e-33
5.95038e-08
7.26938e-08
4.78416e-08
5.11396e-08
4.55179e-08
9.53121e-08
4.19797e-08
1.40568e-08
2.6939e-08
1.7589e-08
4.62869e-08
9.78484e-08
4.09155e-08
2.28901e-08
1.75574e-09
1.12537e-09
5.76307e-09
2.86453e-09
6.73047e-09
1.96075e-08
4.14912e-09
6.34876e-09
3.64316e-08
7.67476e-08
1.75431e-08
3.29711e-08
1.3934e-07
1.78522e-07
9.00538e-08
5.53883e-08
1.0547e-08
5.35413e-09
6.82069e-09
1.90278e-08
2.08601e-09
1.49242e-09
1.04724e-08
4.33513e-08
7.55613e-08
9.85485e-08
5.81071e-08
7.6016e-08
4.89099e-07
2.4579e-07
3.11507e-07
3.10497e-07
1.26552e-06
1.95486e-06
9.92232e-06
1.2625e-06
2.37011e-06
9.90611e-06
8.34195e-06
3.14187e-06
8.89782e-06
6.08473e-06
6.23244e-06
6.23244e-06
6.57123e-07
2.31173e-06
3.43559e-06
2.31521e-06
5.69463e-07
1.00536e-06
3.66645e-07
7.87083e-07
1.07922e-06
3.58136e-06
9.34286e-07
1.05947e-08
7.37326e-09
5.26815e-09
4.49282e-08
1.07512e-07
3.79682e-08
3.07477e-08
2.62687e-16
1.05629e-15
2.087e-14
3.18067e-13
8.2813e-13
1.30172e-13
1.96117e-14
2.11882e-06
4.09827e-06
1.85262e-06
5.17787e-06
1.57593e-06
4.71644e-06
2.15178e-06
2.9556e-06
8.53082e-06
4.65337e-06
8.53182e-06
4.79078e-06
1.30832e-05
1.36342e-05
5.07629e-07
6.52003e-07
1.24821e-07
1.25806e-06
5.08453e-07
6.15729e-07
5.87682e-07
6.75191e-09
2.25446e-08
5.39084e-08
1.41416e-08
8.35855e-09
2.40946e-08
3.90661e-09
1.51303e-09
3.4194e-09
7.66908e-10
2.50412e-09
3.15916e-09
1.90989e-09
8.34645e-09
3.85436e-09
6.79525e-10
2.36771e-09
3.6516e-09
1.68825e-08
1.20403e-09
2.10165e-09
1.41936e-09
6.21184e-09
0.00437734
0.00953235
0.00330994
0.00476317
0.00905144
0.0109092
0.00186901
0.978097
0.961311
0.979204
0.982907
0.972293
0.990004
0.990026
0.983763
0.988215
0.500398
0.960562
0.494991
0.586036
0.819365
0.585328
0.806198
0.571462
0.899473
0.152317
0.231943
0.15223
0.181689
0.0660277
0.0613798
0.0584247
0.970106
0.904243
0.79775
0.144833
0.0577173
0.0577173
0.091262
0.0577173
0.0775533
0.14233
0.000999593
0.00148368
0.00100846
0.00105215
0.00107302
0.00104183
0.00183334
0.0997781
0.040835
0.0117178
0.0241697
0.0248155
0.0120783
0.0172635
0.0170381
0.0117219
0.000196789
0.000115718
0.000175688
0.000323389
0.000147897
0.000118452
0.000131877
0.172179
0.232235
0.172585
0.172677
0.171899
0.169752
0.170408
0.623975
0.835611
0.173321
0.900399
0.822863
0.822099
0.542659
0.593039
0.930255
0.972305
0.972682
0.898801
0.97115
0.967022
0.911654
0.95318
0.953884
0.830119
0.840156
0.826515
0.839466
0.572274
0.733379
0.572177
0.572622
0.987095
0.986599
0.985058
0.929185
0.958132
0.965941
0.915871
0.969188
0.990204
0.710985
0.768337
0.768325
0.768332
0.585681
0.768346
0.652539
0.0827769
0.0630955
0.105891
0.0662926
0.0915146
0.020514
0.0331758
4.60459e-05
5.35473e-05
4.91318e-05
8.75448e-05
0.000147967
0.000123117
8.95536e-05
4.33677e-05
5.45907e-05
0.000370592
0.000971935
0.000297688
0.000425002
0.000260265
0.000774111
0.000255789
0.000939777
0.000939678
0.000939842
0.0013566
0.00136393
0.00157807
0.00133455
0.000941247
0.00137888
0.0238307
0.0364714
0.0960247
0.0707868
0.0229715
0.0124178
0.0862761
0.948583
0.948582
0.948583
0.837911
0.934163
0.89031
0.948582
2.2639e-08
1.20326e-08
1.75179e-08
6.64879e-08
1.61725e-07
2.50732e-08
5.22003e-08
3.81908e-07
2.0803e-07
2.06388e-07
4.29966e-07
1.13588e-06
1.54057e-06
7.36274e-07
8.89487e-06
6.08774e-06
8.64121e-06
4.76312e-05
1.53357e-05
9.84862e-06
2.10547e-05
0.00088512
0.00225413
0.00258763
0.00192916
0.00349681
0.0116127
0.00622956
0.00728244
0.00437471
0.00586965
0.0167391
0.0278671
0.0335387
0.0160993
0.0192853
0.00592264
0.0209686
0.0334914
0.0335421
0.0206625
0.0211718
0.0275695
0.0334852
0.0188584
0.0180593
0.0303343
0.033542
0.033542
0.0335417
0.0335421
0.0155542
0.0155509
0.0155483
0.0155544
0.0155527
0.0155542
0.0155544
0.0131284
0.0135049
0.0149532
0.0122316
0.0123154
0.0135371
0.0121376
0.0155544
0.0155544
0.0118482
0.0123888
0.0124273
0.0204331
0.0016946
0.00152021
0.0020646
0.00237148
0.00209843
0.00127157
0.0013341
0.00128564
0.00129797
0.00132793
0.00137862
0.00239419
0.00129585
0.00233742
0.00204463
0.00217148
0.00132627
0.000161383
0.000309202
0.000430327
0.000152615
7.4956e-05
0.000176887
9.19012e-05
0.000192704
0.000268933
0.00018541
0.000196967
7.08221e-05
4.89047e-05
7.05546e-05
7.05335e-05
0.000130468
7.04916e-05
0.000187356
9.20379e-06
1.71016e-05
5.40005e-06
7.46107e-06
1.25323e-05
6.67907e-06
4.72701e-06
2.83509e-08
1.09048e-07
1.12271e-07
6.43792e-09
1.48085e-08
1.24114e-08
3.54388e-08
7.75211e-08
4.20135e-08
4.50885e-09
9.48156e-10
4.14999e-10
2.66414e-10
6.97981e-10
7.40134e-10
2.55839e-09
9.21306e-10
5.38626e-10
2.48446e-10
2.87802e-10
5.50319e-10
4.36046e-10
3.03495e-10
4.78048e-10
1.2755e-10
5.40585e-10
2.48174e-10
1.94865e-10
2.87904e-10
2.88578e-10
7.7772e-09
1.01399e-08
1.25006e-08
2.50477e-09
5.69437e-10
1.49876e-07
1.24511e-07
9.90053e-08
9.81659e-08
9.70564e-08
1.00835e-07
1.03213e-07
4.86231e-07
8.86363e-07
9.35321e-07
5.04946e-07
5.14688e-07
5.20265e-07
3.4793e-07
8.23474e-06
8.19518e-06
8.18136e-06
3.15489e-06
3.12992e-06
5.01321e-06
3.958e-06
0.000229931
0.000236958
0.000228874
0.000106096
4.69631e-05
4.7001e-05
6.14238e-05
0.000464177
1.71189e-05
0.000115408
0.00054622
0.000881704
0.000285731
7.71948e-05
2.09034e-05
7.3982e-05
0.00157236
0.00212518
0.00210777
0.0012828
0.000384723
0.00137933
0.0014295
0.00432461
0.00269475
0.00450715
0.00122988
0.00273192
0.00269448
0.00289197
0.0130212
0.0111987
0.0190597
0.00701246
0.00396889
0.0181345
0.0115778
0.0832176
0.0544623
0.0437459
0.0254346
0.0129742
0.0318346
0.0310424
0.0908865
0.164184
0.186144
0.275754
0.10633
0.943306
0.382307
0.943624
0.943622
0.400252
0.0239534
0.0931487
0.46946
0.849835
0.0761061
0.136202
0.0176854
0.0230932
0.227251
0.0365945
0.161294
0.0146171
0.0853398
0.0151708
0.0150137
0.133052
0.109877
0.0359476
0.0252307
0.0608084
0.093441
0.0361792
0.0655624
0.0255229
0.0266396
0.0179559
0.0245543
0.0179559
0.0260164
0.062841
0.0293937
0.127509
0.0683401
0.0618228
0.0618224
0.122527
0.224951
0.0583668
0.115305
0.0581291
0.164513
0.633757
0.768929
0.92123
0.796573
0.920859
0.921241
0.920493
0.837682
0.0582718
0.0941737
0.689957
0.919823
0.853078
0.0724173
0.285388
0.377386
0.932518
0.933557
0.873473
0.858545
0.934332
0.890837
0.912798
0.928938
0.941427
0.764948
0.897026
0.764948
0.988029
0.970252
0.898308
0.963747
0.94376
0.984824
0.987633
0.840156
0.75204
0.813596
0.546273
0.437309
0.512572
0.511497
0.515752
0.610396
0.611397
0.744874
0.745158
0.735993
0.744657
0.745158
0.345756
0.713778
0.493504
0.647953
0.720549
0.745158
0.579127
0.544623
0.480329
0.480329
0.611229
0.540901
0.514481
0.600118
0.611433
0.609436
0.400071
0.521196
0.396859
0.502527
0.424395
0.578664
0.612483
0.354944
0.521475
0.346222
0.528381
0.608411
0.608536
0.528562
0.60908
0.608873
0.606905
0.613072
0.613059
0.613072
0.61304
0.612496
0.613059
0.574456
0.0390896
0.284775
0.0756139
0.33905
0.169644
0.0691953
0.0431745
0.0704963
0.013654
0.0956149
0.0233879
0.0956715
0.0122392
0.0383613
0.00101365
0.000537689
0.000207021
0.000401348
0.000274347
0.00011683
0.000116419
0.00351192
0.002431
0.00229341
0.000972311
0.00184681
0.00155598
0.00217904
0.00105769
0.00154059
0.00179986
0.000454681
0.00105656
0.000916226
0.00028062
6.45022e-05
0.000141866
6.37109e-05
3.11013e-05
3.04749e-05
2.82425e-05
3.00386e-05
6.95808e-05
2.82425e-05
3.60664e-05
4.69368e-05
3.54348e-05
3.46728e-05
3.47445e-05
4.89873e-05
3.47244e-05
0.000101887
4.18298e-05
0.000770053
0.00137301
0.0011495
0.000775132
0.00172115
0.00142709
0.00172121
2.50332e-07
6.43942e-08
2.22455e-07
7.27674e-08
2.70132e-08
8.36306e-08
1.26956e-07
6.38924e-07
1.20199e-06
6.41753e-07
4.72655e-07
1.14828e-06
6.42339e-07
6.5435e-07
3.79182e-08
2.49486e-08
1.61564e-08
3.76255e-08
1.61536e-08
7.2124e-05
4.0605e-05
6.32579e-05
0.00040728
0.000129319
7.88547e-05
0.000187333
0.00212053
0.00186387
0.00183412
0.00947135
0.0045037
0.00391525
0.00410442
0.0159172
0.03107
0.0172197
0.0312211
0.0119576
0.02009
0.031236
0.0157499
0.016393
0.0228158
0.0158058
0.0158058
0.0158058
0.0229189
0.0221007
0.0227445
0.0182866
0.0115361
0.0139421
0.0115308
0.0259178
0.0324558
0.0174458
0.0215014
0.0210265
0.0173824
0.0173488
0.0284755
0.0333842
0.0171371
0.0282995
0.0333842
0.0232827
0.0173675
0.0306445
0.0334368
0.033524
0.0335273
0.033524
0.0335381
0.0334058
0.0335387
0.033541
0.0206625
0.0331521
0.00230833
0.000376789
0.000561191
0.000599657
0.000200208
0.000368895
0.001615
0.000436388
0.000116507
0.00044325
0.000679079
0.0002058
0.000114452
0.00065599
1.86886e-05
7.74267e-05
3.5815e-05
1.20849e-05
2.11775e-05
2.54804e-05
8.85887e-06
7.46496e-06
3.29059e-05
2.16812e-05
3.57404e-06
7.97796e-07
1.50324e-06
1.10953e-06
4.61898e-07
8.6881e-07
2.55901e-06
2.25278e-07
1.34233e-06
3.453e-07
5.97587e-07
8.76371e-08
1.59284e-07
6.16841e-09
4.22165e-09
1.55675e-08
6.64882e-10
8.56702e-10
1.73059e-09
3.81685e-10
3.0438e-10
6.48782e-10
3.91795e-10
3.1746e-10
5.01353e-10
1.44266e-09
1.09239e-07
5.88895e-08
1.09239e-07
2.18328e-08
7.52746e-09
1.00489e-08
3.18097e-08
1.11381e-09
1.34966e-09
1.34512e-09
1.24435e-08
7.43119e-09
8.44884e-10
1.13827e-09
2.35807e-09
2.16777e-09
4.17412e-09
3.28179e-09
3.30652e-09
2.66707e-09
7.93254e-10
9.33146e-10
4.82508e-09
1.29461e-06
1.09916e-05
1.39106e-06
7.41972e-06
1.36342e-05
2.92687e-06
7.10737e-06
1.00319e-05
1.43818e-06
4.58339e-06
8.67613e-06
1.00264e-05
6.5043e-06
3.32555e-06
7.88017e-07
2.96902e-07
6.19215e-07
7.27e-07
9.54625e-07
7.01508e-06
2.3884e-06
1.50702e-06
4.82705e-06
7.02663e-06
2.5632e-06
8.29499e-06
5.4e-06
1.261e-06
0.00193416
0.0017683
0.00176702
0.0017957
0.00176804
0.0025658
0.0046645
0.00179274
0.0025612
5.61408e-05
1.47402e-05
2.41121e-05
5.54156e-05
5.18242e-05
1.4731e-05
1.54154e-05
0.00211142
0.000485034
0.00214329
0.00213468
0.00154751
0.0021392
0.000971606
0.000187549
0.000176109
0.000181444
0.000372664
0.000185146
0.000510306
0.000190736
0.000226485
0.000574498
0.00115056
0.00115064
0.00115064
0.00115123
0.000980194
0.00113149
0.00115115
0.810008
0.801126
0.80991
0.802482
0.810211
0.80973
0.787343
0.737858
0.475294
0.16437
0.740331
0.739739
0.35425
0.751461
0.106682
0.155415
0.587907
0.598529
0.752959
0.726173
0.752132
0.717473
0.35088
0.70021
0.70021
0.70021
0.619249
0.386586
0.297852
0.0158428
0.620893
0.699971
0.589406
0.128452
0.0150571
0.0139034
0.0657948
0.0580678
0.026428
0.0504266
0.116077
0.169852
0.169978
0.0968551
0.173718
0.173469
0.595719
0.611229
0.536926
0.609209
0.600457
0.444285
0.0875581
0.0900736
0.0919769
0.582115
0.52838
0.53428
0.609209
0.596178
0.596298
0.596172
0.575263
0.596298
0.331806
0.545341
0.444512
0.596298
0.147813
0.389625
0.389679
0.389679
0.403751
0.594376
0.450861
0.389625
0.430653
0.486162
0.486161
0.361265
0.359582
0.359582
0.0162696
0.013766
0.032385
0.0245399
0.0328919
0.0133785
0.0150803
0.0272238
0.00891761
0.0357007
0.0143018
0.0364988
0.010166
0.020612
0.00214966
0.00158546
0.00352469
0.00217709
0.00483658
0.00133376
0.00241528
0.000709783
0.00109016
0.000380603
0.000381833
0.00152385
0.00124098
0.00123379
0.150272
0.0362517
0.710834
0.0737727
0.696509
0.0321368
0.635191
0.553132
0.802052
0.885025
0.885024
0.885025
0.885024
0.885024
0.0061723
0.00812307
0.00619334
0.0212476
0.0110861
0.00750295
0.0142884
0.00139832
0.000122204
0.00120887
0.00285914
0.000219557
0.000365407
0.000927091
3.32592e-05
3.3408e-05
3.3408e-05
5.67031e-05
4.38737e-05
4.65875e-05
7.15086e-05
1.19029e-08
2.07993e-08
1.63707e-08
2.04413e-08
2.71128e-08
2.2367e-08
1.04554e-08
8.37045e-05
7.42023e-05
0.000266849
0.000281105
0.000215779
0.000260122
0.000723757
0.0078009
0.0113016
0.00808541
0.0120606
0.0120614
0.0120614
0.0120618
0.0106961
0.0137156
0.0107099
0.0123778
0.0153823
0.0107078
0.0106944
0.0104517
0.0129097
0.0101469
0.013164
0.00697021
0.0100549
0.0100272
0.0111545
0.0106189
0.0211111
0.0109116
0.0106155
0.0106798
0.0120368
0.0106154
0.0106643
0.0654579
0.0654579
0.0654579
0.0419295
0.0654579
0.0635978
0.065454
0.0654487
0.02129
0.0628655
0.065454
0.0654487
0.0648034
0.0452873
0.0217874
0.0127266
0.0166379
0.0120171
0.0124747
0.0117034
0.0118863
0.0197679
0.0199018
0.0197731
0.0116391
0.0115818
0.015855
0.0116345
0.0221075
0.0253369
0.0143863
0.0118908
0.0199018
0.0115383
0.0166009
0.0259213
0.015815
0.0132678
0.0054687
0.00716628
0.0136732
0.0332018
0.0262611
0.0280503
0.00218625
0.00411576
0.00290069
0.00216889
0.00441596
0.000768641
0.000423378
0.000900975
0.00217157
0.00128507
0.00067036
0.00182787
0.000263266
0.000946269
0.000800137
0.000258379
0.000197745
0.000443532
0.000380001
9.27737e-05
2.88069e-05
0.000171622
2.00645e-05
4.23211e-05
0.000112421
5.6598e-05
1.32961e-08
1.40914e-07
5.79464e-08
7.93472e-09
1.97614e-08
6.445e-09
4.41212e-09
7.58285e-09
1.693e-08
9.06872e-09
4.25597e-08
2.488e-08
2.90203e-09
2.2335e-09
6.98277e-10
3.87572e-10
3.17153e-10
9.69426e-10
7.81265e-10
7.93436e-10
3.90866e-10
2.48036e-10
3.22437e-10
1.90514e-10
1.17084e-10
9.20938e-11
3.81414e-10
3.43464e-10
3.06537e-10
1.52325e-08
4.55001e-09
3.21706e-09
3.77774e-09
6.01749e-09
7.66287e-09
2.8129e-09
2.06153e-08
5.45728e-08
3.3543e-08
5.24533e-07
1.04873e-06
5.27972e-07
5.24655e-07
8.43213e-07
7.986e-07
5.24533e-07
2.34726e-07
2.08279e-07
8.91951e-07
4.44478e-07
4.41981e-07
1.65704e-06
1.15943e-06
1.98261e-07
2.05925e-07
5.16804e-07
4.52215e-06
2.98765e-06
3.92859e-06
4.3083e-06
2.98034e-06
5.07271e-06
2.98034e-06
1.72806e-06
1.2085e-06
4.78881e-06
2.3489e-06
2.16304e-06
3.20612e-06
7.87753e-06
5.07665e-06
4.96316e-06
5.67052e-06
2.85288e-06
1.78792e-06
1.29707e-06
1.29273e-06
5.13628e-06
8.20009e-06
8.19741e-06
6.63119e-06
3.21482e-06
8.20057e-06
4.09679e-06
9.61321e-05
0.00011015
5.67787e-05
1.96737e-05
2.4846e-05
4.20591e-05
3.2542e-05
3.97294e-05
4.11206e-05
3.94964e-05
5.20424e-05
0.000132573
6.39656e-05
8.81893e-05
1.83141e-05
1.01813e-05
9.38538e-06
8.50045e-05
2.59265e-05
2.67848e-05
8.98912e-06
0.00952335
0.00875887
0.00952919
0.00952424
0.00952973
0.00952991
0.00952991
0.00952991
0.00952975
0.00928328
0.00404051
0.00176188
0.0074884
0.00929427
0.00494886
0.00362526
0.00124719
0.00400169
0.00304515
0.00400169
0.00400169
0.00305984
0.00305452
2.22112e-05
2.47099e-05
1.71232e-05
3.85285e-05
1.72044e-05
2.68415e-05
5.90787e-05
1.92081e-05
3.32678e-05
7.87447e-05
7.16403e-05
5.54145e-05
0.000277662
0.000519934
0.000269061
0.000399831
0.000128147
6.63752e-05
0.000128762
0.000225271
0.000104876
0.000248389
0.000143656
0.000140874
6.7821e-05
0.000106481
0.000106861
0.00012016
0.000106481
0.000106505
0.00010649
0.000106505
0.000106767
0.000226957
0.000106696
0.000304598
0.000197197
0.000124832
0.00014204
0.00354163
0.0077266
0.0101714
0.00354744
0.00360508
0.00287746
0.00524579
0.00557544
0.00465942
0.00471502
0.0119245
0.00779943
0.012075
0.0108572
0.0207088
0.0154586
0.0198524
0.026277
0.0194672
0.0196138
0.0193917
0.809573
0.723023
0.809588
0.580583
0.808014
0.809528
0.808503
0.765245
0.621181
0.621181
0.752816
0.759847
0.784269
0.621768
0.809558
0.722249
0.75945
0.802923
0.0879019
0.805041
0.810197
0.810224
0.801161
0.810211
0.47134
0.475423
0.0147149
0.0442982
0.017669
0.264247
0.752959
0.727803
0.752968
0.00381474
0.00842826
0.00847728
0.00590265
0.00142568
0.0010769
0.00412717
0.594628
0.552022
0.562287
0.594311
0.593434
0.231419
0.594628
0.389625
0.59461
0.583505
0.400093
0.400082
0.400104
0.400083
0.415788
0.426822
0.431082
0.565221
0.400082
0.585571
0.0111692
0.0324024
0.0157632
0.00951309
0.0345402
0.0243974
0.00401975
0.00597604
0.0125105
0.00425703
0.0153373
0.0256996
0.0271213
0.0109772
5.64545e-05
3.89311e-05
2.28702e-05
5.10022e-05
3.71972e-05
2.01028e-05
2.02038e-05
0.0887322
0.0410131
0.0877841
0.0519584
0.0396326
0.00979418
0.0303028
0.0231746
0.0199301
0.00179946
0.003298
0.000785711
0.131294
0.0494667
0.17583
0.085839
0.000396033
0.000696237
0.000135083
0.000284851
0.000365444
0.000108932
8.4806e-05
0.000237734
0.000114357
0.000921387
0.000614826
0.000225845
0.000537625
0.000318439
5.55428e-05
0.000151662
0.00013078
0.00021788
0.000176078
0.000123431
5.31972e-05
9.31239e-05
7.99484e-05
6.43707e-05
5.34112e-05
0.00111489
0.00169613
0.0020886
0.000926563
0.000634563
0.00162494
0.00105946
0.0020593
0.00216324
0.0050372
0.00249344
0.00416037
0.00261443
0.00184524
0.101725
0.0711313
0.12172
0.0699047
0.124055
0.123214
0.0698141
0.0567702
0.0567383
0.0567706
0.0567383
0.0758105
0.0761701
0.0575408
0.0698141
0.0765303
0.0698091
0.0915121
0.126606
0.0567461
0.0620014
0.0567461
0.0765703
0.067008
0.119771
0.107226
0.1267
0.117266
0.0707481
0.0634538
0.0385076
0.0756546
0.0269321
0.0629716
0.0396225
0.0600294
0.0450602
0.0106154
0.0106191
0.016694
0.0106155
0.0106154
0.0153923
0.0153923
0.0153923
0.0131056
0.0153923
0.0153914
0.0153828
0.0211438
0.0138493
0.0146946
0.0299924
0.0303227
0.0302802
0.0302802
0.00780052
0.00570571
0.00608891
0.0135474
0.0132755
0.025823
0.0086942
0.00179929
0.000715241
0.000778921
0.00198937
0.00512032
0.0011587
0.00398197
6.23498e-08
1.90641e-08
8.5826e-09
7.22939e-08
1.86147e-08
1.99155e-08
7.72982e-09
1.33231e-06
9.6061e-07
8.42893e-07
1.34999e-06
9.84405e-07
1.3178e-06
2.0218e-06
3.18501e-06
4.52215e-06
3.71332e-06
8.19894e-06
6.45193e-06
8.01431e-06
8.20923e-06
4.40167e-06
7.92389e-06
8.20337e-06
8.20923e-06
2.09073e-06
8.20923e-06
2.74661e-14
7.1392e-13
1.8894e-19
1.56846e-11
4.29599e-12
1.19291e-15
2.03846e-15
3.98835e-09
1.09963e-08
3.65673e-09
4.20624e-34
9.47005e-49
2.25902e-16
2.08675e-17
1.0265e-16
8.89844e-22
2.3114e-37
3.8443e-36
5.9594e-31
2.66215e-10
1.48824e-09
5.46654e-09
7.08836e-12
2.71551e-10
8.46664e-10
1.09872e-12
0.480167
0.863902
0.978163
0.962439
0.988735
0.95377
0.934003
0.000145571
0.000120768
0.000117388
0.000816415
0.000572173
0.00286426
0.00549458
0.00326171
0.0188041
0.00338657
0.017194
0.00726443
0.0566914
0.00908597
6.50317e-09
3.23851e-08
3.9516e-08
4.54302e-08
3.23404e-07
1.55252e-07
6.1669e-09
0.000450834
0.000129433
0.00106761
0.000121865
0.000191163
0.000470971
0.00264647
0.00057801
0.000288503
2.04153e-05
0.000205532
0.000155019
1.28635e-05
3.50243e-05
1.01606e-07
3.68161e-07
1.1894e-07
7.87398e-07
4.67504e-07
1.25466e-07
2.84742e-07
1.88489e-06
7.8011e-07
0.000513369
0.000244264
0.000295239
0.000865863
0.000398339
0.000378279
0.00161354
7.87172e-05
3.73879e-05
1.40553e-05
6.79276e-05
2.1399e-05
2.01461e-05
1.10571e-05
9.99607e-06
2.73842e-05
1.68681e-05
3.81911e-05
5.48342e-06
6.83588e-05
2.89077e-05
0.00251099
0.000726862
0.001486
0.00461192
0.00104492
0.000251119
0.00157092
0.000586767
0.000642302
0.000808975
0.000311338
0.000261611
0.000271954
0.000281452
0.0995738
0.0995738
0.0995738
0.240774
0.0996452
0.192365
0.245133
0.0155406
0.045888
0.0195308
0.20658
0.0674876
0.0129185
0.0256435
0.0940282
0.419145
0.0963141
0.228652
0.440327
0.324927
0.44014
0.418064
0.411787
0.445358
0.418913
0.419961
0.448634
0.448749
0.448608
0.44917
0.418174
0.44304
0.40481
0.753297
0.425512
0.42164
0.450827
0.44809
0.311562
0.288898
0.0326193
0.0945505
0.0435377
0.0639628
0.098712
0.0452667
0.0533037
0.450823
0.753378
0.753407
0.621841
0.802181
0.802046
0.0731079
0.0703148
0.129283
0.193399
0.155288
0.073565
0.216409
0.000123974
0.000183328
0.000133585
0.000790784
0.000262135
0.000590544
0.000217097
0.000232654
0.000397459
0.000248956
0.000831867
0.000659967
0.000855488
0.000394329
0.0226512
0.0549896
0.0573229
0.0337946
0.00730699
0.00980771
0.02891
0.0270132
0.0269051
0.062336
0.127966
0.0404488
0.0294823
0.191621
0.877805
0.877822
0.877952
0.877794
0.877767
0.878753
0.841498
0.460637
0.8295
0.7626
0.8295
0.8295
0.8295
3.85694e-05
7.98215e-05
8.6237e-05
2.9318e-05
3.31071e-05
6.47208e-05
4.8144e-05
0.000178118
0.000179476
0.000281471
0.000542099
0.000292513
0.000811271
0.000430115
0.00180669
0.00162137
0.0015352
0.00235371
0.00401333
0.0033777
0.00157152
0.405204
0.00844309
0.160078
0.405747
0.406368
0.0361115
0.202508
0.0794613
0.0794167
0.0794167
0.105349
0.131568
0.0794249
0.0795944
0.0794249
0.0794249
0.123978
0.00174226
0.0011993
0.000746672
0.0017502
0.000826318
0.00124481
0.00068559
0.00289847
0.00276863
0.00143236
0.000306159
0.000849926
0.000687836
0.000421079
0.000983687
7.84992e-05
0.00230845
0.00213001
0.00230361
0.00216329
0.00219189
5.56963e-06
3.48486e-06
3.51731e-06
3.12112e-05
1.13728e-05
9.0676e-06
8.21529e-06
1.92397e-06
8.88473e-07
1.72844e-06
1.25838e-06
8.9104e-07
1.31962e-06
2.28657e-06
2.64731e-06
1.45695e-06
2.81041e-06
4.58392e-06
4.03854e-06
8.23919e-06
6.43084e-06
1.0761e-06
1.25629e-06
2.62407e-06
3.24878e-06
8.29499e-06
4.40337e-08
4.67462e-08
4.28674e-08
2.6548e-06
6.16584e-07
1.06763e-06
5.60946e-08
0.947837
0.67018
0.977974
0.840783
0.585759
0.135205
0.924565
0.00156493
0.00476877
0.0049671
0.00136073
0.00148541
0.00228676
0.00273262
0.000531523
6.96667e-05
0.000207699
0.000125586
6.05994e-05
9.35383e-05
0.000581458
2.60876e-09
1.03664e-10
7.60313e-10
2.96114e-06
3.66568e-06
2.23696e-06
3.67091e-06
2.07685e-06
9.53408e-07
1.61361e-06
5.46423e-06
1.58437e-06
3.89926e-06
9.52712e-08
1.5537e-07
2.36945e-08
1.63099e-07
1.64724e-07
2.31193e-07
8.72923e-09
1.14822e-09
4.98637e-08
5.72771e-09
9.64141e-09
2.28992e-08
1.22633e-08
1.50189e-08
1.14088e-08
1.54954e-08
1.25882e-08
5.06846e-09
5.54832e-09
1.20598e-08
1.02916e-07
1.73396e-07
1.68562e-07
6.31518e-09
4.6265e-09
2.20922e-08
1.92019e-08
1.17679e-07
1.82005e-08
7.00838e-08
4.67406e-07
2.62803e-08
5.81974e-09
1.51518e-07
1.64393e-06
1.63896e-06
2.47288e-06
4.58461e-06
2.46061e-06
2.33207e-06
5.32206e-06
0.00106119
0.00209615
0.000333285
0.000585971
0.000233722
0.00105109
0.000399463
0.00181589
0.00103418
0.00649843
0.00649843
0.00587057
0.0064879
0.00649843
0.00565518
0.00647612
0.0181578
0.0170529
0.0539979
0.0208539
0.037632
0.00782382
0.0407122
0.086265
0.0695574
0.0319483
0.0334405
0.0283744
0.0283067
0.0288501
0.0315608
0.0283744
0.0326981
0.19349
0.19349
0.110676
0.072258
0.192153
0.19349
0.242664
0.099736
0.210443
0.0265229
0.121001
0.0522008
0.244823
0.182779
0.0994107
0.245133
0.330903
0.334004
0.441292
0.00155787
0.00158658
0.0015612
0.00221691
0.00187785
0.0030073
0.00138738
0.0065569
0.00704392
0.00210288
0.00207952
0.00340816
0.00439953
0.00466375
4.22229e-05
0.000101887
5.36875e-05
0.000101906
7.36063e-05
0.000232463
0.000149772
0.000623633
0.000232333
0.000163862
6.37929e-05
0.000181173
9.8662e-05
8.75248e-05
9.38559e-05
9.0531e-05
0.000131759
4.87929e-05
8.98053e-05
0.000129991
8.64098e-05
5.63624e-05
3.07703e-05
3.41604e-05
0.000169634
0.000143303
0.000143503
0.000143856
0.000247254
0.000145943
0.000326757
0.00136441
0.000218915
0.000813682
0.000309944
0.000987082
0.000144921
0.000727747
0.00616506
0.00282214
0.00609805
0.00280947
0.0027621
0.000759214
0.00337198
0.877767
0.81715
0.430429
0.931055
0.940656
0.94065
0.940702
0.940698
0.9336
0.94067
0.940194
0.879561
0.940195
0.660418
0.940213
0.896581
0.896682
0.894272
0.896581
0.907047
0.906931
0.880857
0.725937
0.873969
0.933626
0.727163
0.566263
0.581776
0.216913
0.192584
0.450295
0.58167
0.581774
0.581832
0.438392
0.58195
0.00435204
0.00309359
0.00459105
0.00105283
0.00166974
0.00243013
0.00151994
8.12174e-05
0.000101596
0.00010472
9.65103e-06
6.67879e-05
4.77541e-05
2.57335e-05
3.55357e-05
9.87839e-06
8.63652e-06
3.52049e-05
2.37973e-05
1.29927e-05
1.891e-05
1.57816e-05
1.43138e-05
1.44868e-05
0.000115914
4.29413e-05
2.03233e-05
1.84376e-05
2.35178e-05
5.46135e-06
5.0199e-05
2.55795e-05
2.58273e-06
6.38358e-05
1.79692e-05
0.000561861
0.000289848
0.000306523
0.000583046
0.00029152
0.000332965
0.00053985
0.000587596
0.000140229
0.00142302
0.000484442
0.00012631
0.00106885
0.00143412
3.71575e-05
3.76027e-05
9.17075e-05
4.84935e-05
0.000101409
7.93343e-05
2.49957e-05
4.76635e-05
1.53102e-05
1.52904e-05
4.84381e-05
5.11359e-05
3.20276e-05
2.55538e-05
4.14608e-05
5.11359e-05
2.43384e-05
3.62628e-05
2.43278e-05
3.31625e-05
1.6605e-05
3.7888e-05
2.14295e-05
1.14531e-07
3.63535e-07
1.66683e-07
4.38777e-08
1.42796e-07
1.06051e-07
4.82541e-08
9.6159e-08
5.9001e-08
5.15683e-08
1.64617e-09
5.43563e-10
1.82282e-09
3.29875e-10
1.29864e-09
5.72029e-10
1.04081e-09
1.95401e-09
3.73828e-11
1.64093e-09
2.3974e-11
5.7365e-11
9.37193e-12
4.05096e-11
8.15468e-11
5.62428e-11
1.36637e-12
3.69092e-13
1.85781e-12
4.07866e-12
7.02179e-12
5.01462e-12
8.11296e-12
1.44474e-09
1.39863e-09
1.67287e-08
6.51674e-10
8.9954e-10
9.0631e-08
2.80142e-07
3.09011e-08
6.77452e-08
0.000778966
0.000650717
0.000621842
0.00066226
0.000664422
0.000985067
0.000721706
0.00511501
0.00464165
0.00510627
0.000962425
0.00327923
0.00364296
0.00510627
0.042098
0.0420815
0.0420688
0.042098
0.0421183
0.0366361
0.0174037
0.0448347
0.0448345
0.0448345
0.0448347
0.0448499
0.0448027
0.0447772
0.0403256
0.0448215
0.0162348
0.0408659
0.0385143
0.040866
0.023129
0.0112152
0.0236081
0.0488138
0.0288204
0.105818
0.000142025
0.000185331
0.000378809
0.000111907
0.000106414
0.000110011
0.000297543
0.000282317
0.00057098
0.000645986
0.00028214
0.000190975
0.000645952
0.000440907
0.000492597
0.000492597
0.000490011
0.000546385
0.000513339
0.000487944
0.000490011
0.00141959
0.000603578
0.00104669
0.0017275
0.000311497
0.000420597
0.00160673
0.000563836
0.00172779
0.00102155
0.00172779
0.00172717
0.00160711
0.00149776
2.23624e-05
2.23775e-05
2.21421e-05
2.21178e-05
2.21171e-05
2.22068e-05
2.21235e-05
0.000330157
0.000301957
0.000180278
0.00054142
0.00109941
0.000323915
0.000480853
3.67235e-05
6.17992e-05
3.68187e-05
0.000126932
5.85706e-05
0.000217215
0.000455872
0.000234282
0.000217215
0.000312039
0.00047877
0.000286782
4.93784e-05
9.90779e-05
9.88381e-05
9.91377e-05
7.25523e-05
4.40526e-05
4.50884e-05
0.000107303
0.00011327
0.00010742
0.000247117
0.000231279
0.000197582
0.000156671
0.907047
0.907047
0.906978
0.85786
0.857852
0.85786
0.857722
0.83238
0.857852
0.857852
0.907682
0.907682
0.907682
0.907621
0.322537
0.77354
0.870297
0.870297
0.870297
0.870282
0.870165
0.855671
0.572838
0.829372
0.857852
0.584191
0.117066
0.246312
0.053859
0.487746
0.872576
0.133525
0.25456
0.565855
0.65702
0.566083
0.566836
0.707141
0.587799
0.58975
0.567581
0.567501
0.567508
0.586672
0.586189
0.582279
0.585091
0.566525
0.707238
0.706701
0.582359
0.570112
0.582659
0.0237687
0.0207352
0.0208772
0.0454896
0.0321204
0.0598838
0.0311829
0.0228745
0.0325594
0.00851061
0.010447
0.00854435
0.0165522
0.006646
0.0448126
0.0182481
0.000108961
6.50441e-05
6.56562e-05
0.00010099
0.000181365
0.000240794
0.000178104
5.57138e-05
7.57784e-05
0.000101617
0.000103319
0.000197181
0.000524991
0.00102463
4.81441e-09
1.01748e-08
1.43615e-08
8.17578e-08
2.48246e-07
6.94136e-09
9.35258e-09
5.28544e-12
1.20706e-11
6.4134e-12
1.81422e-10
3.13541e-10
3.22189e-10
2.82812e-11
3.64779e-11
7.721e-11
7.81216e-11
3.50205e-12
8.12358e-13
4.51879e-12
2.68566e-12
8.55217e-12
2.02248e-12
6.08151e-13
1.18603e-12
4.36779e-12
3.76853e-12
1.02779e-13
3.51519e-12
7.93825e-14
2.29642e-13
2.89204e-13
8.39535e-13
7.99684e-13
8.87441e-13
8.37214e-13
7.62426e-13
6.1587e-13
1.28211e-12
5.3335e-12
4.57355e-13
1.15295e-12
1.8091e-12
1.10936e-12
2.00606e-12
4.95232e-10
9.19306e-11
2.37793e-09
3.96806e-09
3.05647e-09
1.40994e-08
8.34978e-08
0.000227275
0.000226187
0.000421922
0.000221712
0.000559566
0.000312698
0.000223809
0.00892915
0.0128539
0.00892915
0.0199239
0.0104515
0.00897487
0.0397892
0.0397893
0.0397893
0.0119766
0.0288496
0.0397893
0.0334605
0.0320822
0.0420904
0.0420815
0.0420613
0.00366825
0.00454315
0.00440932
0.00214274
0.00460871
0.00456564
0.00454939
0.00189037
0.000925032
0.00167989
0.000726227
0.00059705
0.000911258
0.00101022
0.000538463
0.000425288
0.000721468
0.000660583
0.000593839
0.000428427
0.000729442
0.000567388
0.000423868
0.000426989
0.000418207
0.0004183
0.000421369
0.000418299
0.000542055
0.000524984
0.000550942
0.000223519
0.000386797
0.000622159
0.000386285
0.00102851
0.000529665
0.000522585
0.00178618
0.000201922
0.000201922
0.00123783
0.000470249
0.000400719
0.000470721
0.00015045
0.000145832
0.000172111
0.00020627
0.00136812
0.00213658
0.000672123
0.000718066
0.000694754
0.00102737
0.00212292
0.000324382
0.00032036
0.000561761
0.000503437
0.000191734
0.000405419
0.000863788
0.00027327
0.000242285
0.00031832
0.000360877
0.000802514
0.00113467
0.00114986
0.00113228
0.001905
0.00198321
0.00191461
0.00108258
0.00170739
0.000620259
0.000520517
0.000626313
0.000623886
0.000264931
0.00029827
0.000499376
0.000626998
0.000261517
0.000189985
0.000773602