/*--------------------------------*- C++ -*----------------------------------*\
| =========                 |                                                 |
| \\      /  F ield         | OpenFOAM: The Open Source CFD Toolbox           |
|  \\    /   O peration     | Version:  v2012                                 |
|   \\  /    A nd           | Website:  www.openfoam.com                      |
|    \\/     M anipulation  |                                                 |
\*---------------------------------------------------------------------------*/
FoamFile
{
    version     2.0;
    format      ascii;
    class       volScalarField;
    location    "0.3";
    object      p;
}
// * * * * * * * * * * * * * * * * * * * * * * * * * * * * * * * * * * * * * //

dimensions      [1 -1 -2 0 0 0 0];


internalField   nonuniform List<scalar> 
6576
(
-382.842
-407.486
-373.881
-382.09
-390.119
-369.546
-369.547
-354.825
-376.506
-374.056
-371.453
-363.906
-350.686
-366.436
-274.844
-293.604
-329.369
-324.12
-296.539
-288.173
-333.063
-360.209
-368.445
-440.131
-268.436
-224.803
-151.204
-410.415
-414.405
-409.54
-402.346
-392.047
-353.716
-255.679
-238.088
-253.258
-281.662
-278.104
-271.831
-274.218
-311.606
-355.999
-304.382
1524.24
1337.52
1612.3
1401.08
1477.55
1645.45
1631.14
1475.21
1594.06
-11.5683
-10.4206
-11.2099
-12.2533
-14.621
-18.2595
-13.7655
-3.69726
-5.79453
-4.67726
-4.71459
-3.83201
-3.38403
-4.65486
-4.95672
-4.61692
-4.88208
-4.51057
-4.87788
-4.5649
-4.97151
3.92174
4.10358
3.98838
3.83879
3.86117
3.74066
3.7353
4.77087
4.99397
5.10241
4.59892
4.69109
4.75118
4.75139
9.64927
10.4083
8.56265
8.18169
8.14247
8.62803
7.9651
56.1606
38.0834
58.8146
21.4607
27.3153
51.546
58.7976
527.806
873.382
569.636
562.008
592.204
450.817
544.173
1807.91
1727.49
1659.58
1625.48
1677.16
1830.62
-3.05313
-2.9234
-3.14299
-3.12888
-3.18473
-3.21228
-3.21563
-32.2253
-51.8467
-181.554
-124.066
-119.978
-26.7351
10.3684
-2.36079
-3.11468
-2.89428
-3.41482
-3.29662
-3.51638
-3.64563
-2.41032
-2.26255
-2.48146
-2.5169
-2.11197
-1.98725
-2.34603
-3.81833
-4.01307
-3.61251
-4.39929
-3.83764
-3.53991
-3.90613
-4.1274
-4.10121
-4.04379
-3.92466
-3.94818
-4.00379
-4.04611
-4.39776
-4.35645
-4.73118
-4.49873
-4.53496
-5.08092
-4.87968
-4.86438
-4.75437
-4.1192
-3.99134
-4.15205
-4.26665
-4.15931
-4.13195
-4.22536
-4.22318
-4.03942
-4.33622
-4.44659
-4.30708
-4.67834
-4.77759
-4.59182
-4.64086
-2.72104
-2.60861
-2.70922
-2.75148
-2.64234
-2.75562
-2.89334
-2.83264
-2.67671
-2.55596
-2.5685
-2.50627
-2.61522
-2.57051
-2.58145
-2.54714
-2.52559
-2.5412
-2.82465
-2.48861
-2.54037
-2.51676
-2.64114
-2.66451
-2.58302
-2.80761
-2.77865
-2.64415
-2.56498
-2.44743
-3.29741
-3.431
-3.61921
-3.20702
-3.22328
-3.54043
-3.66017
-2.78298
-2.76113
-2.77813
-2.79548
-2.83312
-2.83449
-2.80528
-2.81886
-2.78385
-2.77744
-2.78823
-2.81691
-2.78181
-2.75003
-2.79308
-2.85332
-2.87811
-2.74085
-2.68402
-2.78876
-2.81154
-3.36213
-3.27782
-3.42724
-3.19699
-3.1647
-3.33917
-3.31184
-3.80913
-3.89531
-3.83688
-3.61419
-3.7339
-3.67519
-3.77802
-3.84542
-3.77032
-4.08054
-4.05009
-4.08926
-4.13952
-4.08294
-4.10951
-4.08743
-7.00528
-7.31826
-6.14563
-5.77352
-6.35981
-7.28259
-6.86951
1304.99
1255.39
1202.92
1349.47
1215.26
1181.2
1357.31
1177.38
1348.9
1174.18
1187.14
1165.82
1145.53
1031.65
1095.51
965.779
813.963
796.818
890.987
890.937
921.861
827.223
684.35
862.711
806.369
1238.96
1184.4
1225.96
930.497
962.325
912.967
980.409
969.803
930.293
948.016
-0.313556
0.00365166
0.0774108
-0.0723094
-0.728008
-0.259685
-0.0887439
-0.978274
-0.534712
-0.379051
0.733018
-0.126569
0.0652382
0.266529
0.0540838
0.779449
-0.983912
-0.6957
0.117509
-1.41762
-1.73977
-1.30465
-1.01989
192.363
143.518
162.851
113.559
111.396
159.649
187.752
295.254
318.184
232.231
345.132
236.021
397.65
314.752
277.491
306.617
740.853
816.713
792.494
754.4
827.715
743.868
845.484
845.306
742.115
1028
1170.91
1016.96
1095.3
1152.48
1010.27
1174.85
1399.63
1336.57
1412.33
1366.28
1268.91
1093.66
1279.02
1299.29
1419.56
660.848
255.596
474.619
527.992
623.717
526.369
786.616
98.6387
22.2367
64.9589
56.2946
105.737
50.4567
103.803
1.77772
1.8106
1.91598
1.43419
1.91049
1.67718
1.92922
1.96043
1.75872
1.36236
1.46111
1.54826
1.44991
1.59932
1.45897
1.57112
0.424457
0.654962
0.629532
0.786149
0.905952
0.768369
0.767382
0.720308
0.524186
0.87348
0.87202
1.53163
6.07195
-0.918145
-2.00907
1.23036
6.36795
3.14087
-5.65431
16.6908
-0.284092
14.5457
25.018
-3.77553
-3.69164
-3.67393
-3.82599
-3.82692
-3.74071
-3.72953
-3.7942
-3.66532
-3.73406
-3.73299
-3.84213
-3.79028
-3.70485
-4.17709
-4.06776
-4.08289
-4.30109
-4.3229
-4.19646
-4.20297
-5.24492
-4.84941
-5.56606
-5.49412
-5.27477
-6.5654
-5.90337
-6.31326
-5.70881
-6.02839
-7.91315
-10.4366
-19.2026
-9.23823
-16.4995
-12.3867
-17.3437
9.92361
-5.30239
-14.5431
-3.97215
-6.27902
-8.22141
-10.1879
-6.53845
0.924164
-1.0398
0.223698
-3.49873
3.11367
-11.2436
-5.10451
8.39021
-5.41293
-13.99
-3.92455
12.9695
10.9631
-0.87236
3.08341
-0.843353
-0.0683579
10.4625
1.93231
-13.1325
4.84874
-3.83636
0.0147881
1.42958
26.1481
-6.73778
-5.62413
-5.23085
-5.07192
-8.00247
-4.96841
-4.10478
-4.1767
-5.25321
-5.88565
-4.39992
-3.80424
-5.51675
-5.31162
-6.32345
-8.55196
-6.19219
-3.32022
-2.96774
-3.29804
-3.24627
-3.27959
-3.31406
-3.18234
-3.14938
-3.49154
-3.3145
-3.515
-3.24946
-3.14909
-3.18503
-3.3029
-2.94183
-3.15984
-4.02449
-2.94838
-3.00633
-2.962
-2.96912
-2.97124
-2.95948
-2.95373
-3.1792
-3.1868
-3.267
-3.15817
-3.11884
-3.17584
-3.13869
-3.17196
-3.22769
-3.36061
-3.41189
-3.33317
-3.26455
-3.25374
-3.30549
-3.29509
-3.2021
-3.1903
-3.24147
-3.20471
-3.15462
-3.1663
-3.22196
-3.42681
-3.37836
-3.43152
-3.30318
-3.29845
-3.33825
-3.34908
-3.76216
-3.88142
-3.8509
-3.63074
-3.76871
-3.78934
-3.91278
-3.72
-3.57049
-3.41438
-3.74106
-3.61909
-4.37798
-4.613
-4.36194
-3.99899
-4.22616
-4.31435
-4.03194
-3.1557
-3.47872
-3.08553
-3.49735
-2.51737
-3.26829
-3.6068
-1.43867
-1.56357
-1.76956
-1.66083
-1.61469
-1.54513
-1.39709
-2.05033
-2.05318
-1.82809
-2.16915
-2.28682
-2.11109
-2.23383
-2.1103
-1.92475
-1.85781
-2.32022
-2.18668
-2.4221
-2.06692
-2.60768
-2.29036
-0.175813
-0.333477
-0.469775
-0.315245
-0.975657
-0.518662
-0.1675
-0.788117
-1.05564
-0.224609
-0.817467
-0.73891
-1.54975
-0.876805
-1.66109
4.11401
-0.916173
-1.05276
-0.887989
0.562069
3.49581
68.7576
-51.5393
29.4161
92.635
-4.62891
56.3194
-10.1596
258.664
381.114
357.87
427.252
311.938
392.547
270.823
433.97
363.607
405.182
420.429
427.746
462.151
421.532
449.162
444.272
454.41
479.501
417.73
435.048
429.909
417.325
431.909
408.294
421.929
424.13
431.9
451.829
410.939
408.24
422.227
418.826
413.638
435.301
606.022
573.492
648.936
525.725
411.434
481.108
935.925
969.438
935.51
895.477
886.91
639.905
481.117
625.113
702.224
588.337
766.886
640.095
925.512
920.625
890.597
861.609
943.881
964.576
982.765
977.61
368.864
624.164
565.269
528.853
706.947
739.471
583.268
900.415
861.797
810.781
698.259
700.116
1130.89
1085.82
1057.33
1068.44
921.625
1052.57
1145.05
1165.09
1190.14
1326.83
246.818
471.402
389.543
449.181
426.949
504.286
234.383
1008.9
746.582
778.473
787.038
829.811
652.865
456.183
716.07
665.963
1183.43
922.405
896.849
-21.6907
121.647
-93.4374
158.22
110.449
58.1009
53.5527
122.371
74.1305
495.42
526.076
514.067
531.26
515.499
504.993
232.726
626.414
589.188
498.5
79.35
53.3175
2.12468
206.412
79.6305
44.7685
162.095
175.469
97.4294
148.983
162.27
54.6735
55.5989
171.182
63.6445
87.4822
33.7397
83.882
136.729
100.575
94.9337
23.8154
8.13985
19.5816
20.1887
17.8992
23.0834
42.8026
5.33528
5.29149
5.11053
5.21705
5.25401
5.01699
4.98346
5.13293
5.31854
5.08868
5.56994
5.48948
5.37994
5.41554
4.74205
4.41191
4.61931
4.37345
4.59721
4.6203
4.30902
3.59536
3.80627
3.83585
3.81781
4.02077
3.79414
3.95195
3.86492
3.6781
2.85761
3.00907
3.18245
3.44754
3.376
3.33973
3.24114
3.11848
2.99177
1.78936
1.40849
1.7631
1.8656
1.54605
1.50065
1.5647
-5.27047
-5.03674
-4.79311
-4.63704
-4.53005
-4.62721
-4.91177
-6.42476
-7.33873
-6.91897
-6.20512
-6.97287
-7.0274
-6.17172
-4.92349
-4.52284
-4.68932
-4.57235
-4.48694
-5.20969
-4.8542
-4.95858
-5.46104
-5.35706
-5.07383
-5.18679
-6.09523
-6.55979
-6.21747
-7.47663
-6.89503
-6.61063
-6.41362
-26.7516
-24.0007
-23.2348
-24.0134
-23.8323
-22.9241
-22.2377
-6.36412
10.8873
-13.2642
-19.8333
-7.00439
-30.3194
-26.2818
-9.18246
-12.9277
-19.8049
-14.7554
-13.0498
-14.5284
-16.6001
-17.6459
-11.6401
-0.952481
-23.1749
10.4074
-16.2429
-24.0285
-1.8672
8.56416
-21.9909
-15.7234
-21.844
-18.5803
-34.0501
-21.6038
-11.426
-22.1192
-14.0868
-31.253
-9.51902
-28.0035
7.09276
-7.29008
31.6822
-4.18177
-3.68403
-4.05598
-3.10474
-3.52812
-3.81207
-3.56461
-2.88643
-2.69387
-2.52776
-2.46436
-2.33147
-2.5832
-2.72947
-2.90885
-2.8636
-2.87434
-2.91332
-2.87459
-2.78563
-2.84117
-2.96169
-3.00405
-2.95389
-2.96981
-2.99492
-3.02696
-2.96772
-2.99622
-2.99266
-2.9586
-2.97244
-2.94642
-2.94262
-2.95674
-2.95271
-2.95783
-2.97642
-2.95037
-2.96114
-2.94833
-2.96473
-2.96871
-2.95258
-2.95074
-2.9466
-2.93895
-2.95983
-2.9548
-2.93391
-2.9556
-2.95067
-2.93744
-2.96218
-2.9631
-2.94247
-2.93916
-3.0298
-3.05443
-3.0108
-2.98688
-2.98936
-3.02527
-3.02366
-3.00008
-3.0013
-3.09262
-3.08561
-3.15162
-3.06611
-3.12559
-3.1411
-3.09094
-2.79636
-2.7622
-2.82914
-2.6659
-2.73028
-2.73123
-2.76255
-2.6798
-2.81178
-2.8828
-2.6131
-2.55695
-2.58528
-2.71991
-2.69118
-2.81387
-2.56478
-2.68583
-2.59103
-2.9409
-3.30418
-2.84031
-2.87289
-2.77998
-2.62326
-2.78391
-3.22161
-2.63695
-2.17486
-2.20443
-2.30543
-2.29836
-2.30208
-2.53142
-2.5563
-2.58729
-2.47271
-2.93695
-2.90621
-2.99208
-2.73606
-3.17705
-3.06582
-3.08463
-3.50982
-2.61428
-3.59502
-3.64968
-3.80792
-3.6739
-3.42788
-4.53305
-4.62024
-5.07167
-4.61906
-5.01978
-5.90262
-6.04805
-5.91639
-5.49779
-4.88997
-5.85942
-4.5744
-6.17954
-6.12784
-4.76879
-5.12101
12.3795
9.55212
11.2912
-40.9948
-17.3471
-57.4778
-29.7024
66.5553
-73.8606
65.7254
2.77479
17.2105
-37.9459
-25.2113
-152.983
-100.966
-6.36536
13.5205
-149.536
-33.2157
-137.986
-55.1924
22.8947
163.037
257.466
383.128
292.36
449.445
413.077
488.578
93.3189
271.928
28.4684
452.18
474.066
454.295
446.003
410.009
427.218
53.3828
56.1848
147.566
149.073
119.14
77.8732
95.8196
436.755
137.002
219.018
89.899
74.233
62.4056
39.5826
19.6913
18.7699
44.874
192.749
133.277
116.259
18.8414
23.3558
-4.44585
-14.8332
-30.1772
-9.45853
87.2408
176.051
7.30449
38.2885
70.6572
20.2037
29.4783
85.3186
57.3747
72.7391
130.764
87.835
40.5035
88.2893
46.0069
47.4306
45.1101
6.7017
6.76711
8.42862
8.87923
9.8014
9.4582
6.2647
6.75253
3.11042
5.89786
4.78302
6.76507
6.02522
7.74407
5.33876
4.59298
4.22662
5.16442
6.66804
4.97769
5.68992
4.57458
4.46668
4.48123
4.47098
4.46966
4.53939
4.65732
24.247
5.76653
31.2413
0.141691
20.0192
-1.02208
12.4805
1.45299
-42.9787
7.61618
4.37393
-3.32479
21.2844
-13.1032
4.56753
4.68582
5.18741
4.499
4.62635
4.02984
4.27267
4.41266
4.02901
4.40553
4.3959
4.25312
4.48852
4.71178
4.75486
4.68929
4.19599
4.09612
4.27946
4.68901
4.59579
-2.56485
-2.47009
-2.84069
-2.81081
-2.64303
-2.58548
-2.86221
-4.63032
-4.32127
-4.84772
-4.83274
-3.95683
-4.17806
-4.84284
-5.65503
-7.29264
-5.2927
-7.69671
-6.15328
-8.10845
-6.85278
-12.3618
-12.0393
-9.38837
-14.8372
-12.3335
-11.152
-13.6314
-16.9958
-13.8379
-15.9482
-12.4326
-13.0653
-17.3483
-17.9383
-20.0141
-21.7889
-20.2905
-18.888
-19.3485
-15.4502
-15.6957
-16.5734
-17.58
-9.18959
-12.2129
-26.2197
-12.1553
-64.4132
-36.8921
-36.7775
-27.8986
-12.2261
-23.7367
-27.0692
-29.3986
-5.31248
-19.2393
-16.5862
-4.72286
-3.96783
-17.1087
-23.769
-22.0003
-15.4993
-39.574
-29.2403
-47.9228
-14.0521
-35.1098
-12.618
-28.6644
-22.2319
-21.8654
-18.5417
1.53195
-8.73155
-15.4203
11.0185
-15.7011
-32.4701
-8.46144
-8.33821
-12.9377
-7.63522
-8.71097
-8.9672
-13.4961
-5.1915
-6.85295
-5.03222
-5.37488
-5.35675
-4.33671
-4.67882
-4.88266
-5.73444
-4.83082
-5.1439
-5.36793
-4.48716
-4.74564
-5.04594
-4.47213
-4.6456
-4.98742
-4.89089
-4.00054
-4.19622
-4.34343
-4.02915
-4.22492
-4.1339
-3.87682
-3.1697
-3.13456
-3.11735
-3.17963
-3.25662
-3.00791
-3.02531
-3.01625
-3.01503
-3.02813
-3.01781
-3.03351
-3.23666
-3.17735
-3.16939
-3.15135
-3.15909
-3.18969
-3.2225
-3.02694
-3.01932
-3.02923
-3.03576
-3.0145
-3.02784
-3.04273
-2.94232
-2.97094
-2.95867
-2.93615
-2.94155
-2.93895
-2.96405
-2.95511
-2.95343
-2.9869
-2.94147
-2.94622
-2.96195
-2.93779
-2.91685
-2.91362
-2.93383
-2.91697
-2.94596
-2.93049
-2.95061
-2.94375
-2.9497
-2.93772
-2.93542
-2.92726
-2.9125
-2.94765
-2.92426
-2.93605
-2.95419
-2.93411
-2.96396
-2.91713
-2.91384
-2.93946
-2.92736
-2.90284
-2.9239
-2.9013
-2.90189
-2.92394
-2.93226
-2.90781
-2.9449
-2.95552
-2.93925
-2.97264
-2.95472
-2.92815
-2.95138
-3.00585
-2.92711
-2.92366
-2.93386
-2.91199
-2.94616
-2.96279
-2.30124
-2.05716
-2.12194
-2.41101
-2.53636
-2.39341
-2.26577
-2.05729
-1.96123
-1.88604
-2.06657
-1.93118
-2.11065
-1.93141
-2.4817
-2.50109
-2.56378
-2.51679
-2.63291
-2.49456
-2.57651
-3.13128
-3.17345
-2.83347
-3.6434
-3.25991
-3.44076
-3.28453
-3.16116
-3.4375
-3.11931
-3.4564
-3.37517
-3.30255
-3.21553
-3.32016
-3.45913
-4.14592
-4.08082
-4.06203
-4.63217
-4.16722
-4.72656
-4.78538
-3.57645
-3.44155
-3.58437
-3.69543
-3.60619
-3.68112
-3.80553
-3.59622
-3.7453
-4.19949
-3.91752
-3.84749
-4.29108
-4.93111
-4.18851
-4.56359
-4.05891
-3.85669
-3.49354
-4.02632
-3.83534
-4.18066
-4.12463
-3.43304
-3.56067
-3.37393
-3.51932
-3.32034
-2.99146
-2.91161
-3.18496
-3.09274
-2.77976
-2.71924
-2.80003
-2.62676
-2.45959
-2.60598
-2.69566
-1.52647
-1.746
-1.0729
-1.2122
-1.66378
-1.65993
-1.36156
-1.99347
-0.935374
0.855196
-1.10515
-0.873635
-0.213465
-0.675882
8.63457
1.32759
3.30356
4.57127
8.27688
7.38764
3.59247
-79.3566
24.9216
-83.1339
-66.9219
-109.785
-51.4307
-7.1104
211.404
235.189
229.818
-223.532
104.51
136.078
-71.3783
-54.133
38.0018
-79.1963
-22.8778
-40.378
-63.1076
7.29231
-0.150733
13.3964
-18.4631
-42.727
-20.9384
-15.6474
-12.1769
-34.0484
-29.9492
-60.0579
-136.714
-101.285
7.09942
8.58852
7.81561
7.67474
6.60919
5.85754
6.58069
73.2734
95.6467
22.3965
56.5036
15.0259
8.72988
58.8341
104.829
73.8554
26.855
78.7267
118.402
143.518
61.154
42.5049
79.1704
134.978
105.427
61.6954
56.9308
29.728
38.5628
10.3016
27.9109
37.92
39.8304
19.4942
21.931
7.52959
9.08179
8.56734
11.397
5.9679
8.15947
7.45244
7.43455
7.45565
7.3012
7.31841
7.31906
7.24024
9.65238
7.99776
16.0135
7.71021
10.7151
10.2339
5.43332
8.75954
5.39765
1.71854
3.81648
1.79731
1.61469
3.53988
4.15723
-0.12292
6.37127
6.80515
7.14706
7.2664
7.00434
7.40915
7.17921
7.3821
7.4182
6.49997
6.30252
6.5269
6.59918
6.41137
6.62994
6.83799
6.54881
6.76301
5.83742
5.84672
6.0856
6.00263
5.96879
6.20302
6.16061
-2.06609
-3.00909
-0.996068
-3.12576
-2.30679
-1.08363
-0.897256
-0.801976
-2.08407
-0.492267
-2.61827
-1.96396
0.766676
0.015478
-28.6154
-35.3119
-0.827618
14.2171
-75.3182
-7.61313
-17.5035
-16.8664
20.628
26.5327
18.4908
-22.2837
5.05415
-19.2186
43.4963
22.5795
22.107
2.97535
-86.1645
-63.6814
-1.91491
11.5395
-40.5877
-32.8981
-32.2668
39.1426
-68.769
25.4433
15.7128
-30.9709
-34.7163
-28.6392
4.29779
-22.5323
-30.7791
-35.1065
-22.5148
-14.4681
-18.6874
-16.598
-15.9748
-17.8745
-9.36153
-13.6856
-12.5029
-11.0727
-7.91839
-12.1905
-10.7563
-9.78781
-9.75283
-12.8838
-16.381
-17.6492
-16.1901
-15.7101
-7.27022
-6.67579
-7.78557
-7.26486
-8.57847
-8.42303
-7.88631
-4.78744
-5.21947
-5.36249
-5.59479
-5.97158
-5.36129
-5.27625
-3.57851
-3.4935
-3.55543
-3.63198
-3.55726
-3.69265
-3.5772
-2.92972
-2.87845
-2.91433
-2.83936
-2.86357
-2.89956
-2.87634
-2.92777
-2.90568
-2.92156
-2.96066
-2.92732
-2.9518
-2.93683
-2.96688
-2.94769
-2.89816
-2.94891
-2.95784
-2.93969
-2.93078
-2.94071
-2.94153
-2.91888
-2.92714
-2.92759
-2.92464
-2.93766
-2.919
-2.9215
-2.86936
-3.16947
-2.78009
-2.87131
-2.85448
-2.73736
-3.14863
-2.83683
-2.87736
-3.27388
-3.9459
-4.99499
-4.39831
-4.23831
-4.59075
-4.96878
-5.25622
35.9342
-13.6987
-31.9932
-29.2731
-17.7883
-49.6027
-4.11611
-4.83944
-4.95464
-6.96485
-5.85351
-4.68783
0.204076
-7.35501
-5.31952
-5.86721
-4.07716
-5.89999
-2.87146
-6.75531
-3.55627
-3.05425
-3.33233
-3.10019
-2.99412
-2.99531
-3.16658
-2.72706
-2.64041
-2.65723
-2.97729
-3.56222
-2.69988
-2.77329
-2.85708
-2.97441
-2.79156
-2.85234
-2.8593
-2.76941
-2.77162
-2.79475
-2.80933
-2.79778
-2.85496
-2.83126
-2.79416
-2.80216
-2.82664
-2.81302
-4.05708
-3.59226
-3.76239
-3.78446
-3.42284
-3.62258
-4.03116
-3.38875
-3.52874
-3.22637
-3.40316
-3.40702
-3.25686
-3.08503
-2.65371
-2.80731
-2.89545
-2.74232
-2.69175
-2.91042
-2.96131
-3.62853
-3.33204
-4.60625
-4.37383
-3.33147
-3.8257
-5.65449
-2.42483
-2.55841
-2.2748
-2.4702
-2.47588
-2.32697
-2.37987
-14.1659
22.4568
3.02604
-0.443948
-11.6243
1.57459
8.07191
-2.633
-15.413
-4.6515
12.6535
-11.912
-2.30211
1.21155
-45.1514
-23.2711
-47.7222
10.4006
16.5593
43.1538
-9.90826
-13.4721
-78.9958
-104.951
52.8095
-11.828
29.3344
76.2456
-54.0544
18.2766
44.4494
-176.192
-6.29066
41.2124
128.306
21.9376
20.0812
65.1419
-98.7802
3.74496
1.97779
0.578175
-0.62489
4.81651
8.13605
3.7065
0.930791
130.55
-136.121
92.6246
95.4338
8.3538
112.778
24.7031
16.5753
14.5693
12.7983
13.8629
7.03242
-2.46581
4.81383
4.58719
4.73468
4.68703
4.88275
4.71377
4.88166
4.6596
4.84685
4.6455
4.53042
4.60612
4.77812
4.68119
2.33042
-1.26711
10.5935
6.06671
4.36434
1.73518
4.54152
-14.2338
1.16986
4.60301
0.0305055
-15.2828
6.16514
23.0915
1145.95
661.303
1316.8
530.345
692.92
617.896
990.296
-4.61388
-231.116
-30.7287
132.771
205.832
116.97
2.82956
2.92536
3.30933
3.12762
3.06418
3.47082
3.42746
3.5838
3.39709
3.96594
3.76203
3.73982
4.04305
4.60513
4.58516
5.28739
4.98942
6.01089
4.73831
4.86505
5.48287
-17.4503
5.63435
-23.23
-85.0477
-36.9899
5.98586
-51.1822
24.3589
106.611
119.154
12.5928
48.8929
15.8491
36.5041
43.3382
-15.2698
30.931
5.19336
2.89946
3.99162
6.00807
5.22654
3.95154
3.70971
3.0937
0.881367
1.80532
3.29316
3.51796
1.27072
1.81408
-0.529373
-0.112784
0.655252
0.922949
0.774493
-0.337259
-0.976864
0.718838
0.820015
1.40528
0.0836007
0.432286
0.454442
0.865055
-6.42902
-6.35072
-6.50157
-6.05645
-6.8667
-6.88608
-6.43441
-5.29987
-4.69147
-4.01456
-5.53149
-4.8561
-3.86721
-3.88604
-2.42404
-2.68627
-2.92662
-3.49784
-2.76607
-1.49409
-1.30682
-2.07393
-1.69693
-1.26013
-1.4005
-1.86815
84.4096
-9.51587
27.506
8.93468
-4.83127
-5.80321
1.729
-4.23008
-6.38547
-5.86144
-3.95073
-3.57214
-5.27541
-4.98388
-3.40107
-3.46859
-3.46065
-3.04679
-2.97589
-2.76508
-2.66627
-3.25421
-3.32056
-3.29545
-3.01346
-2.96761
-2.98876
-2.97436
-3.00311
-2.97867
-2.98859
-3.01516
-2.95146
-2.99528
-2.93265
-2.9629
-2.94602
-2.94011
-2.96361
-2.98441
-2.94859
-2.94074
-2.93534
-2.95958
-2.94773
-2.9449
-2.9467
-2.86039
-2.86311
-2.87326
-2.86793
-2.86854
-2.88235
-2.88384
-2.74049
-2.74367
-2.67978
-2.71604
-2.76389
-2.73817
-2.70861
-2.40404
-2.40043
-2.36247
-2.33687
-2.42239
-2.39492
-2.28783
-1.87206
-1.963
-1.72651
-1.88146
-2.04703
-1.99075
-1.86079
-1.83762
-1.49397
-1.43965
-1.23634
-1.09079
-1.16984
-1.22813
-1.42919
-1.78446
-1.16371
-2.42734
-1.86028
-1.67929
-2.12889
-1.68726
-1.7957
-6.87696
1.33214
-11.3991
-5.15446
-3.629
1.10962
3.50976
-38.4194
-4.64379
-4.64683
4.88071
10.4874
4.68161
-5.26909
1.87505
-14.5918
-3.81672
-22.3308
1.59476
3.42717
0.908899
9.61041
-61.8497
-1.73015
11.6788
-18.1112
-2.77389
-26.2069
-17.9113
-9.60192
-50.9033
-3.25696
-0.157179
9.89199
65.0386
-102.682
-1.92017
-2.06103
-3.11025
-2.24871
-1.81181
-2.34583
-2.0804
-1.36786
-1.46266
-1.4782
-1.37694
-2.60574
-1.14352
-1.55092
3.18343
3.16635
2.93334
3.16671
3.40856
4.26087
4.01882
4.0306
4.01109
3.61419
3.88084
4.07411
3.53816
3.69245
3.74874
3.99675
3.86876
3.84424
3.71854
3.80497
3.96773
4.04253
3.73233
3.57439
4.36955
4.39768
4.44946
4.62556
4.69696
4.54383
4.55039
4.22077
4.53108
4.54662
4.12316
4.37966
4.09326
4.32012
8.39016
8.84866
7.99259
6.85938
6.98738
5.81329
6.07005
590.292
321.701
520.883
3457.64
1413.9
2429.65
2421.27
1730.44
3425.24
2420.89
2441.65
486.105
2584.04
1929.38
2540.32
2745.69
1031.98
445.713
417.796
352.456
440.794
-377.05
212.325
924.701
4488.52
2840.35
136.5
-55.3251
43.4524
42.5219
42.2707
35.2123
42.4813
107.149
47.3432
-47.9514
5.07887
5.71851
5.20601
5.01658
4.98024
4.71061
4.67256
4.99418
5.10326
5.13035
5.24049
5.3447
5.30474
5.18307
4.33589
4.27177
4.5895
4.65006
4.40114
4.42953
4.66969
-1.47835
-0.0496789
-2.70415
-0.43736
2.02212
-0.772438
0.31896
-2.51732
-4.01052
-3.18534
-1.58917
-2.84716
-1.35178
-2.75562
-1.02283
-2.08775
-1.25163
-2.42045
-0.56091
0.152874
-0.439973
-0.813841
-0.354459
0.34747
-1.33371
-0.564642
-1.04206
-2.00725
-2.95565
-2.51655
-3.20766
-2.68666
-2.75603
-3.30972
-3.1418
-3.01294
-2.73632
-2.83156
-2.82317
-2.82301
-2.79178
-2.60132
-2.7908
-2.81466
-2.96129
-2.90066
-3.01055
-2.92083
-2.97313
-3.07463
-3.01954
-2.889
-2.87844
-2.90329
-2.85326
-2.84691
-2.87397
-2.88331
-2.92963
-2.92866
-2.93816
-2.94978
-2.94317
-2.93906
-2.94892
-2.9434
-2.9415
-2.92549
-2.95822
-2.94398
-2.93952
-2.92942
-2.96525
-2.94477
-2.95044
-2.94628
-2.95346
-2.95058
-2.94459
-2.95176
-3.00349
-2.97159
-2.98502
-2.98337
-3.40409
-3.31791
-3.46966
-3.45178
-3.36008
-3.4777
-3.63937
-3.44886
-3.57857
-1.69084
-3.11445
-2.30138
-2.341
-2.91258
-2.27996
-1.70986
-4.43194
-2.1653
-3.08989
-1.58112
-2.71329
-5.12692
-2.70925
3.28081
11.7703
-2.92459
-15.4121
4.85795
-42.5395
-6.52278
-19.5314
15.2289
7.33739
18.3711
4.78857
4.3153
-9.84586
-42.3231
11.3826
-3.31694
-3.25494
-3.6827
-6.13463
-1.19307
-4.78947
-18.8175
5.00831
5.2104
-23.0466
-2.92685
-2.75675
-2.84455
-3.09532
-3.0016
-2.84291
-3.07444
-3.29074
-3.48418
-2.92225
-3.05505
-3.31351
-2.54484
-2.87111
-1.51886
-1.50084
-1.51851
-1.72446
-2.11771
-1.90085
-1.74683
-1.79919
-1.93241
-1.39011
-0.960732
-1.57405
-1.45981
-1.01021
1.68828
0.401185
0.748825
0.455416
-0.385535
1.04841
0.304488
2.09008
2.09405
2.33439
2.08704
1.93333
1.97549
2.17671
1.15453
0.975979
1.2225
1.46025
0.521832
0.707437
0.772352
2.02821
2.05941
1.88281
1.51384
1.69329
1.81711
1.84519
2.0394
2.06949
1.52014
1.93088
2.32336
3.05731
3.09964
3.30663
3.12653
2.94754
3.29568
3.07516
3.00509
3.00689
3.37756
3.01695
2.87864
3.01373
3.2979
1821.17
815.687
622.462
411.805
375.287
1017.36
-202.741
127.958
-220.241
24.5133
-793.174
91.7248
860.915
157.613
206.085
-520.415
-103.846
258.679
122.674
-397.553
62.7709
-222.31
61.535
-204.354
-155.535
-30.4555
2.38318
9.10659
6.18957
29.8458
19.5819
19.2703
19.973
210.151
78.2821
112.657
94.069
141.525
26.1883
121.065
143.088
140.481
8.13065
16.3118
102.406
93.3318
77.3702
204.221
163.739
111.148
-102.741
49.9165
90.5666
10.18
9.90982
16.0713
19.4672
24.4291
10.5411
12.4203
7.70111
7.58209
7.79824
8.18873
5.87841
9.71981
7.42257
7.96973
7.17297
-1.6099
-1.5289
-1.67691
-1.57285
-1.59366
-1.45255
-1.49818
-1.59123
-1.70699
-1.59674
-1.63822
-1.73143
-1.58912
-1.70147
-2.85756
-2.86457
-2.87426
-2.85358
-2.82521
-2.86404
-2.8694
-2.96718
-2.96981
-2.94399
-3.0327
-2.9984
-2.97974
-3.043
-3.07526
-3.03496
-3.00448
-3.02513
-2.96452
-3.00635
-3.04321
-3.05341
-3.01101
-2.95739
-2.98658
-3.01437
-3.01032
-2.95325
-2.9793
-2.95448
-2.99018
-2.97247
-3.02054
-3.02462
-3.04758
-3.03598
-3.00072
-3.02177
-3.04053
-3.16916
-2.98443
-3.11117
-3.12668
-3.04412
-3.12113
-3.14384
-3.2991
-3.32248
-3.09102
-3.34531
-3.45834
-3.28079
-6.05084
-6.42231
-5.69601
-5.13978
-5.46472
-5.69985
-5.26309
3.86323
-8.34563
-4.98446
4.16068
-2.69002
-4.75128
7.5406
-15.8646
-5.56379
0.778749
-4.16509
-2.18817
-18.2875
-27.4903
4.33228
7.22676
-24.8417
-1.74748
-0.428696
-3.87167
-2.47304
-4.80575
-0.142793
-1.09002
-3.62371
-2.80042
-2.7527
-2.51691
-2.50647
-2.666
-2.93044
-2.45296
-2.69618
-2.41838
-2.3299
-2.10223
-2.55396
-2.30329
-3.13658
-2.91546
-3.05182
-3.663
-3.10788
-2.8065
-3.35
-3.18004
-3.02005
-3.25917
-2.99182
-3.27844
-3.22944
-3.022
-6.85624
-4.81964
-4.51664
-4.14973
-4.24981
-4.83006
-5.42286
-4.12417
-4.9771
-4.98866
-3.43312
-3.92194
-4.93779
-4.56887
-5.19561
-4.04484
-4.57175
-4.47483
-4.81727
-5.73993
-5.13437
-8.09909
-6.76251
-7.35542
-8.15854
-7.1063
-6.91703
-7.67775
-5.84072
-5.16504
-5.55506
-4.58649
-5.19741
-3.39979
-3.6438
-3.41467
-3.1471
-3.546
-3.29992
-3.4448
-3.40996
-3.39944
-4.16452
-3.13292
-3.82066
-3.64041
-3.8085
-4.24645
-3.9202
-3.71452
-4.04106
-2.94024
-3.22327
-2.47628
-1.75821
-2.04309
-1.78858
-1.89082
0.233657
0.761209
0.0999676
1.15773
0.69253
0.18358
0.503759
1.84262
1.51504
1.71261
1.28486
1.29302
1.66133
1.63604
1.19759
1.74849
1.33851
1.55284
1.50367
1.25578
1.35596
1.27252
1.41237
1.58099
1.61394
1.5368
1.44529
1.50152
29.3756
25.8409
4.62419
9.77528
21.471
11.3253
3.66797
-407.282
-13.4762
-120.709
104.565
-61.3537
16.8969
46.861
-52.5475
158.681
79.431
278.161
54.7321
66.4268
63.8609
-221.2
7.70199
-140.911
91.3118
28.5464
99.8125
117.205
183.809
92.2091
100.714
9.28578
-77.1093
-14.6808
-30.4518
-14.3145
-5.39693
-5.17933
-96.9749
-56.4713
39.8912
9.44411
10.4341
11.8568
7.47374
9.32867
9.19526
11.066
9.34151
8.82091
9.7814
9.41017
9.06281
9.08246
8.91691
9.48764
9.11561
9.46598
9.66667
9.24568
9.48514
9.67859
9.42553
9.46712
5.79583
8.15284
7.64453
7.10472
7.42892
8.77099
7.78604
7.86031
8.45675
6.30088
6.4618
5.17139
9.90088
7.8226
6.37961
8.93377
37.393
70.2288
37.5852
58.1839
47.2072
15.4924
85.4681
105.101
64.7151
125.584
76.3379
48.0519
32.615
74.2905
142.432
116.758
142.836
127.002
136.956
141.479
130.472
130.948
117.055
119.073
109.299
114.768
115.907
111.869
156.755
191.154
124.612
195.396
212.223
195.625
186.145
158.737
201.956
210.611
240.227
209.618
156.584
246.165
266.473
213.633
201.005
221.923
200.8
102.811
174.813
215.982
173.012
121.862
116.188
113.626
128.361
81.8503
110.946
113.733
105.407
133.695
128.763
110.804
130.714
132.042
134.967
126.507
90.0347
104.522
95.5778
115.242
88.2192
103.446
97.1603
586.099
673.132
544.476
197.68
471.887
606.845
350.907
1638.81
1671.38
1664.98
997.161
1447.37
1479.71
1281.82
1292.77
1366.73
1359.49
1274.26
676.883
1116.21
1173.32
1307.67
1397.08
1560.25
1483.75
1500.79
1478.81
30.3659
-2.9273
45.9552
36.677
66.1291
40.0038
42.4207
20.6741
7.88196
2.65849
13.6271
13.1559
10.104
8.2335
47.0335
10.2018
3.61623
-0.759931
-30.1173
4.59424
10.0115
6.45997
5.9387
6.22835
6.21873
6.17651
5.88457
6.1337
5.91221
5.90025
5.68901
5.81612
5.87912
5.71562
5.5641
4.02147
3.64928
4.66564
5.38592
5.52806
4.04085
4.14281
5.42046
5.14759
3.12059
3.07411
2.162
3.40783
3.67168
3.62898
3.08937
18.3778
21.4339
-4.78294
1.11208
-27.0994
3.60152
8.0374
-2.4959
-2.95744
0.957939
5.50336
-18.9206
12.9974
-1.88001
7.42855
3.37905
-9.5801
9.58823
-9.5136
5.51075
-0.756514
1.41986
5.23924
0.960696
-0.532392
-0.626664
-0.316996
-0.795103
-1.54442
-0.433597
-0.877497
-1.26069
-1.25208
-2.02032
-2.34576
-2.29148
-1.87426
-1.91784
-2.18991
-2.14576
-2.39436
-2.36659
-2.5779
-2.4496
-2.31374
-3.52881
-3.36601
-3.57534
-3.12939
-3.37876
-3.32367
-3.14393
-2.8233
-2.87069
-2.89087
-2.76017
-2.83005
-2.89249
-2.83159
-2.8498
-2.84259
-2.80601
-2.86301
-2.8578
-2.74731
-2.81446
-3.08835
-3.15032
-3.05581
-2.99404
-2.98053
-3.0571
-3.0675
-3.47107
-3.37711
-3.30972
-3.64854
-3.50957
-4.05554
-3.98765
-3.73374
-4.06278
-4.37432
-4.16355
-3.89036
-3.34968
-3.33669
-3.5432
-3.81631
-3.59523
-3.54142
-3.66145
-3.00165
-3.23354
-3.24149
-3.72255
-4.20133
-3.6785
-3.2933
-3.74202
-3.42406
-3.8918
-4.12223
-3.60321
-3.20039
-3.38617
-3.06522
-3.6695
-3.8669
-4.47747
-4.25048
-3.80171
-3.36251
-3.30729
-4.84764
-6.5578
-10.5417
-12.2454
-10.6433
-14.5573
-12.4899
-9.85518
-10.2987
-3.9064
-15.3584
-0.0449864
-13.1343
-13.3692
-8.20912
-25.3688
-14.2781
-32.6063
-19.2404
-7.00684
0.875502
6.5147
-2.09435
-8.55977
-39.1854
-7.38149
-7.09623
-7.30921
-7.06785
-6.02889
-12.1159
-9.74002
-6.13034
-6.2314
-24.4515
-11.1516
-14.0017
-8.75559
-8.69799
-10.7119
-18.6971
-1.14156
-1.54725
-1.5328
-1.79387
-1.56497
-1.42441
-1.68374
-1.08369
-1.33548
-1.2593
-1.65013
-1.58012
-1.62315
-1.42781
-1.72531
-2.19204
-2.09992
-1.96056
-2.16472
-1.81716
-1.73746
-1.24363
-1.01622
-1.20393
-0.989103
-2.07203
-2.20685
-2.42925
-3.78483
-1.68322
-4.85455
-2.32105
-1.55755
-2.83133
-4.07488
-3.94744
-3.08765
-2.06624
-2.48311
-3.16336
-9.21356
-8.08741
-9.25852
-10.7257
-11.0716
-12.8646
-13.8848
-3.99484
-4.11228
-4.7491
-3.76748
-3.95488
-3.85569
-6.37944
-5.80198
-5.81449
-7.12627
-7.09296
-6.21088
-4.42947
-4.21759
-4.54549
-5.32268
-5.4136
-4.84881
-4.66141
-3.59764
-3.55035
-3.78185
-3.3433
-3.46316
-3.3775
-3.42415
-2.76378
-2.9728
-2.60564
-2.57517
-2.66649
-2.63299
-2.63013
-2.80162
-2.76369
-3.43893
-3.09075
-3.10512
-3.04206
-3.04573
-2.91362
-3.05237
-2.19801
-2.27591
-2.38609
-1.83321
-2.04567
-2.75836
-2.55782
-2.99359
-2.53635
-2.58942
-2.74792
-2.6504
-1.57822
-1.62845
-1.40903
-1.5097
-1.70433
-1.5112
-1.28468
-0.214804
-0.432721
-1.07325
-1.38099
-1.67988
-0.490935
-0.508853
0.184297
0.106956
0.108039
0.36287
0.383465
0.297346
0.381966
1.11159
0.670483
0.410168
0.49721
0.789098
0.782215
1.29477
0.509252
0.733574
0.830075
0.822893
0.676158
1.04498
0.862034
0.886716
0.843009
0.743213
0.815858
0.438189
0.820351
1.36259
1.22404
1.47935
1.28668
1.45803
1.39309
20.1968
12.075
20.8687
1.21325
4.44255
3.20525
0.0938327
127.68
-37.1128
-5.44044
217.777
-27.3905
125.988
-146.127
8.41914
-102.446
22.2252
-154.428
79.5771
-31.7863
146.87
49.1521
86.4173
309.636
166.485
78.29
67.0277
83.8021
1.75747
231.362
60.5755
72.7175
65.3603
122.676
149.225
148.526
137.192
140.759
164.295
145.902
148.252
174.725
219.268
169.794
145.954
172.501
156.167
125.468
139.672
124.719
137.802
132.335
238.06
174.892
172.552
144.704
125.98
136.852
153.602
127.161
125.446
139.673
194.854
218.388
210.297
169.104
154.163
165.657
170.636
138.586
112.679
107.309
118.73
139.643
115.958
181.051
202.048
181.771
625.284
591.584
707.731
163.851
10.4807
310.03
333.164
296.941
469.109
637.565
480.546
261.116
641.191
325.583
430.26
866.258
685.607
696.57
1120.4
733.983
142.379
125.316
254.714
318.457
43.0912
88.3308
257.632
376.719
86.1978
167.23
156.462
441.707
300.468
89.0634
141.485
225.864
79.132