/*--------------------------------*- C++ -*----------------------------------*\
| =========                 |                                                 |
| \\      /  F ield         | OpenFOAM: The Open Source CFD Toolbox           |
|  \\    /   O peration     | Version:  v2012                                 |
|   \\  /    A nd           | Website:  www.openfoam.com                      |
|    \\/     M anipulation  |                                                 |
\*---------------------------------------------------------------------------*/
FoamFile
{
    version     2.0;
    format      ascii;
    class       surfaceScalarField;
    location    "0.3";
    object      phi;
}
// * * * * * * * * * * * * * * * * * * * * * * * * * * * * * * * * * * * * * //

dimensions      [0 3 -1 0 0 0 0];
oriented        oriented;


internalField   nonuniform List<scalar> 
13152
(
1.02064e-06
2.03204e-05
-1.69742e-06
-1.96437e-05
1.87475e-05
-1.7086e-05
-6.40908e-07
-3.46499e-06
4.2533e-05
-3.46453e-05
3.5431e-05
-2.48319e-06
2.12139e-05
-7.55029e-05
2.85346e-05
-2.44067e-05
6.05006e-05
-1.60921e-05
-2.95463e-05
-2.84457e-05
7.40842e-05
3.86832e-07
-1.67669e-05
2.87936e-07
-2.99233e-05
7.63764e-07
7.8424e-06
5.15517e-06
-2.97645e-05
7.80723e-06
3.23108e-07
-5.08524e-06
-1.55533e-05
-2.98533e-05
-8.6521e-06
-1.46196e-05
-5.13518e-06
2.84069e-05
-7.92177e-08
-8.66359e-06
9.07122e-08
-1.41433e-05
-5.55516e-07
5.67202e-06
-3.05675e-05
1.62319e-05
-2.93091e-05
2.9846e-05
2.93734e-05
-4.91253e-07
3.64175e-08
-1.52666e-05
-2.99181e-05
1.01142e-07
-7.49491e-05
3.3315e-07
1.59894e-05
3.02204e-05
-4.12678e-08
7.46167e-05
3.57726e-05
1.26601e-05
2.54196e-05
-7.38523e-05
3.85998e-07
-7.48238e-07
3.61349e-05
1.24052e-05
2.64744e-07
-1.87389e-05
7.3677e-05
7.78966e-05
2.91607e-05
-7.39308e-07
-2.93936e-05
9.72192e-07
-1.64146e-05
-2.68783e-05
7.24536e-05
1.68085e-07
-1.7322e-05
-8.08096e-06
8.01041e-06
2.38634e-07
5.30581e-06
-3.07087e-05
-4.96809e-06
-1.38998e-05
-2.90559e-05
-1.37969e-05
1.35722e-07
2.91713e-05
2.51149e-07
3.34523e-05
1.27193e-07
-8.22642e-06
-2.5353e-05
-1.84225e-05
2.97151e-06
4.89032e-05
-1.27467e-05
-5.54859e-06
-2.95964e-05
-2.21782e-05
5.47461e-05
-3.92247e-06
-3.39004e-05
4.39861e-06
-3.96125e-06
-1.3184e-05
2.87315e-06
-4.02313e-06
-8.59344e-06
-1.07116e-05
-1.64772e-05
-2.30897e-06
4.73855e-05
-1.9599e-05
-2.54775e-05
6.18175e-05
-3.14738e-05
-3.26527e-05
-8.54153e-05
-0.000117678
1.9153e-05
-3.28303e-06
-4.73438e-05
1.55902e-06
-2.00495e-06
-8.80287e-05
4.17241e-06
-0.000208989
-5.58286e-06
-4.89978e-06
1.95132e-06
8.53132e-06
5.83612e-06
-4.12144e-06
-7.29755e-06
-3.57299e-06
4.50933e-06
9.14742e-06
-1.83139e-05
5.59353e-06
-1.2705e-05
2.63618e-05
-4.85301e-06
-5.90068e-06
-2.72884e-05
-1.59065e-06
-5.10866e-06
-2.28734e-05
2.95727e-05
-7.74939e-06
-8.45931e-06
1.46181e-05
-5.14496e-06
-7.71308e-06
-6.4611e-06
-1.53347e-05
1.33365e-05
-1.07289e-05
-1.86056e-05
4.24491e-07
-2.09041e-05
-1.80175e-05
-5.0865e-05
-3.49067e-05
-8.21453e-06
9.39863e-05
1.57102e-06
-2.71187e-05
-2.53174e-05
2.63685e-07
-3.35994e-05
5.79516e-05
-6.68097e-06
-7.83893e-05
-4.22235e-05
9.19605e-05
-5.27962e-05
1.08364e-05
-9.30766e-05
2.08256e-05
3.4337e-07
-1.99596e-05
-1.20938e-06
-2.5736e-05
-8.30486e-06
5.48664e-05
-1.43306e-05
-1.1062e-05
3.73255e-05
4.82734e-06
-6.21124e-05
3.72621e-05
-1.14591e-06
-4.00245e-05
6.89817e-05
-4.95278e-05
2.45401e-05
6.01296e-06
-8.87557e-06
-2.16775e-05
-6.69886e-07
2.28484e-05
2.36158e-06
6.4107e-06
-1.06763e-06
-1.39129e-06
-6.36519e-07
8.43851e-06
1.14772e-05
-1.39361e-05
-1.32054e-05
3.54173e-05
-1.06037e-05
-2.97313e-05
-6.27082e-05
-7.9847e-06
0.000100424
-1.38509e-05
1.72651e-05
-3.31455e-05
-5.50091e-05
-2.15501e-05
-6.14486e-05
2.85589e-05
5.01548e-05
9.32801e-06
-0.000103922
7.06738e-05
-0.000116355
9.1248e-05
1.44319e-05
2.28849e-06
-1.69993e-05
2.78898e-07
-2.47576e-05
-6.91082e-06
4.61003e-05
5.78584e-06
-2.82549e-05
-1.21008e-05
-4.54108e-05
5.06007e-05
-5.4871e-05
2.57709e-05
-5.81075e-05
1.84825e-05
-0.000141233
1.40066e-05
9.25579e-06
2.15497e-05
-4.48122e-05
-1.14284e-06
4.06302e-06
1.10864e-05
7.45022e-07
7.36792e-06
8.69741e-06
1.69154e-05
3.79814e-06
5.64429e-06
2.22525e-05
-5.50982e-05
5.44848e-05
2.93981e-06
-2.32642e-06
8.57421e-05
5.0466e-05
8.06408e-05
1.07911e-05
0.000129436
5.14073e-06
1.81949e-05
2.71303e-05
2.84103e-05
5.73713e-05
-1.83883e-05
5.75897e-05
2.74643e-06
2.77294e-05
-3.43233e-07
-2.59051e-05
-1.481e-06
-2.63021e-05
-2.86182e-05
8.26497e-05
-9.26991e-07
-2.57184e-05
-2.6607e-05
2.77065e-05
-2.02643e-06
2.65384e-05
-7.88639e-05
-2.69257e-06
1.78085e-06
-2.05928e-06
-1.33128e-05
-0.000232456
8.35958e-05
0.000162173
-0.000149002
5.44677e-05
8.12217e-05
0.00017144
0.000256195
5.44439e-05
2.79479e-06
-2.77098e-06
-2.35886e-05
0.000161628
0.000168763
5.47187e-06
0.000401369
1.23374e-05
1.215e-05
-1.0929e-05
-1.35585e-05
8.35806e-06
-3.7025e-05
4.10044e-05
-1.83133e-05
3.88214e-05
-1.27545e-05
3.50575e-05
-3.32319e-05
2.43432e-05
-5.06562e-05
3.21494e-05
-4.48312e-05
4.88936e-05
-1.43228e-05
-2.31005e-05
-1.23948e-05
4.98181e-05
3.96223e-06
4.78584e-07
-1.87636e-05
-3.62672e-05
1.71289e-05
-3.32364e-05
2.81489e-05
5.56606e-06
1.73885e-05
-6.93884e-05
4.33622e-05
-6.2241e-05
5.91163e-05
-3.00855e-06
2.23324e-06
-1.37768e-05
1.45521e-05
1.23436e-05
-1.37125e-05
-1.63966e-06
-1.87196e-05
3.32965e-05
1.44431e-05
1.80228e-05
-4.61784e-05
1.55804e-05
-2.77692e-06
8.01551e-06
-1.11547e-05
1.22615e-05
3.01439e-05
1.09423e-05
-2.02464e-05
-2.08399e-05
-1.77418e-05
8.02367e-06
3.98621e-05
1.78018e-05
-2.46013e-05
1.04826e-05
-4.25715e-06
-2.64718e-05
-4.37405e-06
2.28803e-05
-6.0446e-05
3.23404e-05
4.59074e-05
-8.09731e-06
-7.695e-05
-1.35772e-05
4.15436e-05
-2.59317e-05
1.38293e-05
9.60779e-06
-1.45489e-05
-8.88821e-06
5.30716e-06
-2.45042e-05
3.30264e-05
-1.52443e-05
3.01593e-05
1.65257e-07
2.51479e-05
1.65534e-05
-2.52764e-05
1.96605e-05
-2.76112e-05
2.9564e-05
3.26284e-05
1.3935e-05
-6.84657e-06
-3.97169e-05
-2.91783e-07
1.92746e-05
1.36456e-05
-3.65474e-06
1.7298e-05
3.42794e-05
1.36633e-06
-4.24923e-05
5.59478e-06
4.79592e-05
4.7969e-05
-1.65525e-05
-3.50712e-05
-1.71847e-06
6.69855e-05
-2.6792e-05
3.06683e-05
-4.19782e-05
1.73083e-06
8.79986e-06
1.38428e-05
-2.43735e-05
1.58641e-05
1.12437e-05
-2.5377e-05
7.51935e-06
1.71446e-05
1.96253e-06
6.9071e-06
4.9732e-06
7.16564e-06
6.04062e-06
1.02207e-05
-2.61534e-05
2.34521e-05
-1.82696e-05
4.56348e-05
-4.09221e-07
-1.09533e-05
-1.9397e-05
-5.1431e-06
-1.73312e-05
8.46641e-06
1.40079e-05
-9.3835e-06
-4.79158e-06
9.03198e-06
4.73919e-06
-3.14539e-05
1.45737e-05
-2.13093e-06
-1.72343e-05
-1.77127e-06
7.6707e-06
-5.06244e-06
1.43658e-05
-2.22686e-06
-2.77671e-05
2.4467e-06
2.75472e-05
-1.80842e-05
2.67624e-05
-1.09051e-05
2.98467e-05
-7.5698e-05
1.76383e-05
-2.65263e-05
1.13348e-05
-3.15314e-05
7.67169e-05
1.53738e-05
-2.01428e-05
1.86942e-05
-2.28761e-05
1.35089e-06
2.39375e-05
-2.41221e-06
3.48569e-05
9.31779e-06
-6.70508e-05
2.811e-05
8.09775e-06
-3.86097e-05
-1.31509e-05
-3.25478e-05
-8.47406e-06
4.19042e-05
-6.51342e-05
5.68633e-05
0.000137558
0.000132695
0.000133647
-0.0004039
-3.28996e-06
0.000129744
1.11042e-05
0.000132282
-2.87712e-06
-0.000143046
-0.000124906
0.000400235
-0.000134919
-1.10047e-05
8.36871e-06
-9.63991e-06
1.32063e-05
-1.10956e-06
-5.24916e-07
-6.6086e-07
2.29534e-06
8.88481e-06
1.65986e-06
-1.16542e-05
1.04421e-05
-2.08224e-06
3.47292e-06
-1.87962e-07
-3.94582e-06
6.46688e-06
-6.98634e-07
3.54274e-06
4.58399e-06
1.37969e-05
3.26222e-06
2.35779e-06
-3.24932e-06
-2.37069e-06
2.98475e-08
-7.13449e-07
8.023e-07
1.58535e-06
5.33807e-06
7.83788e-07
-6.8353e-06
9.46402e-07
1.14235e-06
-5.64475e-06
7.39345e-06
-3.27562e-06
9.22719e-07
-2.19667e-06
-2.78257e-06
4.05652e-06
-3.58249e-06
1.2979e-06
3.20731e-06
3.80528e-06
-9.58444e-06
1.3657e-05
-3.36791e-06
-1.30716e-05
4.79156e-07
-4.29954e-06
6.0766e-06
-3.86217e-06
7.58061e-06
1.04807e-05
9.33813e-06
-2.73994e-05
-3.76753e-06
6.88194e-06
4.4662e-06
2.05022e-05
-1.3789e-05
-7.90929e-06
-6.73397e-06
2.15252e-05
-1.39447e-05
1.05016e-05
-1.86426e-05
3.24108e-05
-2.32491e-05
-1.00974e-05
-1.19687e-05
8.51143e-06
1.35547e-05
-3.61862e-07
2.32909e-05
1.59536e-05
-2.82842e-05
7.34088e-06
-1.69239e-05
1.80944e-05
-1.48524e-05
3.5748e-05
1.36941e-06
-7.69069e-06
-1.06026e-05
-9.27409e-06
-4.20889e-06
-2.16891e-07
1.42337e-05
8.04602e-06
-1.17705e-05
-7.06774e-06
7.69169e-06
1.11465e-05
9.18288e-06
1.23431e-05
2.20041e-05
-1.9889e-05
6.67502e-06
-2.42597e-05
-1.3138e-05
3.09595e-05
1.94607e-05
-3.13773e-05
2.83268e-05
3.72421e-05
-8.79235e-06
-3.66175e-05
8.16777e-06
-5.24293e-05
-9.49314e-06
9.91646e-05
-2.96688e-05
-3.15528e-05
6.70735e-05
7.54977e-06
-0.000111241
5.30852e-05
2.2156e-05
-6.89839e-05
0.000112576
-9.1103e-05
-6.1079e-06
3.63279e-07
5.09775e-06
6.46874e-07
7.03514e-06
8.59568e-07
-1.40026e-05
2.56118e-06
4.83724e-06
-3.48042e-06
6.77568e-06
1.80249e-06
6.7045e-06
-9.32535e-06
2.26591e-06
-1.49689e-05
1.52641e-05
-9.44907e-06
1.65522e-05
3.82303e-06
-1.20874e-05
1.14965e-06
-2.3966e-06
5.64397e-06
2.11643e-06
-5.36379e-06
5.64725e-06
-2.65535e-07
-7.77832e-06
2.01533e-06
9.27589e-06
4.89913e-06
3.20846e-06
-8.37313e-06
1.39982e-05
-6.98267e-06
2.41714e-05
-1.89476e-05
4.74455e-05
-3.50279e-05
-6.40315e-06
-1.00159e-05
5.1447e-05
1.03104e-05
-1.77404e-05
-2.7598e-05
-8.40779e-06
1.23151e-05
1.16508e-05
1.21229e-06
-2.12709e-05
1.20173e-05
1.19486e-05
7.19578e-05
-2.46847e-05
-6.50135e-05
-5.319e-05
0.000115132
1.06407e-05
-3.4113e-05
-3.05321e-05
6.23907e-06
5.17736e-06
-1.91948e-05
-6.10739e-06
-9.30316e-06
-8.63223e-07
3.05189e-05
-1.78311e-05
-1.18246e-05
1.67037e-05
-1.38756e-05
-3.69129e-06
-3.35771e-05
8.07997e-05
6.47286e-06
-1.54378e-07
-2.01941e-05
6.65318e-06
-3.87162e-06
-7.56607e-06
-1.93579e-05
-2.55515e-05
-6.11518e-05
-2.22789e-05
1.96988e-05
6.37319e-05
2.84336e-05
-6.50678e-06
-8.30787e-05
2.91163e-05
-2.29616e-05
5.50914e-05
1.69899e-05
-7.8588e-05
-8.03445e-06
8.28247e-05
-6.25409e-05
8.36228e-05
-6.85126e-05
5.78565e-05
9.78646e-07
-5.61021e-05
-2.73299e-06
-4.3101e-05
-1.23069e-05
0.000113264
-4.28263e-05
7.03963e-07
1.66675e-05
-1.54426e-05
-5.73269e-05
-1.6005e-05
2.03656e-05
5.79308e-05
1.27925e-05
-0.00011355
5.83241e-05
3.10656e-07
-1.71718e-05
5.94909e-05
-1.98219e-05
-2.52829e-05
4.04514e-06
-6.61682e-06
2.78546e-05
5.09794e-05
-3.39522e-06
-7.28671e-05
3.05429e-05
2.44816e-05
4.52653e-05
1.89055e-06
-5.37726e-05
4.26879e-06
6.88511e-05
4.20218e-05
-4.35265e-05
7.68335e-05
-8.06995e-06
-4.00761e-05
2.55027e-05
2.26433e-05
-2.79889e-05
2.81033e-05
-8.18437e-06
1.52364e-05
-8.33014e-05
-4.25691e-05
-2.24574e-05
9.31298e-05
-2.66342e-05
-2.41193e-05
1.5405e-05
-2.68027e-05
1.84503e-05
1.19927e-05
2.93193e-05
2.79662e-05
-6.92782e-05
-6.53099e-06
7.09787e-06
1.14258e-05
4.54316e-05
6.61744e-06
-2.49888e-05
2.54692e-05
-2.90581e-05
4.71013e-05
-1.30714e-05
-3.28102e-05
2.08928e-05
-2.5969e-05
-1.61605e-05
-4.89709e-05
6.84335e-05
-5.38149e-05
-7.17821e-06
8.47884e-06
2.12942e-05
-2.25948e-05
1.21899e-05
1.6454e-05
-3.58221e-05
1.18917e-05
8.77705e-06
-1.43054e-06
7.86347e-06
1.48612e-05
7.51752e-06
7.50594e-06
-1.54011e-06
-1.36634e-05
2.70951e-05
-1.62767e-05
2.35136e-05
8.70152e-07
-9.62934e-06
-4.92973e-06
4.5787e-06
-1.42457e-06
-4.85146e-06
1.69734e-06
-4.42641e-06
-2.46432e-06
1.14694e-05
1.14338e-06
-6.99436e-06
-7.58416e-06
-1.80134e-05
2.31333e-05
-2.42246e-05
1.17889e-05
-2.80598e-05
1.11898e-05
-5.92788e-05
-4.38882e-06
-6.64253e-06
1.28338e-05
-2.50991e-06
-6.02401e-06
4.1451e-06
-8.50556e-06
1.25941e-05
-3.51022e-05
-2.75529e-06
-2.26173e-05
-7.10135e-06
1.76313e-05
8.61371e-06
-3.39863e-05
5.65747e-06
1.9641e-05
-5.13655e-06
-1.65449e-05
-2.6359e-05
4.80404e-05
-1.56598e-05
-5.00069e-05
6.05301e-05
-2.17694e-05
-1.04353e-05
2.29699e-05
2.8035e-05
-7.27743e-05
4.6874e-05
-3.43393e-05
4.03184e-05
-6.22902e-05
6.08333e-05
3.47298e-06
-2.38033e-05
-3.71546e-05
5.7485e-05
-2.76285e-05
-6.04118e-05
9.15133e-05
-2.84345e-05
-2.29973e-05
1.92211e-05
3.96227e-05
-8.72783e-05
6.03167e-05
-6.40929e-05
3.13457e-05
-5.21348e-05
5.45078e-05
-1.11045e-05
5.59177e-06
-1.73004e-05
2.28131e-05
1.18086e-05
-1.03619e-05
-1.25512e-05
-1.9552e-05
3.69523e-05
1.21061e-09
1.31587e-05
-2.35218e-05
1.67013e-05
-2.92513e-05
3.32393e-07
7.02215e-06
5.80415e-06
8.24961e-06
8.78411e-06
-1.33711e-06
-9.9653e-06
-1.16153e-05
-2.72541e-05
2.48798e-06
2.85289e-05
-3.76283e-06
3.07137e-05
3.17608e-05
-8.97286e-05
4.24025e-06
2.89614e-05
2.05447e-05
-3.12141e-05
1.49097e-05
-3.55224e-05
8.50285e-05
-7.40251e-06
7.94922e-06
-1.4396e-05
2.93577e-05
3.68724e-05
1.2277e-05
-7.85072e-05
-3.30795e-06
5.807e-07
3.2085e-05
3.88697e-05
-5.30524e-06
4.50864e-05
-4.42143e-05
-2.91428e-07
-1.04481e-05
8.76195e-05
1.20408e-05
-1.15257e-05
-4.47294e-05
-1.18294e-05
1.34221e-05
-1.05407e-05
3.7581e-05
-9.78934e-06
2.51205e-05
1.50745e-06
-2.52401e-05
-1.3878e-06
-2.67516e-05
-2.5637e-05
7.7509e-05
-2.70592e-05
1.81504e-06
2.21315e-05
3.00301e-05
-7.74017e-05
2.5431e-05
-4.68734e-06
2.98711e-06
-3.19305e-06
5.95798e-06
1.33281e-06
-3.97585e-05
-1.72212e-06
4.01479e-05
-4.13817e-05
3.90087e-05
3.7058e-06
3.76029e-05
-0.000118743
4.32012e-05
-3.97264e-05
-5.19691e-06
-3.81214e-05
0.00012147
-3.22733e-06
4.11468e-06
-5.35081e-06
6.3677e-06
9.09945e-06
-8.31271e-06
-7.15444e-06
5.3798e-06
-2.06204e-05
2.16083e-05
-1.13642e-05
2.58435e-05
4.27623e-06
1.18395e-05
-2.44285e-05
2.05588e-05
-2.3437e-05
1.54158e-05
-2.41967e-05
2.46105e-05
2.37381e-05
1.05061e-05
-3.69614e-06
-3.0548e-05
-7.57545e-06
8.93638e-06
2.23772e-05
-7.93703e-06
1.08677e-05
-2.06524e-05
-2.89287e-06
3.24816e-05
6.8764e-06
-3.12249e-05
2.41299e-05
-2.51906e-05
3.21047e-05
1.03701e-05
1.04468e-05
-1.24411e-05
-8.3757e-06
4.07453e-06
-2.43778e-05
3.06734e-05
-1.49542e-05
2.94755e-05
7.86799e-07
2.5335e-05
-3.85629e-05
1.57201e-05
-2.3309e-05
1.57178e-05
-2.43755e-05
2.60985e-05
4.97838e-05
-7.50989e-06
-6.65086e-05
2.42346e-05
-4.92075e-05
-2.57489e-05
0.00012474
-4.65446e-06
-5.20629e-05
1.55225e-05
-2.19549e-05
-6.00761e-05
-2.19667e-05
1.17403e-05
-6.32565e-05
7.26481e-05
-1.40461e-05
2.47341e-05
-0.000140053
-1.73462e-05
6.80276e-05
-1.45671e-05
8.332e-05
-4.87139e-06
-8.13021e-05
2.85346e-06
-6.49457e-05
-3.36646e-05
0.00018193
-3.68982e-06
-6.61273e-05
-9.98518e-05
0.000108665
-1.25033e-05
3.48117e-05
-0.000200791
-0.00012285
0.00019785
-0.00016934
-5.48354e-05
-3.2662e-07
5.40786e-07
5.46213e-05
0.00011236
0.000109123
-0.000276318
0.000106775
5.25889e-06
3.00357e-05
-3.0282e-05
7.87094e-07
-1.80001e-05
0.000102657
2.21669e-05
5.66739e-05
0.000110941
7.89419e-06
9.14722e-05
-4.4661e-06
-9.49003e-05
7.94617e-05
-9.2794e-05
2.12265e-05
-9.81476e-05
0.000269082
-9.09945e-05
9.17873e-05
0.00010035
-0.000286245
-7.97117e-06
1.55271e-05
-1.43315e-05
-9.64101e-07
-5.58992e-05
-1.86754e-07
5.70501e-05
-9.66568e-05
9.80539e-05
-2.36126e-06
9.23543e-05
-0.00024491
2.54828e-05
-2.57673e-05
9.77845e-08
-1.74035e-05
9.99363e-05
-1.68835e-05
9.7534e-05
4.97034e-05
2.87121e-05
6.15214e-05
1.91768e-05
-0.00010941
7.16665e-07
2.70346e-05
9.60843e-07
5.95961e-05
2.64198e-06
1.71392e-05
0.000100238
-9.82001e-05
8.78685e-05
-4.36947e-05
-9.74456e-05
5.43413e-06
-4.71308e-05
-0.000101912
0.00024898
2.67043e-06
-1.70802e-06
-9.13093e-07
-0.000103671
6.38354e-06
-4.3647e-05
-0.000256728
-3.97312e-05
-4.98384e-05
-1.33424e-05
0.000102912
-8.37156e-06
-4.45248e-05
1.31651e-05
-1.34297e-05
-4.47803e-05
5.63933e-05
-7.05589e-05
-3.03591e-05
-8.9375e-05
0.000132426
-5.62386e-05
-4.65661e-05
-0.000171578
9.35085e-06
5.9855e-05
-5.97068e-05
-9.49911e-06
1.88153e-05
-2.65887e-05
1.71242e-05
-3.76174e-05
0.000116288
6.72983e-05
9.70344e-05
-0.000224039
8.84828e-05
-3.06836e-05
-2.05064e-05
9.09521e-05
6.39899e-05
-8.17058e-05
3.48401e-05
2.24114e-05
-2.14887e-05
1.18542e-05
1.30678e-05
-3.43321e-06
5.05708e-05
2.32801e-05
-9.53396e-05
3.78123e-05
2.46127e-05
-7.83627e-06
2.82562e-06
1.80784e-05
-8.16715e-06
-3.10233e-06
-5.25194e-06
-7.33847e-06
1.5416e-05
-1.6937e-05
3.51785e-06
2.11931e-05
-1.48499e-05
5.16669e-05
-2.53326e-05
-2.40009e-05
-1.82878e-05
-3.84029e-08
-9.8782e-06
-9.31024e-06
-1.47291e-05
-2.36849e-05
2.29473e-06
-2.94773e-05
-1.92954e-05
-2.11067e-07
4.77739e-06
3.13503e-05
-6.54955e-05
1.66192e-06
-1.76874e-06
1.10117e-05
-3.43566e-06
-5.8073e-06
1.64021e-05
-6.11852e-06
-1.20523e-05
-2.22013e-05
-1.23443e-05
-5.46266e-06
4.50692e-06
-2.47992e-06
6.91689e-06
-1.84981e-05
2.08959e-05
-3.61803e-05
1.30585e-05
-4.92314e-06
-1.5217e-05
4.55774e-06
1.55824e-05
-1.19299e-05
2.26935e-05
-1.56868e-05
1.26593e-05
-3.98061e-05
1.39151e-05
-2.16583e-05
1.23009e-05
-1.11603e-05
4.06577e-05
3.68761e-06
-7.69334e-06
-1.76526e-05
-7.79494e-06
3.22263e-07
-3.37875e-06
1.82773e-05
1.5872e-06
-2.3881e-06
4.12396e-06
1.30295e-05
-1.47654e-05
1.04319e-05
1.69581e-05
-2.97782e-05
3.62556e-06
1.09303e-05
4.46036e-06
-1.23973e-05
1.15625e-05
-1.70667e-05
3.24573e-05
-9.97307e-06
1.45339e-05
-1.40102e-05
9.62589e-06
-3.74276e-06
-8.78899e-06
2.90585e-06
-1.79354e-05
-1.26017e-06
2.88215e-05
-1.01157e-05
1.50943e-05
9.01835e-07
-2.47851e-05
1.01635e-05
7.83661e-06
-1.62771e-05
2.51805e-05
-2.54909e-05
7.93318e-06
6.35225e-06
9.38805e-06
-2.36735e-05
-4.30832e-06
3.88448e-06
8.35702e-06
1.69685e-05
-1.49246e-05
6.94946e-06
-1.74523e-05
1.43874e-05
-8.55959e-06
2.38661e-05
-1.43777e-05
2.27866e-05
-2.2442e-05
-8.17337e-06
1.35341e-05
5.381e-06
-1.07418e-05
3.37318e-05
-2.76715e-05
4.3057e-05
-2.35443e-05
1.83227e-05
-2.624e-05
1.66039e-05
1.33933e-05
1.11353e-05
-4.11325e-05
9.73984e-06
3.17914e-05
-2.49274e-05
1.6086e-05
7.04711e-06
-1.85975e-05
-1.2405e-05
4.70885e-05
-1.93039e-05
7.75358e-06
-2.93605e-05
4.87469e-05
-3.75291e-05
1.14832e-05
1.96552e-05
2.25618e-05
-5.37001e-05
6.30903e-06
2.10989e-05
-1.59248e-05
4.16379e-06
2.18004e-05
2.67837e-05
-1.06455e-05
-1.19744e-05
-1.61748e-05
6.47589e-05
-1.14103e-05
1.63344e-05
5.06108e-07
7.59597e-05
3.11856e-06
-4.43487e-05
-3.47296e-05
-4.9845e-05
-1.65427e-05
0.000142347
-4.3565e-05
-3.16143e-06
6.96826e-05
1.07017e-05
-0.000123949
7.54623e-05
-8.94112e-06
-8.32211e-05
0.000142141
-0.000116868
-1.22534e-05
-3.40798e-05
6.94291e-06
3.93902e-05
-1.75219e-05
2.13041e-05
-1.60356e-05
-1.22068e-05
-3.93948e-05
-4.52883e-05
3.83957e-06
6.27528e-05
-7.68617e-06
-5.36377e-05
3.11776e-05
-5.10706e-05
4.19601e-05
-2.6719e-05
2.56574e-05
2.77588e-05
-2.66973e-05
6.9682e-05
-2.78364e-05
-6.85646e-05
2.87485e-05
6.65909e-05
-7.02003e-05
2.66701e-05
7.1289e-05
-2.81506e-05
-6.87469e-05
-2.11981e-05
3.73853e-08
4.78309e-05
6.71629e-07
-5.00203e-05
2.04405e-05
-4.76052e-05
4.92263e-05
2.38521e-05
-1.66928e-05
-5.96589e-05
5.24996e-05
-2.50164e-05
-3.0707e-05
7.95755e-05
-1.74158e-05
-2.42934e-05
-5.1457e-05
-5.29094e-05
7.36594e-05
-3.10739e-05
-8.0042e-05
-1.59802e-05
-5.43451e-05
-7.13475e-05
3.45131e-05
2.11564e-05
2.74813e-06
-5.84177e-05
-1.27561e-05
1.3956e-05
3.33132e-05
-1.722e-05
2.56204e-05
5.36658e-05
-1.27514e-05
-5.81344e-05
2.30589e-06
7.69803e-05
-2.76868e-05
4.39487e-05
-3.769e-05
6.607e-06
-1.14222e-05
-3.26165e-05
3.74316e-05
-2.29956e-05
-4.52458e-05
7.48484e-05
-2.33067e-05
-1.11111e-05
-2.46251e-05
-4.27603e-05
3.47689e-05
-3.15942e-05
-3.82767e-05
7.36045e-06
-7.34274e-05
-3.53448e-05
2.29899e-05
1.53738e-05
3.74346e-06
-4.21072e-05
-6.04965e-06
1.03801e-05
1.86594e-05
1.81959e-05
-8.87179e-06
-3.49746e-05
-5.85922e-06
5.90297e-05
-1.31916e-05
-3.06548e-05
1.40092e-05
-2.34573e-05
1.85301e-05
4.09691e-05
-7.31638e-07
-2.42002e-05
-1.60372e-05
-2.0656e-05
-2.39467e-05
8.55718e-05
-1.84038e-05
-2.98381e-06
4.68795e-06
-2.09552e-05
-7.933e-06
-1.67847e-05
-2.47409e-06
5.66952e-06
-4.50285e-05
-1.4099e-05
-6.59937e-06
6.19531e-06
2.74251e-05
-2.70211e-05
8.48538e-06
1.75775e-05
-3.26623e-05
-1.37169e-06
1.60524e-05
9.42909e-05
-2.84359e-05
-6.72267e-05
-4.53251e-06
0.000114876
4.21919e-05
3.00995e-05
-5.47139e-05
1.85104e-05
5.11067e-05
3.94127e-05
-3.77492e-05
5.33906e-05
-3.22444e-05
-7.90281e-06
-3.95116e-05
7.96589e-05
-3.2711e-06
-9.62e-05
4.27959e-07
-1.16019e-05
7.82165e-06
8.97954e-06
-1.63732e-05
4.98524e-06
-8.76546e-06
1.20386e-05
3.08941e-05
-3.39532e-05
3.1019e-05
-1.39951e-05
7.2961e-05
-0.000138267
6.44684e-05
-1.63371e-05
8.16091e-06
3.09161e-05
-2.274e-05
1.20021e-05
3.53797e-05
-6.37189e-05
5.54681e-06
1.46162e-05
3.39696e-05
-3.85633e-05
1.01405e-05
-1.10143e-05
5.96001e-05
-1.5206e-05
4.79289e-05
-1.80676e-06
5.23503e-05
-3.21765e-05
-7.61922e-05
0.000113107
-6.24053e-05
-3.78524e-06
-2.84486e-05
9.18339e-05
-6.13306e-06
1.24884e-05
1.61407e-05
1.81487e-05
-4.04225e-05
1.8203e-05
1.0426e-05
1.48488e-05
-5.91053e-05
7.2611e-05
-3.95593e-05
0.000157269
-1.77623e-05
9.31861e-06
3.44154e-05
-2.59717e-05
4.79076e-05
4.9462e-05
1.78595e-06
5.54402e-05
5.8783e-05
-7.53502e-06
-4.66143e-05
0.000160838
-1.9734e-05
1.71165e-05
2.04527e-05
3.28351e-06
-4.08527e-05
-1.86926e-06
2.28969e-05
-3.9112e-06
-1.58546e-05
4.63848e-06
-3.3842e-05
1.07834e-05
1.01721e-05
1.20169e-05
-3.29724e-05
8.24019e-06
2.34361e-05
8.16141e-06
1.02509e-05
1.96466e-05
1.94654e-05
1.2323e-05
3.07597e-05
7.51678e-06
2.01101e-05
3.00907e-05
3.21011e-05
7.84595e-06
3.01776e-05
-1.98775e-06
-3.01974e-05
-1.20751e-05
-3.80711e-05
-1.52732e-05
-7.95629e-06
1.19782e-05
-2.15296e-05
-7.50362e-06
-1.49091e-05
-3.14022e-05
-7.60574e-06
-1.95828e-05
1.9685e-05
-1.38827e-05
-8.63207e-06
1.39078e-05
-2.19723e-05
-2.33377e-05
-2.82698e-05
2.98267e-06
-4.51352e-05
-2.76217e-05
-2.45867e-05
-7.31465e-06
2.22721e-05
1.06706e-05
-2.77514e-05
-7.25388e-06
1.06098e-05
2.72923e-05
-5.72091e-06
6.76961e-06
1.42154e-05
7.75508e-06
1.12456e-05
-2.47216e-05
6.57317e-06
7.95152e-06
-1.82129e-06
-1.1361e-05
1.97555e-05
-2.16212e-05
1.4282e-05
-2.46577e-05
1.71365e-05
4.21052e-06
9.27575e-06
1.43571e-05
1.29867e-05
4.24187e-05
-4.2721e-06
-6.59129e-05
2.77662e-05
-2.94803e-05
-3.97806e-05
0.00011168
2.1717e-07
-3.39695e-05
-3.26556e-05
3.15561e-05
1.31664e-06
6.58139e-06
-7.32065e-05
-5.15482e-05
4.33237e-05
-0.00011088
-9.16948e-06
-2.2169e-05
5.1093e-06
2.62292e-05
4.1768e-06
-1.36288e-05
2.82557e-07
-3.13675e-05
1.33752e-05
-1.41934e-05
-1.47549e-05
3.40576e-05
-4.25738e-05
1.47516e-05
6.39288e-05
5.08069e-06
-0.000100377
4.18828e-05
3.54213e-05
6.06267e-05
-9.81199e-05
8.77547e-05
-1.2314e-05
-2.07355e-05
2.72012e-06
1.60422e-05
1.6725e-05
-3.48092e-06
-1.54281e-05
2.18405e-06
-3.71015e-05
-1.50828e-06
5.53348e-05
-4.19629e-06
-3.63862e-05
1.8031e-05
-6.15838e-05
2.81247e-05
-4.2512e-05
5.90347e-05
-3.48906e-05
3.4806e-05
-4.11166e-06
2.92842e-06
-7.42052e-05
5.42158e-05
-0.000112871
4.65098e-05
-1.61947e-05
-1.72417e-05
-5.67012e-06
3.91065e-05
-1.54387e-06
-1.48395e-05
1.88716e-07
-1.74689e-05
1.59388e-05
-5.45984e-05
2.38201e-05
5.35924e-05
4.31355e-05
-0.000133811
-0.000122343
-2.13248e-05
-3.76886e-05
2.68405e-06
1.85878e-05
1.47234e-05
-6.05354e-08
-1.53045e-05
6.41608e-07
-2.87811e-05
-9.21825e-06
5.27227e-05
2.24972e-07
-2.90666e-05
1.00362e-05
-5.33127e-05
2.79721e-05
-5.34068e-05
5.42247e-05
-5.4385e-05
1.20315e-06
-0.000136764
-5.44396e-05
-1.93607e-05
-4.85423e-05
1.97411e-06
-6.80769e-05
1.16631e-05
-2.14982e-05
3.63158e-05
-0.000132019
6.91045e-05
-0.00014566
-8.83481e-06
9.86246e-06
-1.08673e-05
4.13815e-05
7.32096e-05
1.59725e-05
-0.000130564
1.32054e-05
-8.92639e-06
3.71025e-05
5.04115e-05
3.60034e-05
6.43505e-05
-6.16138e-05
-1.31745e-05
0.000114628
-8.20949e-05
0.000119332
-0.000127736
-6.15945e-05
-4.7699e-05
-2.88635e-05
0.000138157
-3.31152e-06
-7.93829e-05
2.10999e-05
-4.95241e-05
-1.48641e-06
6.94962e-05
2.9193e-05
-0.000148213
7.3504e-05
-5.49416e-06
9.31346e-05
-0.000143325
0.000137775
2.5939e-05
1.97186e-06
-1.80137e-05
-9.89721e-06
-1.33135e-05
-4.14942e-06
4.3402e-05
-9.77125e-06
-1.57044e-06
2.57454e-05
-7.82948e-08
-4.36808e-05
-1.25748e-05
3.41707e-05
1.46047e-05
-2.44543e-05
4.59513e-07
9.81056e-06
1.18062e-05
6.24128e-06
-2.7858e-05
1.05275e-06
-7.04073e-07
9.46188e-06
1.09375e-05
1.92146e-06
1.63962e-05
-1.94983e-05
2.39806e-06
-4.26081e-06
3.01189e-05
-2.01189e-05
2.67956e-05
-3.33759e-05
-1.00375e-05
-8.82945e-06
-5.53838e-06
2.44053e-05
2.7156e-06
-8.67372e-06
-4.07939e-06
2.74617e-06
-8.86002e-06
-5.30377e-06
-1.40195e-05
1.06496e-05
-1.00815e-05
-7.6066e-07
-5.40028e-06
-1.93504e-06
-2.82798e-05
-7.10664e-06
3.95181e-06
-2.34915e-05
2.66463e-05
1.14054e-05
-1.18432e-05
-6.66882e-06
-1.53559e-05
3.07131e-05
3.31489e-06
1.55167e-05
-3.06748e-05
1.92277e-05
-2.25816e-05
2.00678e-07
9.10552e-06
6.21049e-06
8.06546e-06
1.13629e-05
-8.56919e-07
-6.43355e-06
-1.52429e-05
-2.76152e-05
-1.15864e-05
1.49164e-05
2.42852e-05
1.08697e-05
-5.85052e-06
-3.26344e-05
-1.09427e-05
1.0226e-05
2.98352e-05
-1.41316e-05
1.05073e-05
2.95539e-05
8.4254e-06
-1.71791e-06
-2.08391e-05
-8.19987e-07
1.97527e-05
8.6803e-06
-1.62487e-05
2.27767e-05
4.46126e-05
-8.14243e-07
-4.46132e-05
8.14844e-07
-4.53236e-05
-4.72316e-05
0.000137168
-4.21047e-05
-4.03306e-06
-6.22312e-06
-4.53916e-05
7.00156e-06
-4.40992e-05
-9.35547e-06
3.07015e-05
-0.000118198
-1.74308e-05
-3.3423e-06
-3.4617e-05
2.32648e-05
1.46945e-05
-2.2905e-05
1.91739e-05
3.8883e-07
2.62478e-05
-8.37698e-05
-2.67899e-05
-8.93264e-06
5.48965e-05
-1.54422e-05
-1.0959e-05
1.63717e-05
3.07039e-05
-1.94909e-05
9.64839e-06
3.68923e-05
-2.70499e-05
3.16972e-05
4.52904e-05
-9.64784e-05
1.14607e-05
2.98849e-05
2.60549e-05
4.76052e-05
-3.67678e-05
3.24709e-05
3.88743e-05
-5.41908e-07
4.44736e-05
7.69482e-05
1.19748e-05
-1.07624e-05
4.03312e-05
-1.53023e-05
5.01573e-05
-1.67375e-05
-9.32723e-06
1.22273e-05
-2.35717e-05
6.66758e-06
1.61508e-06
-7.82596e-06
-4.56712e-07
-1.05303e-05
-9.802e-06
2.69999e-05
-2.05179e-05
1.16027e-05
6.11395e-06
1.81922e-06
-1.57591e-05
7.42759e-06
-1.77036e-06
-1.46706e-05
1.22962e-05
-3.33693e-05
-3.05619e-05
-3.02359e-05
-2.22291e-05
8.30269e-05
6.27069e-06
-3.1824e-06
-3.36502e-05
-5.04017e-05
2.64364e-05
-4.91137e-05
5.78282e-05
-1.1897e-05
2.13107e-05
-0.000104075
6.21268e-05
-9.12178e-05
9.77259e-05
-7.08464e-05
-1.42716e-06
7.12061e-05
1.06749e-06
6.82562e-05
7.02796e-05
-0.000209382
6.72754e-05
-4.46416e-07
-2.07129e-06
7.09411e-05
1.40982e-06
7.20822e-05
-2.94743e-06
-6.8013e-05
0.000207371
2.48164e-06
-6.19543e-05
4.30839e-08
-2.9188e-06
6.483e-05
0.000121704
0.000124296
-0.000307955
0.000118961
2.78623e-06
3.60603e-05
-3.82913e-05
-6.87734e-07
-2.06131e-05
0.000121503
2.35143e-05
6.24907e-05
0.000121862
1.19053e-06
0.000100425
-0.000100572
-1.0438e-06
9.65646e-05
-9.69977e-05
1.62369e-06
-9.93287e-05
0.000296318
9.56553e-05
9.67846e-05
-0.000293012
9.73977e-05
-1.62223e-06
1.40907e-06
-3.55325e-06
-4.567e-05
-0.000131024
-0.000115496
0.00029219
9.62295e-07
1.84318e-06
-4.84755e-05
-0.00013306
2.99855e-06
-6.71986e-05
6.96264e-05
-5.84691e-07
3.33035e-05
-0.000148978
0.000102112
-0.000201869
0.000119352
5.23872e-05
6.85433e-06
0.000100742
5.18958e-05
-0.000301615
0.000100069
8.81163e-08
-0.000142772
0.000295229
-0.000146345
3.66082e-06
0.000121873
2.06763e-06
2.23203e-06
-0.000126172
-6.51921e-05
-8.92536e-05
2.91633e-06
-6.60408e-05
-0.000160117
0.000151697
1.13366e-05
6.80547e-05
-0.000294213
-9.14741e-05
4.4526e-06
0.000234072
0.000294295
-3.77893e-06
0.000100389
5.3682e-05
3.57497e-06
-3.20168e-05
4.17264e-05
-1.32846e-05
-2.96391e-05
2.84196e-05
4.79447e-06
4.14898e-05
-0.000103146
-2.07924e-05
-4.25042e-05
9.17161e-05
-3.33895e-05
1.73916e-05
-9.88718e-06
1.79875e-05
-1.06649e-05
-3.7958e-05
-2.9656e-05
-2.77256e-05
-1.53007e-06
-3.38754e-05
-2.55257e-06
-2.22837e-06
-2.89577e-05
-2.83241e-05
3.05122e-05
-4.4165e-06
3.39588e-05
-9.12406e-05
4.53728e-06
-4.45381e-06
7.32387e-06
-1.17331e-06
1.42869e-05
2.50726e-06
-1.56209e-05
1.19802e-05
-1.40857e-05
9.32145e-07
-1.13103e-05
3.75774e-05
-2.06444e-05
1.63446e-05
6.80702e-06
1.65079e-05
-5.27731e-05
-1.26095e-06
3.68312e-06
3.77338e-06
-2.21358e-06
-6.07364e-06
-1.19711e-05
-3.65428e-05
3.46286e-06
-9.39415e-06
1.58113e-05
-9.88004e-06
-1.47986e-05
1.42873e-05
3.97419e-06
2.06663e-05
-4.4859e-05
-9.2899e-06
-1.92433e-05
4.28205e-05
-1.61105e-05
1.07948e-05
-7.2277e-06
1.17834e-05
-1.06597e-05
-4.60222e-06
1.43869e-05
-1.29219e-05
3.13725e-06
2.49504e-05
-1.64941e-05
-1.87922e-05
-2.90904e-05
9.92906e-06
-3.9345e-05
-2.46309e-05
8.97595e-06
-4.37923e-05
2.83836e-05
1.81667e-05
-4.27064e-06
-4.22796e-05
-2.47793e-05
-1.96832e-05
-1.50457e-05
2.36328e-06
-1.63041e-06
-2.3023e-05
4.97022e-06
-1.43128e-05
-4.16064e-05
-1.8892e-06
1.54568e-05
-5.3225e-06
-8.24511e-06
2.53815e-05
-7.9748e-06
-1.92959e-05
-2.56099e-05
-1.67334e-05
-6.56758e-06
1.19077e-06
5.4305e-08
5.15492e-06
-1.96973e-05
1.92245e-05
-3.96795e-05
3.68183e-06
-7.26285e-06
-1.00564e-05
-2.35607e-06
1.96753e-05
6.52507e-07
-7.15828e-06
-7.57081e-07
-9.52751e-06
1.23644e-07
-1.03654e-05
-1.79791e-05
2.59883e-05
-1.05429e-05
-6.98074e-06
1.62005e-05
-3.62709e-05
-1.65492e-06
-1.13067e-05
6.56199e-07
1.85068e-05
-7.85629e-06
7.15959e-06
1.49349e-05
-3.34013e-05
2.89896e-07
7.5259e-06
1.69266e-05
-2.05088e-05
3.8721e-06
-1.0622e-05
3.50745e-05
6.19926e-06
1.93198e-05
-7.01223e-06
1.34685e-05
7.66569e-06
2.67414e-05
-3.37816e-05
3.54392e-05
-3.99322e-06
-1.07235e-05
4.62866e-06
1.00881e-05
-6.74156e-06
6.60853e-06
-3.86018e-06
7.97395e-07
-1.82625e-05
-1.14549e-05
-3.73883e-06
2.18023e-05
-7.47848e-06
4.22939e-06
-1.09105e-05
5.11923e-06
-1.16429e-06
-5.17874e-06
2.48085e-06
-1.21363e-06
1.40188e-06
-1.35254e-06
-9.2e-07
-5.47237e-06
-5.48739e-06
1.82683e-06
2.29049e-06
-9.13042e-06
-8.76394e-06
-1.10693e-05
1.61703e-05
-1.40133e-05
8.91228e-06
3.24379e-05
-3.8534e-05
3.76549e-05
3.30939e-05
-4.10666e-05
2.26092e-05
4.95425e-05
5.04582e-06
-3.19792e-05
-2.72669e-05
-8.70387e-06
8.55133e-05
2.41019e-07
-2.24621e-05
-3.56805e-05
3.37235e-05
2.19807e-06
6.40537e-06
-6.45479e-05
-5.11431e-05
7.61627e-05
4.54711e-05
5.92718e-06
-3.788e-05
-1.35183e-05
-5.81766e-05
-2.03017e-05
-5.383e-05
1.58061e-06
2.84993e-05
2.36026e-05
-8.99819e-05
4.42033e-05
-2.92222e-05
8.94208e-06
1.52955e-05
-6.34939e-07
1.63793e-05
3.67661e-05
-1.23021e-05
8.37972e-06
-5.08366e-05
-5.22571e-06
-2.38819e-06
4.33426e-06
3.27965e-06
5.56925e-06