/*--------------------------------*- C++ -*----------------------------------*\
| =========                 |                                                 |
| \\      /  F ield         | OpenFOAM: The Open Source CFD Toolbox           |
|  \\    /   O peration     | Version:  v2012                                 |
|   \\  /    A nd           | Website:  www.openfoam.com                      |
|    \\/     M anipulation  |                                                 |
\*---------------------------------------------------------------------------*/
FoamFile
{
    version     2.0;
    format      ascii;
    class       volVectorField;
    location    "0.3";
    object      U;
}
// * * * * * * * * * * * * * * * * * * * * * * * * * * * * * * * * * * * * * //

dimensions      [0 1 -1 0 0 0 0];


internalField   nonuniform List<vector> 
6576
(
(0.0340311 -1.48141 -0.0688209)
(-0.0952351 -1.53711 0.0805071)
(-0.0344697 -1.56806 0.0121986)
(0.045427 -1.45051 -0.063802)
(-0.00530247 -1.50765 0.00521989)
(-0.0832118 -1.60008 0.0814135)
(-0.0181545 -1.54806 0.03255)
(0.0160164 -1.49778 0.00295479)
(0.0183727 -1.24834 -0.00987494)
(0.0183816 -1.45842 0.00105902)
(-0.0117316 -1.51106 -0.0163794)
(-0.0177294 -1.55194 -0.010618)
(-0.0021718 -1.55221 0.00695125)
(0.00769153 -1.4879 -0.000161223)
(0.0619458 -1.45597 0.0230931)
(0.0079588 -1.82194 -0.0341211)
(0.069465 -0.860172 0.0343186)
(0.0171936 -1.7198 -0.016921)
(0.0577209 -1.56227 0.0651299)
(0.0182903 -1.47992 0.0037606)
(0.0502906 -1.37618 0.0512314)
(0.00203008 -1.53287 0.015107)
(0.010648 -1.46845 0.00873576)
(-0.00490646 -1.49997 -0.0123038)
(0.00163835 -1.59486 0.0209412)
(0.0553959 -1.52967 0.0575829)
(0.0649513 -1.49335 0.068029)
(0.000656003 -1.45698 0.0141028)
(-0.00587154 -1.57963 -0.0318764)
(0.00746418 -0.96338 -0.00871094)
(-0.0564767 -1.57793 0.0656371)
(-0.0283113 -1.45729 -0.00993512)
(-0.0127365 -1.55583 0.000225065)
(0.0125869 -1.45838 0.0320583)
(0.0171158 -1.46694 0.0352132)
(-0.0197425 -1.25757 0.00990604)
(0.00202862 -1.64186 0.0116843)
(-0.0148707 -1.56946 0.0104312)
(0.018509 -1.48 0.0247843)
(0.01072 -1.47821 0.0190056)
(0.00240654 -1.31229 0.031858)
(-0.0178949 -1.47747 0.00615134)
(-0.00105991 -1.40708 0.00611915)
(0.320129 0.775517 0.501029)
(0.23809 0.905477 0.35205)
(-0.0627142 0.778991 -0.0619966)
(-0.0406981 0.977509 0.321928)
(0.195379 0.850505 0.514601)
(-0.108632 0.462061 0.0673706)
(-0.16411 0.889376 -0.113524)
(-0.321912 0.987607 -0.0690282)
(-0.084154 0.664699 0.136851)
(-0.079084 2.21048 -0.150852)
(0.0983092 2.1089 0.770228)
(0.0648077 2.98505 0.14956)
(-0.123673 3.14161 0.906216)
(-0.0746973 3.41529 0.108953)
(-0.10215 4.30537 -0.166086)
(0.00261428 3.84618 0.332776)
(-0.0457483 0.404881 0.337293)
(0.110429 0.759443 0.224243)
(0.020347 0.134258 0.306973)
(0.183615 -0.232802 0.653683)
(0.0198555 -0.281659 0.508187)
(0.0916409 -0.085256 0.542735)
(0.422253 0.11068 0.86918)
(0.179952 -0.568603 0.264109)
(-0.15503 -0.47919 0.294624)
(0.0179086 -0.298619 0.402935)
(-0.220022 -0.583064 0.233111)
(0.142635 -0.760638 0.156445)
(-0.0620944 -0.377739 0.309117)
(0.127445 -0.471911 0.149919)
(-0.113684 -1.78547 -0.245034)
(-0.174725 -1.52577 -0.452345)
(0.0183599 -2.01122 0.0222859)
(-0.105875 -1.59698 -0.648613)
(-0.0302444 -1.76575 -0.454941)
(0.0640085 -1.89077 -0.186704)
(0.075007 -1.71 -0.260086)
(-0.0124637 -1.30153 0.149714)
(-0.0331557 -1.01869 0.0480503)
(-0.0676959 -0.665176 -0.223013)
(-0.120781 -1.15279 -0.356989)
(-0.0394178 -1.48874 0.0376053)
(-0.143386 -1.17984 -0.0995004)
(-0.207496 -0.895776 -0.473673)
(-0.267093 0.426081 0.767551)
(-0.212342 0.899128 0.100506)
(0.0427196 0.558349 -0.266865)
(-0.0424973 0.165422 -0.308151)
(0.0522566 0.00721979 0.243535)
(-0.422938 0.323079 0.218331)
(-0.155963 0.142587 1.04189)
(0.178275 0.668074 1.82475)
(-0.00123546 0.919712 1.66349)
(0.185772 0.425104 2.16494)
(0.0743666 1.01528 1.40592)
(0.0774631 0.614824 1.87766)
(0.0428224 0.245826 2.11023)
(0.145334 0.610611 1.7434)
(0.145947 -0.140999 3.04979)
(0.0858234 0.231179 2.32372)
(0.0206569 0.556851 1.82156)
(-0.013852 0.30595 2.43867)
(-0.0274798 0.0935535 3.00993)
(0.0272081 0.399441 2.19575)
(-0.0106259 0.141546 2.55435)
(-0.061471 0.246656 0.718041)
(-0.00868983 0.306018 0.63125)
(0.0922307 -0.0688395 0.48397)
(-0.11773 0.395106 0.83461)
(0.0628747 0.00794417 0.389658)
(0.144624 0.0358256 0.453404)
(0.0753126 -2.21266 0.0623767)
(-0.00413427 -2.55563 0.0173869)
(0.0851493 -2.53517 0.0206975)
(-0.0320705 -2.60809 0.013588)
(-0.0397074 -2.68602 0.0288016)
(0.0437257 -2.6859 0.0153951)
(0.0436596 -2.59103 0.0787375)
(-0.0251981 -1.50494 -0.0124609)
(0.0560166 -1.58988 0.0565703)
(-0.0188841 -1.52294 -0.0169783)
(0.0316047 -1.58063 -0.0133308)
(-0.0556987 -1.57282 -0.0284891)
(0.102331 -1.71387 0.126272)
(-0.0562945 -1.57339 0.00871421)
(0.0240693 -7.7377 -0.0426008)
(0.00699333 -7.57016 -0.03965)
(0.0157632 -7.52728 -0.0221052)
(0.0357705 -7.49787 -0.0421158)
(0.0572354 -7.68271 -0.0729066)
(0.0254623 -7.05086 -0.0353674)
(0.0240547 -7.4729 -0.0367791)
(0.0109175 0.69426 0.521348)
(-0.0625964 0.742186 0.782725)
(-0.00264599 0.714917 0.54961)
(0.0511404 0.969892 0.590051)
(-0.100599 0.926592 0.738953)
(-0.100953 0.849573 0.917677)
(0.0325788 0.934127 0.659507)
(0.166759 1.11806 0.0518228)
(-0.035278 0.912292 -0.010367)
(-0.0255901 1.06707 0.341356)
(0.100475 1.23345 -0.142643)
(-0.137154 1.28816 0.160713)
(-0.0939219 1.18341 0.316145)
(0.155068 1.30308 -0.0348528)
(0.136725 0.55896 -0.411472)
(-0.0157019 0.796835 -0.200655)
(0.00920083 0.637615 -0.36154)
(-0.0700954 0.839726 0.0348143)
(-0.0129883 0.82574 -0.0365341)
(-0.122892 0.670153 -0.1961)
(-0.104357 0.719235 -0.118352)
(0.0553969 0.678518 -0.360026)
(0.0325005 0.761905 -0.505247)
(-0.0391863 1.08903 -0.69618)
(-0.0116311 0.896556 -0.397085)
(-0.0247585 0.961467 -0.491236)
(-0.0910791 1.47022 -0.848185)
(-0.0937763 1.43225 -0.752743)
(0.00832952 1.35525 -0.675758)
(0.119893 1.11181 -0.456557)
(0.0395295 0.794432 -0.453104)
(-0.13051 0.642783 -0.521644)
(-0.0399376 0.624164 -0.525394)
(0.0401303 0.713409 -0.45503)
(0.0418476 0.709698 -0.471219)
(-0.112512 0.582567 -0.518247)
(-0.0526373 0.628735 -0.488651)
(0.104217 0.459444 -0.771613)
(0.0566429 0.215581 -0.959492)
(0.00585043 0.0310428 -1.43146)
(0.0616745 0.798722 -0.811319)
(-0.0384703 0.476157 -0.832562)
(0.0111227 0.631971 -1.16278)
(-0.0603468 0.524015 -1.27449)
(0.0416455 0.615164 -0.903916)
(0.0665795 0.73889 -0.840178)
(-0.1352 -0.185089 -0.471362)
(0.131533 -0.482914 -0.318053)
(0.0563899 -0.831934 -0.498336)
(-0.285973 -0.0944377 -0.587948)
(0.0122711 -0.365794 -0.380008)
(0.114741 -1.01134 -0.458772)
(-0.0395159 -0.828025 -0.610692)
(-0.10594 -0.470574 -0.652561)
(0.0790737 -0.717321 -0.41921)
(-0.0583922 -0.693805 -0.18431)
(-0.0166062 -0.675013 -0.186728)
(-0.104835 -0.525507 -0.0425886)
(0.0139466 -0.288847 -0.322181)
(0.0776341 -0.479069 -0.280705)
(-0.135301 -0.285156 -0.101408)
(-0.025219 -0.44008 -0.225662)
(0.0496516 -1.5987 -0.106423)
(-0.1181 -1.25476 -0.203535)
(0.0661083 -1.47292 -0.14981)
(0.00817671 -1.39428 -0.236153)
(-0.0540127 -1.44865 -0.262539)
(-0.157692 -1.15467 -0.375827)
(0.0197273 -1.22442 -0.415446)
(0.0167104 -1.40556 -0.250243)
(0.0489178 -1.03253 -0.0603123)
(0.151194 -1.22762 -0.119555)
(0.0777305 -1.38967 -0.118896)
(-0.0609593 -1.31251 -0.10949)
(0.0388765 -1.17991 0.0468969)
(0.208956 -1.10281 -0.0163046)
(-0.0446286 -7.5152 -0.135488)
(-0.00639245 -7.38831 -0.172471)
(0.0257228 -7.35292 -0.14787)
(-0.00778555 -7.64123 -0.210801)
(-0.101664 -7.76935 -0.276329)
(-0.118127 -7.78397 -0.214168)
(0.0120863 -7.29866 -0.168127)
(0.00715515 0.0140713 0.139311)
(-0.0897232 -0.286084 -0.0157719)
(-0.0524841 -0.554685 0.00402903)
(-0.0148652 0.0594857 -0.0450257)
(-0.0625358 0.266287 0.0123289)
(-0.103962 0.0261462 -0.0454984)
(-0.0183584 -0.299925 -0.0135467)
(0.0854863 0.135202 -0.0363995)
(0.0070733 0.0907948 -0.0589739)
(0.00673189 -0.0712585 -0.126418)
(-0.0877554 -0.122238 0.216219)
(0.143148 -0.0109616 0.0481628)
(0.0924768 -0.173223 -0.0375283)
(-0.117788 -0.273963 0.185204)
(0.0132651 -0.168274 -0.0741852)
(0.0804321 -0.0741576 -0.147606)
(-0.00849001 0.0325211 -0.153511)
(-0.101496 -0.337467 -0.425077)
(-0.0468952 -0.327313 -0.324549)
(0.065895 -0.131967 -0.258829)
(-0.0640457 -0.11265 -0.270353)
(-0.0611361 0.227252 -0.521975)
(0.00146992 0.234044 -0.350559)
(-0.0464555 0.247903 -0.585199)
(-0.0210897 0.17502 -0.384218)
(-0.0618118 0.190182 -0.353205)
(-0.0816507 0.191026 -0.518675)
(-0.0771478 0.1767 -0.444708)
(0.00714362 0.513537 -0.598902)
(-0.112449 0.602397 -0.565564)
(0.00865938 0.485839 -0.543692)
(-0.0173699 0.355663 -0.63177)
(-0.0367564 0.428748 -0.678814)
(-0.0550819 0.38973 -0.584215)
(-0.138084 0.536179 -0.696222)
(-0.139678 0.617217 -0.586721)
(-0.00473406 0.477173 -0.550514)
(0.00504919 0.669856 -0.450157)
(0.0184913 0.624645 -0.413875)
(-0.0107203 0.58154 -0.379451)
(0.0582306 0.618575 -0.482775)
(-0.0115161 0.581022 -0.484855)
(0.0751409 0.58701 -0.45471)
(0.022583 0.565686 -0.412458)
(-0.0610897 2.25358 0.347215)
(-0.0189072 1.85121 0.375068)
(0.0740045 1.40744 0.572387)
(-0.093708 2.09865 0.568787)
(-0.0685883 2.33837 0.414737)
(-0.0820687 2.07581 0.441983)
(-0.108044 1.76157 0.764965)
(0.011802 -0.024914 -0.668221)
(-0.17161 -0.0416075 -0.772818)
(-0.0161672 0.132792 -0.480373)
(0.0454662 -0.0273491 -0.644661)
(-0.0900798 0.0354431 -0.686709)
(0.0511647 0.265593 -0.323124)
(0.112943 0.21221 -0.321901)
(-0.0401412 0.212137 -0.57217)
(0.00689198 0.105322 -0.492795)
(0.214525 0.791882 0.176444)
(0.0638479 0.245815 0.0595349)
(0.0210585 0.642443 0.242157)
(0.0433493 0.310228 -0.230777)
(0.3823 0.766686 -0.00651445)
(-0.227384 0.757808 -0.55292)
(0.0324242 0.881433 -0.185101)
(0.0299272 0.902646 -0.638347)
(-0.0650573 0.659768 -0.560876)
(-0.0730637 0.678729 -1.04572)
(-0.0576015 0.79562 -0.402496)
(0.330484 0.740449 -0.66627)
(-0.234754 1.07492 -0.499913)
(-0.212324 1.90088 -0.520311)
(-0.544932 1.68687 0.048378)
(-0.339894 2.2816 0.0276979)
(0.083548 0.377744 0.00987924)
(0.335937 0.615223 -0.097935)
(0.0574773 0.392264 -0.114485)
(0.0262716 0.889651 -0.15343)
(-0.296714 1.41391 0.0645124)
(-0.120114 1.47726 -0.299991)
(0.0262747 0.759146 -0.130905)
(-0.0871795 1.5796 -0.146486)
(-0.0383113 1.70604 -0.541239)
(-0.00603213 0.776869 -0.399785)
(0.0120448 1.26337 -1.64137)
(-0.0182944 1.18151 -1.61212)
(0.00227602 1.26638 -1.59606)
(-0.0260009 1.49577 -1.79711)
(-0.0098992 1.5779 -1.92661)
(0.0172333 1.4165 -1.63878)
(-0.036357 1.2914 -1.42737)
(-0.0286408 -2.10649 -0.0708651)
(-0.0240701 -2.12969 -0.0644587)
(0.0250848 -2.15993 -0.0162267)
(-0.0278368 -2.11019 -0.0785269)
(-0.00710633 -2.15868 -0.0584929)
(0.0374009 -2.14405 -0.0411923)
(0.00769033 -2.16788 -0.00604071)
(0.0377396 -2.17903 -0.046163)
(0.0882105 -2.17267 -0.129233)
(-0.096106 -0.368011 -1.51387)
(0.00719742 -1.0077 -1.36204)
(-0.102631 -0.476879 -1.46695)
(0.52819 -0.977335 -0.868813)
(0.283977 -0.67125 -1.28103)
(0.541729 -1.02399 -1.37949)
(0.341884 -0.526332 -1.43038)
(-0.0286092 1.57526 -0.427099)
(-0.0175999 1.43918 -0.533397)
(-0.0735718 1.6022 -0.480279)
(-0.000641037 1.75068 -0.393186)
(0.0414181 1.79567 -0.462114)
(-0.0275662 1.70453 -0.471384)
(-0.0920518 1.83412 -0.327234)
(-0.0131461 1.31331 -0.505836)
(0.0133071 0.943546 -0.583423)
(-0.0868917 1.58652 -0.415079)
(0.051317 0.776348 -0.478015)
(0.010376 0.914251 -0.515536)
(0.0950817 0.928012 -0.360876)
(0.0419232 1.13371 -0.341508)
(0.111352 1.17005 -0.394677)
(0.116562 1.03254 -0.372879)
(0.00761217 0.773988 -0.420261)
(0.0160038 0.675924 -0.463942)
(0.00745812 0.59132 -0.426674)
(0.0343812 0.65099 -0.428851)
(0.0340297 0.60723 -0.437164)
(0.0341084 0.518762 -0.445834)
(-0.0104935 0.504143 -0.453267)
(-0.00304736 0.505036 -0.423963)
(0.0292081 0.562256 -0.409834)
(0.0485482 0.08337 -1.02979)
(-0.0769579 -0.110005 -0.660788)
(-0.1221 -0.0361403 -0.411314)
(-0.309449 -0.021385 -1.17052)
(-0.032738 0.363826 -1.31861)
(-0.265592 -0.0605826 -0.948983)
(-0.0187672 0.257708 -1.02452)
(-0.0615126 0.0335452 -0.457799)
(-0.0965588 0.065486 -0.490716)
(-0.0657912 -0.0250739 -0.400831)
(-0.129362 -0.119249 -0.607899)
(-0.0881708 0.00574371 -0.650496)
(0.0419018 0.314966 -0.522571)
(0.0131312 0.186701 -0.606707)
(0.00771526 0.349107 -0.339922)
(-0.0338601 0.132387 -0.380729)
(0.0372032 1.04226 -0.909116)
(-0.0733339 1.10819 -0.924637)
(0.00370516 0.687543 -0.976642)
(0.022851 0.753838 -1.35358)
(0.0562505 0.650669 -1.30977)
(-0.00547058 1.13991 -1.14389)
(0.0517302 0.988967 -1.15035)
(0.128739 1.66562 -1.08958)
(-0.120461 1.79684 -0.930931)
(0.0189984 1.34725 -1.56034)
(-0.0204402 1.39183 -1.59322)
(-0.0219312 1.2962 -1.57493)
(-0.238111 2.01405 -0.709124)
(0.0769491 1.72737 -1.00616)
(0.0794376 0.433141 -0.698345)
(-0.0313135 0.596104 -0.523183)
(-0.0421174 0.548467 -0.686256)
(-0.0327353 0.473597 -0.490766)
(-0.0200786 0.595266 -0.572684)
(-0.000830955 0.411998 -0.473867)
(-0.0405435 0.535377 -0.53342)
(-0.0577366 0.500706 -0.611146)
(0.0289431 0.332607 -0.579413)
(-0.0200868 -1.65759 0.114383)
(-0.0353094 -1.66055 0.0996176)
(0.00221152 -1.71684 0.197716)
(-0.0440116 -1.61669 0.322648)
(-0.0202112 -1.61939 0.327831)
(-0.0545191 -1.59937 0.185251)
(-0.0610851 -1.51396 0.290079)
(0.0257734 -1.47605 0.0527523)
(0.00450999 -1.51384 0.144418)
(-0.0463305 -1.49174 0.0964845)
(-0.0496799 -1.7883 -0.00253225)
(-0.0143412 -1.65595 0.042799)
(0.00204267 -1.62355 -0.018475)
(0.0227954 -1.56607 0.035218)
(0.00286327 -1.44472 0.0717783)
(0.112672 -1.42835 0.014568)
(0.0270692 -1.44515 -0.10175)
(-0.0545915 -1.48275 -0.00349918)
(-0.00398403 -1.53883 -0.0270177)
(0.0297164 -1.44453 -0.12767)
(0.0211863 -1.3887 -0.118543)
(-0.0420416 -1.35128 -0.0976671)
(0.0179628 -1.478 -0.10064)
(0.00112836 -2.26459 -0.0763631)
(0.00627931 -2.23346 -0.0613987)
(-0.000777904 -2.2433 -0.073168)
(-0.00608101 -2.30084 -0.0965631)
(-0.0105227 -2.28589 -0.091348)
(-0.0158099 -2.26477 -0.0922237)
(-0.00607801 -2.27974 -0.0943391)
(0.00374281 0.522352 -0.380393)
(-0.055738 0.451815 -0.420877)
(0.0128652 0.490223 -0.388527)
(-0.00392195 0.4457 -0.453756)
(0.0163786 0.508566 -0.436152)
(-0.0389371 0.407063 -0.47355)
(0.0150974 0.45586 -0.444422)
(-0.00500979 0.580404 -0.472503)
(0.00849306 0.608429 -0.427961)
(-0.00223609 0.598573 -0.428712)
(0.0616618 0.547596 -0.418894)
(-0.00905937 0.595641 -0.517394)
(0.0160213 0.603817 -0.465693)
(0.0238476 0.57898 -0.416951)
(-0.00595575 0.511882 -0.578039)
(-0.00251485 0.522698 -0.600066)
(0.065359 0.549246 -0.565546)
(-0.0492199 0.475126 -0.722284)
(-0.0512765 0.375454 -0.746804)
(-0.0439438 0.408309 -0.688481)
(0.0250274 0.465655 -0.704759)
(-0.0382853 2.23462 -0.440315)
(-0.00108299 2.37576 -0.366856)
(0.0318267 2.52589 -0.259258)
(-0.0383303 2.41097 -0.401918)
(-0.0297387 2.46794 -0.367302)
(0.00728035 2.72142 -0.265291)
(-0.000228702 2.62457 -0.308724)
(0.00515102 2.63535 -0.314624)
(-0.0432401 2.60747 -0.350034)
(0.0958915 2.86544 -0.12953)
(0.0816975 3.47633 -0.179719)
(0.0243106 3.83858 -0.275933)
(0.0344396 4.20779 -0.236653)
(0.0362277 3.74552 -0.195854)
(0.0468207 3.76308 -0.17844)
(0.074734 3.25197 -0.143383)
(-0.121661 3.40852 0.0782606)
(-0.112192 5.18699 -0.0558669)
(-0.19105 4.84858 0.0573231)
(0.00444306 5.90015 -0.0867905)
(-0.146041 5.00585 0.0819581)
(-0.124399 5.8767 -0.13161)
(-0.255497 5.37915 0.101697)
(0.0612393 5.39446 -0.445964)
(0.015847 5.06953 -0.392555)
(-0.077502 5.10084 -0.365004)
(-0.0406033 5.29344 -0.0507908)
(0.0806993 5.36272 -0.239375)
(0.0317867 5.12396 -0.284457)
(-0.114938 5.04378 -0.0956085)
(-0.0222196 4.59428 0.0686972)
(0.0376109 4.55679 0.0135137)
(-0.122567 4.55314 0.116712)
(0.0375914 4.89619 0.00691937)
(0.0597052 4.77948 0.0196263)
(0.0771544 4.69407 -0.0551964)
(-0.089579 4.72732 0.0574618)
(-0.0744703 5.33456 0.0255906)
(0.102587 5.36814 0.0689128)
(-0.00640831 4.8223 0.0279473)
(-0.254306 5.00826 0.209716)
(-0.17483 4.68144 0.0705087)
(-0.168476 4.63602 0.150256)
(-0.201407 4.73204 0.152257)
(0.118552 4.73847 -0.115733)
(-0.100076 3.92494 0.0203314)
(0.213449 4.75569 -0.209985)
(-0.235496 4.57067 0.148627)
(-0.287521 3.2305 0.028465)
(-0.135904 4.73131 0.0708527)
(0.0818824 3.80482 0.47642)
(0.209725 4.45112 0.292288)
(-0.0798932 3.26572 0.610169)
(0.193371 4.16941 0.282618)
(0.0396392 3.3426 0.630765)
(-0.157881 2.36833 0.935762)
(0.0064756 3.26696 0.46179)
(0.0577696 4.47842 0.649453)
(-0.0697947 4.36737 0.623349)
(-0.0564699 4.48681 0.734789)
(0.123701 4.24837 0.320316)
(0.048747 4.09582 0.530111)
(0.0136765 4.15072 0.4897)
(-0.0306273 4.06059 0.65109)
(0.0256575 4.3755 0.566629)
(-0.00732734 3.91257 0.611695)
(0.10805 4.23201 0.451323)
(-0.047345 1.13709 0.632786)
(-0.163049 1.79684 0.319857)
(-0.13177 1.58408 0.510927)
(0.0162218 0.759716 0.374141)
(0.0372973 1.08262 0.0770305)
(-0.184077 1.4428 0.285452)
(-0.248256 1.69501 0.282199)
(-0.207272 1.70463 0.22078)
(-0.229408 1.65842 0.3755)
(-0.0177565 0.800548 0.484837)
(-0.237034 1.24938 0.794662)
(0.00349284 0.832501 0.31019)
(0.212626 0.666438 -0.0810943)
(-0.0808214 1.22487 0.0215423)
(0.028837 0.918434 0.226542)
(0.0138678 1.23603 0.0295497)
(0.0551775 1.02942 -0.0570984)
(-0.352731 1.06819 0.805464)
(-0.00224816 0.555278 -0.11363)
(0.0909734 0.467564 -0.118661)
(0.0406784 0.583243 -0.147071)
(-0.0200946 0.702941 -0.224239)
(-0.046708 0.744918 -0.171528)
(-0.037001 0.729712 -0.148071)
(0.0408392 0.717986 -0.245981)
(0.0100984 0.770607 -0.244854)
(0.0304747 0.764068 -0.28714)
(-0.00303558 0.749546 -0.319454)
(-0.0250502 0.752375 -0.232095)
(-0.00472186 0.763657 -0.2306)
(-0.0157529 0.732871 -0.257025)
(0.0138251 0.756035 -0.255553)
(0.0263891 0.752948 -0.285418)
(-0.0038061 0.727121 -0.302517)
(0.0324962 0.552929 -0.304701)
(-0.00719172 0.561499 -0.273363)
(-0.00284842 0.615903 -0.200563)
(-0.0104132 0.586775 -0.22565)
(0.00636211 0.602317 -0.233822)
(-0.0166593 0.538323 -0.273909)
(0.0301922 0.578716 -0.291976)
(-0.00378255 0.541371 -0.176343)
(0.000450191 0.54168 -0.186205)
(-0.0173732 0.547466 -0.198687)
(-0.00390393 0.461658 -0.167927)
(0.0161674 0.484005 -0.13807)
(0.0320172 0.472793 -0.143936)
(-0.0160119 0.460658 -0.180895)
(-0.00742148 0.428568 -0.331775)
(0.00770239 0.490716 -0.226385)
(0.0113817 0.486378 -0.274599)
(-0.0558956 0.418637 -0.285876)
(-8.0122e-05 0.450986 -0.241437)
(0.0113475 0.420441 -0.294494)
(-0.0325881 0.3848 -0.339774)
(-0.00467946 0.36202 -0.690238)
(0.00311722 0.521156 -0.726015)
(0.00566485 0.454164 -0.784857)
(-0.0404133 0.34319 -0.535013)
(-0.0245307 0.414313 -0.497912)
(0.0982238 0.241392 -0.865819)
(-0.0167522 0.465564 -0.965738)
(-0.0149161 0.530286 -0.861414)
(0.056773 0.33095 -0.869716)
(0.136203 0.124119 -0.808743)
(0.0328286 0.287456 -0.909558)
(0.0971606 0.0675631 -0.792506)
(0.00192397 0.369021 -1.03799)
(-0.0836416 0.179524 -1.14689)
(-0.061974 0.245842 -1.04998)
(0.461704 -0.220964 -1.09516)
(0.100465 -0.17565 -1.28496)
(-0.0971355 -0.458884 -1.43473)
(0.40698 0.00992562 -1.08831)
(0.286681 -1.92698 -0.72069)
(0.19252 -2.43037 -0.372856)
(-0.0684581 -2.74987 0.09771)
(-0.0665668 -2.29862 -0.272736)
(0.0566967 -3.10984 0.18976)
(0.0794732 -2.53044 -0.105401)
(-0.135547 -2.24499 -0.517864)
(-0.128918 -0.857609 0.749928)
(-0.00601812 -1.08718 0.841378)
(-0.15205 -0.731553 0.77967)
(0.0556055 -1.14834 0.959777)
(0.0832519 -1.0394 1.07439)
(-0.0911326 -0.786604 0.840358)
(-0.139272 -1.01006 0.793645)
(-0.00160323 -1.42602 1.20722)
(0.0294827 -1.29595 1.32294)
(0.0489895 -1.37275 1.2614)
(-0.0364993 -1.3759 1.29761)
(-0.041418 -1.27348 1.31961)
(-0.0566784 -1.38722 1.39423)
(-0.0635634 -1.34696 1.42758)
(0.0217338 -1.3074 1.37435)
(0.0368143 -1.35213 1.32816)
(-0.00658211 -1.61594 0.953258)
(-0.0193122 -1.48745 0.956319)
(-0.00796483 -1.33013 0.934572)
(-0.0193637 -1.38537 1.00191)
(-0.0198852 -1.50276 1.03666)
(-0.000658203 -1.23683 1.01409)
(-0.0289403 -1.32788 1.0827)
(-0.00380475 1.07571 -0.500856)
(-0.0301798 1.12566 -0.612875)
(0.0141825 1.35202 -0.937116)
(0.103568 1.33375 -1.15572)
(0.0462278 1.4184 -1.15911)
(-0.0216903 1.22868 -0.815282)
(0.0152384 1.14314 -0.722656)
(-0.0455022 1.41592 -0.689528)
(-0.0233483 1.3937 -0.682097)
(0.00725944 1.20733 -0.641659)
(-0.0466657 1.48855 -0.655597)
(-0.0208366 1.52567 -0.688668)
(-0.0347942 1.39196 -0.628515)
(0.00260508 1.40069 -0.652585)
(-0.0128585 0.786933 -0.382839)
(-0.0310033 0.758055 -0.333306)
(-0.00512833 0.938815 -0.420737)
(-0.0082451 1.09908 -0.494256)
(0.0439575 1.17322 -0.601653)
(-0.000930828 0.871598 -0.419083)
(-0.0343847 0.828851 -0.346681)
(0.249248 1.96077 0.106905)
(-0.149179 1.62099 0.443286)
(-0.101472 0.949487 -0.0134294)
(-0.0192402 1.16744 -0.0281138)
(-0.543711 1.39393 0.546429)
(-0.143618 0.850483 -0.294403)
(0.0931453 0.798127 -0.352709)
(0.022841 0.524202 -0.532557)
(0.0419848 0.647213 -0.318056)
(-0.0478946 0.731285 -0.487658)
(0.333717 2.67375 1.46917)
(0.317986 2.15714 0.612961)
(0.0769317 1.12381 -0.054073)
(-0.00452761 0.866746 -0.209464)
(0.647092 2.00297 0.617207)
(0.383442 1.79863 0.61705)
(-1.06472 1.66047 0.798783)
(-0.465876 2.12751 1.22843)
(-0.111973 0.702104 0.0594156)
(0.859378 1.43468 -0.012606)
(-0.422637 1.44791 0.170569)
(1.18369 2.65105 -0.54349)
(-0.0768639 1.38092 -0.121348)
(-0.0644961 2.51096 1.27192)
(-0.598593 1.20536 0.420879)
(-0.0156092 1.01019 -0.366799)
(-0.1657 1.22589 -0.442081)
(-0.111579 0.709753 -0.91853)
(0.174793 2.73552 0.0761282)
(-0.0448262 2.29874 -0.0863415)
(-0.277749 1.66832 0.121306)
(-0.174376 2.58348 0.271917)
(-0.198926 2.94545 0.663231)
(0.0237884 3.36629 0.585724)
(0.26515 1.9055 -0.020513)
(1.46352 0.336196 -0.234123)
(0.338212 2.35015 0.628901)
(0.501642 0.986069 0.338875)
(0.0413875 3.36375 0.70426)
(-0.0462057 2.95058 0.358407)
(-0.0112654 2.92798 0.598668)
(0.391094 1.57218 -0.110105)
(-0.0364159 2.46398 -0.54901)
(-0.0184606 2.37667 -0.220512)
(0.0250639 3.59393 0.348093)
(0.196123 3.02582 0.414249)
(0.422606 1.82805 0.075069)
(-0.203987 1.50712 0.00860467)
(-0.473587 2.56415 0.480768)
(-0.526268 1.83825 -0.0210373)
(-0.304512 1.47907 -0.212856)
(-0.097103 0.886927 -0.46696)
(-0.0352544 0.609842 -0.330518)
(0.0369822 0.708605 -0.407723)
(-0.00558906 0.593447 -0.472048)
(-0.0477732 0.502569 -0.374095)
(0.00376297 0.587452 -0.390156)
(-0.0419894 0.462225 -0.371887)
(0.0118829 0.58505 -0.403564)
(-0.0520218 1.62865 -0.136223)
(-0.0759365 2.25119 -0.0773726)
(-0.178143 0.876185 -0.322655)
(-0.0930827 0.635889 -0.39941)
(-0.158079 0.80113 -0.431965)
(0.0495595 1.74034 -0.650457)
(0.0304499 0.963114 -0.213053)
(0.0494954 0.822658 -0.358291)
(0.0828604 0.993791 -0.311499)
(-0.0502353 0.88311 -0.363572)
(-0.0101462 0.758548 -0.453452)
(0.112207 1.2106 -0.312794)
(0.0107962 0.976759 -0.412322)
(0.00894178 0.833259 -0.524274)
(0.041256 0.984142 -0.435477)
(-0.0211046 0.479392 -0.42813)
(0.0373112 0.542521 -0.420314)
(0.0182602 0.611185 -0.386522)
(0.0156138 0.701758 -0.368191)
(0.0161214 0.631857 -0.351515)
(0.0426328 0.299909 -0.292132)
(-0.0421219 0.309465 -0.49477)
(0.00562259 0.416531 -0.421138)
(0.0138632 0.474685 -0.368969)
(0.0329655 0.509279 -0.437028)
(0.0305944 0.489813 -0.424607)
(0.0599206 0.37653 -0.325618)
(0.0224251 0.111305 -0.844049)
(-0.269178 -0.038388 -0.939102)
(-0.155272 -0.162767 -0.695841)
(0.0468822 0.526962 -2.04283)
(-0.00889927 0.410331 -2.07823)
(-0.0493153 0.0922949 -2.28022)
(0.0432197 -0.10137 -2.58967)
(-0.0755481 0.11624 -2.72392)
(-0.0788866 0.346404 -2.31121)
(-0.0471227 0.367831 -2.34238)
(0.0855299 0.265249 -1.3603)
(0.270129 -0.209385 -1.84055)
(0.0132914 0.62254 -1.43499)
(0.0811555 0.269577 -1.72294)
(0.112144 0.0457491 -1.79667)
(-0.0246613 0.473602 -1.86353)
(-0.0558261 0.670347 -1.68972)
(0.0830014 0.0964478 -1.7888)
(0.0934143 0.326098 -1.75943)
(0.055749 0.254781 -1.14796)
(0.174171 0.00442866 -0.869317)
(-0.0561489 0.227567 -1.37278)
(0.0276421 0.170827 -2.76161)
(0.0619507 -0.0351901 -2.65288)
(0.0518625 0.00893777 -2.14456)
(-0.0479606 0.236243 -2.75684)
(-0.0898552 -0.0171168 -2.78115)
(0.0517343 -0.158345 -2.46098)
(-0.00372564 0.161058 -2.77236)
(-0.0253457 0.198114 -2.72075)
(-0.00437932 0.0331326 -2.67579)
(0.0632113 0.0836984 -1.73688)
(0.0739613 0.146873 -1.79268)
(0.0523231 -0.0361311 -1.49917)
(-0.0655222 0.164799 -2.04362)
(-0.00131998 0.230741 -2.24168)
(-0.0222742 0.0234478 -2.40124)
(-0.0777204 0.166859 -2.27582)
(0.117645 0.0993166 -1.89025)
(-0.0129965 0.0739468 -1.90731)
(0.0516223 0.277009 -2.21195)
(-0.00125212 -0.0352422 -2.94614)
(-0.0482273 0.0542626 -2.51215)
(-0.00635968 0.092664 -2.15202)
(0.0504653 -0.00868745 -2.7606)
(-0.0598493 0.0941432 -2.60678)
(-0.0374989 0.0725787 -2.47487)
(0.046466 -0.0216454 -2.51426)
(-0.0938492 0.06211 -2.24803)
(-0.118842 0.206548 -2.43411)
(0.0259622 -0.341871 -1.42797)
(-0.0346085 0.0640733 -2.40915)
(-0.0277631 0.141394 -2.65159)
(-0.114542 0.178371 -2.60367)
(-0.0849482 0.10951 -2.61264)
(0.0528656 0.383049 -2.5163)
(0.0276097 0.594618 -2.14966)
(0.0637161 0.64372 -2.30725)
(-0.179074 0.229566 -2.32294)
(-0.0937952 0.363292 -2.1565)
(-0.0245218 0.482112 -2.23538)
(-0.0813634 0.231154 -2.29673)
(-0.0611109 0.233544 -2.63247)
(-0.236483 0.493997 -2.41107)
(0.0473947 0.119924 -2.76521)
(-0.030781 0.291924 -2.73735)
(0.0119559 0.167676 -2.69308)
(-0.0765515 0.374712 -2.57951)
(-0.0531867 0.239907 -2.58106)
(-0.0358632 0.241208 -0.894459)
(-0.0171047 0.138686 -0.810542)
(-0.018721 -0.108204 -0.66962)
(-0.0419478 0.293851 -0.753527)
(-0.0544976 0.207898 -0.636596)
(-0.0229214 0.253713 -0.423586)
(-0.0293252 0.0116896 -0.432314)
(-0.0594003 -0.109705 -0.467427)
(-0.0129584 0.0831889 -0.461823)
(-0.00702868 0.0627751 -0.359016)
(-0.0320674 -0.070886 -0.654279)
(-0.00559823 0.0558075 -0.580997)
(-0.0158077 0.0450934 -0.506717)
(-0.0366814 -0.118431 -0.592159)
(-0.00259693 -0.13656 -0.433513)
(-0.06344 -0.0720299 -0.417209)
(-0.00810098 -0.17728 -0.575017)
(-0.0428687 0.227622 -0.344248)
(0.0956786 0.116886 -0.367844)
(0.145074 0.176902 -0.486433)
(0.0382439 0.328725 -0.508682)
(-0.0916697 0.516686 -0.657018)
(0.000792284 0.295225 -0.59279)
(-0.0178183 0.413542 -0.571978)
(-0.0153109 0.43935 -0.576921)
(0.0543252 0.423813 -0.543735)
(-0.119305 0.591917 -0.58242)
(0.043877 0.501984 -0.546506)
(0.046437 0.501368 -0.573969)
(-0.0615955 0.543062 -0.675748)
(0.0436929 0.46973 -0.594132)
(0.04962 0.365776 -0.615958)
(0.0230671 0.559348 -0.524134)
(-0.0474851 0.498287 -0.629448)
(-0.0551987 0.573055 -0.557845)
(0.0258236 0.437844 -0.650717)
(0.00942541 0.530576 -0.595833)
(0.048389 0.44953 -0.671903)
(0.0398013 0.509288 -0.646845)
(0.0121593 -2.58359 0.0402774)
(0.0301873 -2.56946 0.0630227)
(-0.0268382 -2.48063 0.072048)
(-0.0241264 -2.33195 0.166967)
(0.0375763 -2.42864 0.204068)
(-0.051269 -2.2412 0.255585)
(0.0299031 -2.23553 0.344476)
(-0.145003 1.5851 -0.445696)
(-0.0139842 1.01191 -0.255155)
(0.075702 1.56886 -0.0486818)
(0.120417 1.08724 -0.420052)
(0.372587 1.11193 -0.187743)
(0.413131 1.59863 -0.0914431)
(0.0129372 1.61107 -0.573951)
(-0.0254391 1.82789 -0.517087)
(0.0344361 1.78996 -0.427565)
(-0.0136426 1.76418 -0.552982)
(0.141875 1.65192 -0.671163)
(0.0349472 1.5028 -0.686375)
(-0.165897 1.20403 -1.0179)
(0.136751 1.48979 -0.812398)
(-0.0178815 1.25312 -0.692726)
(-0.0168039 0.986979 -0.61601)
(-0.0299938 0.874017 -0.561696)
(0.0754725 0.999062 -0.501074)
(-0.0155764 0.83088 -0.45567)
(0.00484152 0.0985516 -0.446053)
(-0.00610569 0.0949524 -0.526614)
(-0.0368885 0.20923 -0.515874)
(-0.0300673 0.335481 -0.572211)
(0.00427121 0.006631 -0.554988)
(-0.0748842 0.0514123 -0.584334)
(-0.0953344 0.254596 -0.53894)
(-0.0101361 1.6178 -0.394094)
(0.0356296 1.89284 -0.251091)
(-0.135811 1.23213 -0.550831)
(0.0100394 2.14242 -0.207972)
(-0.0133245 1.91391 -0.268846)
(-0.144345 1.51541 -0.479405)
(-0.0491205 1.90952 -0.295743)
(0.0459671 3.95908 0.00215332)
(-0.0146036 3.94266 0.0244727)
(-0.00287601 3.76838 0.0948768)
(-0.0461712 3.99312 -0.0768765)
(-0.0482911 4.06678 -0.0996628)
(-0.0143298 3.83243 -0.0301477)
(-0.0156745 3.91862 -0.0543396)
(-0.301037 3.63768 0.0846191)
(-0.254158 5.72995 0.242798)
(-0.238021 5.28439 0.148401)
(0.0558357 7.30901 0.151133)
(-0.195522 5.87683 0.0411114)
(-0.20414 6.78885 0.185138)
(-0.219912 5.98098 0.161712)
(-0.0152393 5.64554 -0.0986411)
(0.020398 5.44801 -0.0224122)
(0.0456593 5.56189 -0.0514943)
(-0.107379 5.56097 0.00717261)
(0.014633 5.45885 -0.0501105)
(-0.0935204 5.39736 -0.0143216)
(-0.0519738 5.52127 -0.00986235)
(0.110561 5.44549 -0.0483059)
(0.222638 4.40402 -0.0300652)
(-0.0548335 5.53503 -0.243866)
(-0.00546364 5.82194 -0.00104381)
(-0.10224 5.69745 -0.0951556)
(-0.0842627 5.66947 -0.179307)
(-0.0507744 5.87943 -0.0976153)
(0.110046 6.01004 0.0465647)
(-0.0623227 5.64082 -0.0195991)
(-0.0160069 5.77165 0.0150679)
(0.00308411 5.62278 -0.0723729)
(0.0633157 5.25658 -0.0898489)
(-0.0578795 5.59587 -0.0569646)
(-0.102205 4.26362 0.0768998)
(-0.0733291 5.36377 -0.110433)
(0.0523753 5.74593 -0.347612)
(0.0164106 5.27973 -0.237842)
(0.117387 5.57548 -0.175537)
(0.0209077 5.3886 -0.102004)
(0.0660965 5.61116 -0.0719041)
(0.0818282 5.65077 -0.193088)
(-0.235763 5.10217 -0.0432714)
(-0.0318668 5.16273 -0.0152906)
(-0.180157 4.91234 0.0873566)
(0.036086 2.25547 -0.232691)
(0.00716355 1.47181 -0.126075)
(-0.0345484 1.86249 -0.179537)
(-0.0402563 1.72214 -0.164716)
(-0.00918574 1.55448 -0.31597)
(-0.00608831 1.89927 -0.320317)
(0.0121975 2.34347 -0.21156)
(-0.101836 1.82747 0.251906)
(-0.246207 2.15081 0.309235)
(0.0418829 1.4052 0.0372098)
(0.129703 1.81905 -0.0674583)
(0.0586232 1.735 -0.186293)
(-0.00916829 2.01892 0.0920061)
(0.0573364 1.86559 0.149665)
(-0.0157269 0.926986 -0.0452719)
(0.100267 0.729551 0.00637547)
(0.00344817 0.696536 0.0238434)
(-0.0639831 0.995584 -0.0391189)
(-0.0782487 0.980161 -0.0484968)
(-0.101236 0.792537 0.097685)
(-0.167852 0.690091 0.111423)
(-0.00368894 0.553819 -0.0583516)
(0.16691 0.426691 -0.0184804)
(-0.0090746 0.660197 -0.0599522)
(0.00506336 0.825268 -0.197207)
(0.00602365 0.830304 -0.169538)
(-0.0153661 0.843482 -0.204429)
(0.000716443 0.805165 -0.192389)
(-0.0481569 0.859184 -0.161294)
(-0.0304849 0.821103 -0.190801)
(0.0225987 0.766515 -0.21723)
(-0.00654942 0.823779 -0.205701)