/*--------------------------------*- C++ -*----------------------------------*\
| =========                 |                                                 |
| \\      /  F ield         | OpenFOAM: The Open Source CFD Toolbox           |
|  \\    /   O peration     | Version:  v2012                                 |
|   \\  /    A nd           | Website:  www.openfoam.com                      |
|    \\/     M anipulation  |                                                 |
\*---------------------------------------------------------------------------*/
FoamFile
{
    version     2.0;
    format      ascii;
    class       volScalarField;
    location    "0.25";
    object      p;
}
// * * * * * * * * * * * * * * * * * * * * * * * * * * * * * * * * * * * * * //

dimensions      [1 -1 -2 0 0 0 0];


internalField   nonuniform List<scalar> 
24700
(
-395.546
-435.701
-348.216
-410.446
-428.569
-310.458
-360.586
-419.749
-447.427
-457.088
-422.855
-449.333
-440.786
-378.409
-405.306
-429.329
-412.921
-219.689
-250.407
-257.109
-203.155
-185.567
-248.134
-235.544
-169.509
-211.059
-201.352
-206.374
-195.993
-2.86599
-2.88882
-2.91337
-2.81602
-2.79466
-2.86254
-2.81053
-1.17321
-1.42276
-1.29213
-1.33729
-1.32387
-1.47904
-1.25714
-3.20945
-3.28811
-3.21298
-3.1627
-3.20311
-3.25489
-3.1732
-3.52984
-3.534
-3.63114
-3.49784
-3.4669
-3.4886
-3.52711
-5.36097
-3.27173
-5.16773
-5.50517
1.62016
-4.16932
-6.13089
-2.85384
-2.87904
-2.85513
-2.84667
-2.8478
-2.86492
-2.84958
-2.68422
-2.68744
-2.71538
-2.70729
-2.68864
-2.6912
-2.68979
-40.6876
-5.04377
-30.6026
-19.6399
-5.06404
15.8035
-44.4899
-2.58068
-2.54807
-2.57709
-2.56897
-2.53829
-2.53505
-2.55026
-2.72847
-2.73879
-2.72963
-2.72773
-2.71994
-2.73468
-2.7246
-3.03013
-2.99195
-3.00572
-3.07628
-3.03907
-3.01595
-3.0468
-5.45683
-5.77977
-5.1555
-4.5147
-4.63969
-5.10766
-4.97384
-2.61181
-2.6615
-2.59985
-2.57152
-2.50645
-2.53576
-2.60557
-2.61095
-2.64105
-2.70003
-2.8545
-2.89228
-2.84133
-2.8082
-2.74931
-2.83732
-2.78966
-2.85842
-2.86477
-2.92324
-2.88011
-2.81726
-2.66645
-2.71057
-2.6979
-2.75292
-2.72565
-2.69538
-2.72715
-2.72926
-2.71949
-2.72695
-2.73917
-2.72902
-2.72288
-2.73168
-3.21237
-3.28643
-3.20521
-3.21034
-3.1633
-3.25411
-3.16973
-3.98994
-3.85523
-4.00852
-4.10692
-4.04958
-3.94864
-4.05302
-2.78104
-3.04046
-3.62214
-2.12948
-2.41942
-3.03919
-2.60399
92.8865
81.988
91.7914
96.2391
58.0382
108.327
90.7304
101.717
102.335
103.26
102.939
102.552
102.954
101.539
99.9648
110.05
103.848
79.9052
91.8644
91.8033
92.9719
-4.06388
-4.03748
-3.99566
-3.94425
-3.91724
-3.98908
-3.989
-3.60792
-3.61832
-3.62957
-3.66244
-3.60513
-3.60919
-3.64818
-10.6172
5.57342
8.2421
9.29885
11.3289
8.79868
-1.69022
-2.5176
-2.50037
-2.52826
-2.57054
-2.51583
-2.50758
-2.54607
-5.20513
-5.32857
-5.08795
-5.30703
-5.62653
-5.20695
-5.42385
-9.03559
-8.01678
-8.42918
-7.909
-8.91794
-7.88651
-8.89142
-4.30082
-4.08155
-4.44003
-4.4011
-4.41588
-4.24323
-4.40117
96.1547
94.9546
97.8854
93.4515
92.9581
94.9427
97.1629
111.166
108.282
109.264
110.433
108.171
109.363
346.901
296.916
310.032
316.26
409.407
316.701
631.136
640.731
619.884
618.838
404.107
477.404
597.547
336.346
275.505
330.811
411.48
360.469
359.348
353.918
185.011
222.641
168.772
209.951
192.658
169.603
202.957
30.8825
59.7861
79.7117
34.0612
17.8055
24.0457
41.6351
8.29486
7.27629
20.8391
1.55184
1.83481
9.79066
5.22664
6.74703
-0.515662
-1.97637
-4.72524
-1.85978
-0.984079
-0.572743
-4.38187
-3.08372
-3.2442
-2.964
-3.12596
-2.90895
-3.6533
-3.81931
-3.82342
-3.76518
-3.38427
-3.83641
-3.71107
-3.55697
-3.59778
-3.5573
-3.55973
-3.55758
-3.56542
-3.54077
-3.57952
-3.05615
-3.0787
-3.07893
-3.11373
-3.07041
-3.09758
-3.05829
-2.73442
-2.74693
-2.76227
-2.78892
-2.76239
-2.76658
-2.74715
-2.09209
-2.01093
-1.96739
-2.21569
-2.22327
-2.12678
-2.10798
-1.32971
-1.46943
-1.48502
-1.60639
-1.47529
-1.53348
-1.40392
-1.82241
-1.88296
-1.91487
-1.99728
-1.96424
-1.95164
-1.90075
-2.18985
-2.25717
-2.17748
-2.19596
-2.1085
-2.24167
-2.17102
-2.42589
-2.40063
-2.47097
-2.30804
-2.37276
-2.41561
-2.36958
-2.4872
-2.50798
-2.45363
-2.53869
-2.56943
-2.53549
-2.50367
-2.71017
-2.66574
-2.69694
-2.72555
-2.75317
-2.69521
-2.7271
-2.67566
-2.66418
-2.68194
-2.69207
-2.66475
-2.66492
-2.68653
-2.72893
-2.73838
-2.72814
-2.71972
-2.72726
-2.73426
-2.72427
-2.76652
-2.76543
-2.77866
-2.76624
-2.76027
-2.76155
-2.77554
-1.60782
-12.1948
5.22723
-5.845
4.58793
-3.11382
-9.08969
-9.17824
-9.08224
-8.96722
-8.91973
-8.82882
-9.23952
-9.22716
-10.434
-11.0724
-10.4638
-11.0882
-11.8116
-10.5559
-11.016
91.7952
98.3368
105.636
152.177
87.278
123.106
93.3438
134.292
168.644
154.603
197.247
143.726
173.938
182.183
178.496
151.508
202.534
175.741
159.976
142.404
133.779
156.632
98.1208
116.095
105.038
97.8709
155.565
104.915
202.082
132.379
121.426
112.048
111.704
110.775
110.143
108.596
110.758
110.237
-3.36194
-3.55658
-3.35162
-3.65856
-3.65302
-3.57277
-3.58139
-3.14518
-3.09025
-3.1783
-3.17903
-3.13268
-3.1095
-3.17199
-3.24131
-3.16909
-3.24238
-3.27087
-3.24306
-3.20698
-3.25477
-3.66526
-3.63564
-3.63681
-3.68524
-3.71031
-3.66805
-3.65703
-3.23795
-3.23678
-3.27037
-3.27166
-3.33464
-3.24873
-3.28421
-2.94605
-2.92787
-2.94641
-2.96998
-2.93063
-2.92645
-2.96572
-2.93938
-3.07025
-3.11081
-3.27066
-3.1137
-3.1876
-3.0347
1.3462
0.610705
1.36812
3.85268
1.13602
0.821193
1.58469
-1.68828
-1.6099
-1.68745
-1.50558
-1.56117
-1.58999
-1.62278
-2.85987
-2.83833
-2.8317
-2.8125
-2.82406
-2.82573
-2.84327
-2.78357
-2.76635
-2.76219
-2.74674
-2.75014
-2.75404
-2.76467
-2.23057
-2.25186
-2.22238
-2.2098
-2.22254
-2.22639
-2.21446
-9.46055
-10.1062
-10.6323
-9.84473
-10.4252
-9.64302
-10.7424
-7.30751
-6.37575
-6.10549
-5.33139
-6.48296
-5.54711
-7.15588
-6.20004
-5.28721
-5.59625
-4.51077
-6.0413
-6.98729
-4.61296
114.011
90.4513
82.6473
85.9565
95.5614
85.2949
76.383
93.7187
96.464
95.8564
96.1829
96.4696
96.5337
95.0835
347.193
251.096
354.634
384.052
245.979
213.126
362.436
604.298
655.888
693.255
511.228
655.614
689.388
630.765
-2.97917
-2.97284
-3.37981
-3.05726
-3.07513
-2.89744
-3.30829
-3.23663
-3.16656
-3.07204
-2.72292
-3.34051
-2.83591
-3.24061
-0.240057
-8.52125
-17.9867
-16.532
-1.59647
-10.9269
-7.93152
-3.77463
-3.78031
-3.78687
-3.80163
-3.77945
-3.78889
-3.77262
-4.00792
-3.78445
-3.80122
-3.7355
-3.65712
-3.70135
-3.8444
-3.30691
-3.38989
-3.34533
-3.38067
-3.31799
-3.38827
-3.31692
-4.71389
-2.22498
-4.60689
-3.14326
-3.32256
-3.02489
-3.01937
-3.0464
-2.5132
-3.1202
-0.526728
-2.40686
-6.05892
-0.229298
-4.64784
-4.44274
-5.45804
-2.31573
-1.5074
-1.83612
4.03947
-4.4117
-2.00534
-0.693945
0.914809
-0.726863
0.673194
1.05195
1.71748
-2.7471
-2.73136
-2.73292
-2.77044
-2.75279
-2.73886
-2.74929
-2.6898
-2.67961
-2.70223
-2.71841
-2.69039
-2.69174
-2.6874
-2.17287
-2.17336
-2.16693
-2.17905
-2.17094
-2.17343
-2.17482
-2.16381
-2.16762
-2.16527
-2.16071
-2.17391
-2.16821
-2.16298
-1.98886
-1.98291
-1.97162
-1.95095
-2.00345
-1.95803
-1.99834
-2.18477
-2.23453
-2.33012
-2.22347
-2.19493
-2.28137
-2.18976
-4.41713
-3.96369
-4.40821
-4.21192
-4.73265
-4.07023
-4.38923
-6.34894
-6.18129
-6.09339
-6.15287
-6.14187
-6.34973
-6.1652
-2.13192
-2.43169
0.882245
-1.17143
-3.63011
-5.40145
0.794346
0.681405
-3.07544
1.47101
-1.39064
-7.24467
97.146
97.5082
96.9747
96.2541
96.677
97.2712
96.5355
98.1327
100.199
100.168
99.4854
95.5403
99.8792
104.04
30.5784
31.6327
40.7384
17.768
18.9218
22.8153
26.0542
-1.71127
-1.12651
-4.15654
-2.61454
1.73173
-3.15817
-6.88793
-2.12217
-2.20678
-2.02252
-1.98839
-1.88157
-2.13868
-2.03802
-2.3978
-2.36984
-2.05425
-2.28226
-1.94607
-2.24899
-2.32208
-2.99224
-3.06233
-2.79408
-2.98984
-3.1761
-3.04322
-2.7196
-4.02347
-4.03273
-4.09702
-4.1267
-4.15869
-4.07255
-4.08665
-4.93517
-4.75561
-4.83848
-5.07048
-5.00939
-4.85284
-4.94584
-9.83082
-9.02054
-7.15637
-29.3755
-14.0304
-12.8487
-19.5721
-6.77265
-11.2049
-20.3825
-25.668
-10.5094
-3.11966
-3.07553
-2.93681
-3.11343
-3.2819
-3.20142
-3.03849
-2.67009
-2.73101
-2.64764
-2.63286
-2.67595
-2.70773
-2.63867
-2.63645
-2.64989
-2.6182
-2.62928
-2.64329
-2.64794
-2.62071
-2.9045
-2.91331
-2.93821
-2.89802
-2.90989
-2.91848
-2.94291
-2.93574
-2.92972
-2.92711
-2.93004
-2.91294
-2.91295
-2.94197
-2.94509
-2.93647
-8.19021
5.11124
4.74758
-2.67716
7.9301
0.637655
1.34219
-2.59948
-2.55437
-2.58473
-2.58127
-2.62341
-2.56478
-2.60248
-2.23533
-2.23692
-2.21828
-2.23111
-2.2529
-2.24711
-2.22474
-2.02267
-2.04682
-2.04638
-2.05432
-2.05262
-2.04979
-2.03491
-1.88363
-1.86867
-1.85637
-1.83193
-1.85095
-1.85284
-1.86471
-1.65713
-1.63373
-1.65147
-1.68863
-1.62653
-1.62551
-1.66919
-3.40619
-3.46051
-3.08953
-2.58809
-3.35252
-3.09932
-3.52718
-4.48004
-4.04047
-4.52504
-4.5564
-4.89975
-4.21217
-5.14256
-0.032043
0.360532
-0.491396
-1.14678
-0.0882595
-1.31297
-0.363655
0.801626
-0.325154
1.03521
-1.5323
-1.55931
-2.49519
0.945785
-34.8682
-144.209
-123.898
188.246
50.7515
23.452
-71.3495
52.7584
-7.42859
-60.3403
41.051
-14.5275
151.969
-20.5138
256.523
26.5493
-45.5453
-1.32184
-1.43199
-1.43553
-1.18287
-1.34567
-1.43035
-1.32421
6.20359
12.5857
4.5232
2.08749
6.7243
7.98934
7.68202
-11.8314
28.7264
6.30576
0.862377
-3.27078
-6.3279
-12.0877
-2.90952
-2.5201
-2.22093
-2.86099
-2.86488
-2.93298
-2.83823
-6.92604
-6.34779
-7.18514
-6.65351
-7.29927
-6.74631
-6.7286
-12.7212
12.6537
10.438
2.58059
7.01524
-11.6753
4.81991
6.98
-34.2405
-4.43023
-2.70516
-2.73983
-2.73889
-2.787
-2.71892
-2.76182
-2.71144
-2.94581
-2.79784
-2.93938
-2.94643
-3.01178
-2.97255
-2.94837
-2.83893
-2.95744
-2.97304
-2.95795
-2.93115
-3.05086
-2.99917
-2.928
-2.73019
-2.98064
-2.955
-2.93872
-2.99873
-2.96449
-2.93135
-2.94542
-2.96041
-2.91752
-2.95931
-2.93333
-2.92025
-2.98643
-2.97279
-2.3771
-2.35535
-2.38099
-2.36665
-2.4085
-2.36676
-2.39615
-1.84723
-1.8279
-1.84908
-1.86197
-1.87069
-1.84464
-1.86554
-1.57399
-1.58328
-1.57323
-1.55358
-1.57433
-1.56718
-1.60206
-2.03889
-0.808816
-1.65798
-0.924606
-1.36609
-0.947938
-1.68596
-2.29086
-1.38888
-2.31712
-1.60707
-3.34432
-0.842556
-2.2915
89.4516
82.1681
91.3995
70.1493
92.0797
94.8801
90.8492
-1.51246
-0.817651
-0.00920597
-2.99648
0.117611
6.00778
-1.28165
-3.29586
-2.95205
-3.05054
-2.9846
-2.86348
-2.89385
-3.15839
111.787
97.9075
284.913
-0.633913
13.9763
48.449
59.5138
-7.80879
-21.5392
63.3244
50.514
127.523
3.75808
6.92228
15.3284
-2.93124
-2.98918
-2.94883
-2.96163
-2.87102
-2.97423
-2.89964
-3.28263
-3.2958
-3.30437
-3.24466
-3.27687
-3.28055
-3.26944
-3.44438
-3.39244
-3.28214
-3.48779
-3.4032
-3.49188
-3.33139
-7.9295
-8.75419
-8.49302
-8.97421
-7.98682
-8.92357
-7.8223
-9.93343
-10.4517
-9.63377
-9.30763
-9.0558
-9.98654
-9.43623
-7.81641
-8.45704
-8.62203
-9.88021
-9.52481
-9.22409
-8.78313
-4.84694
-4.06579
-4.47875
-4.7563
-4.51798
-4.41453
-4.68218
-5.10113
-4.66425
-4.81513
-4.5418
-4.81315
-4.5712
-4.85775
-4.55111
-5.16051
-4.76922
-4.04937
-4.2134
-4.52008
-4.10478
-4.49914
-4.59864
-4.60849
-4.73017
-4.59237
-4.76472
-4.53251
-6.44953
-7.12538
-6.24376
-6.47758
-6.28085
-6.63675
-6.088
-3.77016
-3.6547
-3.78323
-3.739
-3.93223
-3.66483
-3.84935
-2.87417
-2.865
-2.90991
-2.8627
-2.84651
-2.85744
-2.88721
-2.60333
-2.65287
-2.17947
-2.87626
-2.78814
-2.69876
-2.65797
-2.93036
-2.89918
-2.89757
-2.90097
-2.93328
-2.88249
-2.91488
-2.90474
-2.93861
-2.90503
-2.7102
-2.70345
-2.7443
-2.65599
-2.6806
-2.70587
-2.67535
-1.51708
-1.53282
-1.51246
-1.48023
-1.50878
-1.51536
-1.48866
-1.21278
-0.348235
-0.495203
-1.36605
-1.35016
-2.0549
-2.21473
-4.08921
-4.67916
-4.56403
-4.13077
-2.90898
-3.75494
-4.08167
-9.10785
-8.80076
-7.90639
-9.37219
-9.80684
-9.11522
-8.23745
-2.57293
-2.54062
-2.6297
-2.58174
-2.47623
-2.48038
-2.59839
-2.98215
-2.9076
-3.01954
-2.90694
-3.01552
-2.86269
-3.00048
-3.49849
-3.53701
-3.49454
-3.60242
-3.54426
-3.48608
-3.53769
-4.70988
-5.01767
-4.90797
-5.03208
-5.57334
-4.54296
-5.99892
-5.89411
-6.87722
-6.10674
-5.99356
-6.09062
-6.38665
-5.81947
-2.63919
-2.59576
-2.53605
-2.58771
-2.45726
-2.41717
-2.46929
-2.63066
-2.5806
-2.58114
-2.53808
-2.57566
-2.56375
-2.61333
-2.91732
-2.91371
-2.93503
-2.86061
-2.86963
-2.86501
-2.88761
-2.49517
-2.45597
-2.47707
-2.54831
-2.50945
-2.48404
-2.5149
-0.924204
-0.856671
-0.837642
-0.913668
-0.813465
-0.830737
-0.931581
-0.828695
-1.32652
-0.695403
-0.420649
-0.844367
-1.17082
-1.09406
-4.46057
-4.06508
-4.40069
-4.96765
-4.4511
-4.29063
-4.66747
-10.7558
-10.0385
-9.57266
-10.0391
-10.4712
-10.0612
-10.8746
-9.20711
-8.07617
-8.70633
-8.24787
-9.19097
-8.12915
-9.12589
-4.02506
-3.8613
-3.99733
-4.1092
-4.06437
-3.94873
-4.05196
-3.57861
-3.63182
-3.64636
-3.69007
-3.65878
-3.6627
-3.60774
-3.64792
-3.5942
-3.64715
-3.70774
-3.65783
-3.63919
-3.69604
-3.54162
-3.55856
-3.5137
-3.52315
-3.54015
-3.53101
-3.51509
-1.28095
-1.26007
-1.08646
-1.36085
-1.45811
-1.36141
-1.21498
1361.45
1015.25
870.121
1576.6
533.445
1472.76
612.656
771.088
1642.38
1788.12
1880.01
1499.49
304.734
338.36
536.962
113.168
1404.56
1616.9
-1.10833
-0.0789295
-0.98846
-1.19532
-0.874704
-0.869406
-0.939231
-4.29044
-4.39555
-4.28384
-4.47122
-4.05916
-4.11812
-4.71043
-4.52
-3.68188
-3.73229
-3.68215
-4.10102
-3.69454
-3.81128
-1.85634
-3.40724
-2.15504
-2.34409
-2.28906
-2.87008
-2.40669
-2.32192
-1.63164
-1.91817
-1.76659
-1.99933
-1.67805
-2.128
20.0855
12.9811
11.945
20.0099
19.6031
18.7136
19.6619
23.2599
18.025
23.0801
-5.48765
-5.33682
-5.58957
-5.80686
-5.71219
-5.46984
-5.61687
2.8966
7.77626
-7.74766
-1.05853
-10.3724
-1.90959
-6.37344
-2.56178
-2.43696
-2.42757
-2.19794
-2.48896
-2.36791
-2.54875
-2.17341
-2.1752
-2.18425
-2.16014
-2.1753
-2.17092
-2.1496
-2.28504
-2.30959
-2.30765
-2.33381
-2.30412
-2.3226
-2.29719
-2.35676
-2.37711
-2.38138
-2.40446
-2.35833
-2.39138
-2.36377
-2.86865
-2.84218
-2.87616
-2.86418
-2.86235
-2.94288
-2.83365
-2.87422
-2.8301
-2.77555
-2.79994
-2.86703
-2.95655
-2.87121
-2.84906
-2.79281
-2.97367
-2.85881
-2.87538
-2.89566
-2.81995
-2.81172
-2.7359
-2.8759
-2.80135
-2.90791
-2.88379
-2.8163
-2.81826
-2.03355
-1.92138
-1.87121
-1.7447
-1.76432
-1.80179
-1.88565
-1.06908
-1.03117
-1.03624
-1.01924
-1.02059
-1.02975
-1.04323
-0.609765
-0.689844
-0.647391
-0.560797
-0.568276
-0.531164
-0.671947
-0.659325
-0.57717
-0.801341
-1.57692
-1.52516
-1.9626
-1.99846
-2.0771
-2.28209
-2.33373
-2.48231
-2.23657
-7.01227
-7.41872
-6.51733
-6.63645
-7.13546
-6.69833
-6.30704
-3.17098
-3.10216
-3.14541
-3.13285
-3.17947
-3.11014
-3.17452
-2.09714
-2.43637
-2.45072
-1.81305
-2.266
-2.19819
-2.49898
11.5418
194.417
-7.75932
93.656
-44.1503
31.5539
-0.961663
-2.85848
-0.467354
2.879
-3.18135
6.31361
-3.02305
13.2757
36.6435
25.6602
0.599382
33.4326
30.676
24.079
22.7106
26.9779
34.9074
19.3134
16.8621
19.7766
27.3834
13.8995
14.6081
15.968
-4.14086
-4.45952
-4.22538
-3.63457
-4.16808
-4.62431
-3.82256
-3.63654
-3.635
-3.66537
-3.71023
-3.68518
-3.66757
-3.65669
-3.20951
-3.13514
-3.22986
-3.32832
-3.29564
-3.32912
-3.26365
4.97647
7.49686
12.1986
-7.23504
5.21271
5.10363
1.86577
-2.18143
-2.19877
-2.18418
-2.1768
-2.17589
-2.1806
-2.18182
-2.17203
-2.17915
-2.17195
-2.17367
-2.17114
-2.17096
-2.17289
-2.15565
-2.15881
-2.15733
-2.14492
-2.1587
-2.1559
-2.15825
-2.23401
-2.25694
-2.23092
-2.21737
-2.23636
-2.24677
-2.2256
-2.14915
-2.17516
-2.1655
-2.1841
-2.15042
-2.17892
-2.15167
-2.63582
-2.68718
-2.62523
-2.58262
-2.62172
-2.64151
-2.57992
-1.27761
-1.41974
-1.128
-1.3022
-1.2451
-1.41172
-1.22054
-0.999247
-1.01354
-1.00807
-1.00276
-1.02739
-1.00947
-1.01932
-0.875198
-0.876803
-0.86476
-0.874242
-0.820584
-0.828282
-0.864288
-0.883684
-0.851513
-0.868942
-0.869343
-0.769265
-0.876814
-0.835825
-0.622203
-0.658008
-0.538173
-0.502388
-0.556185
-0.475815
-0.558077
-0.495565
-0.576409
-0.63612
-2.14357
-2.08674
-1.86434
-1.67315
-2.29557
-2.2686
-1.75209
-1.5554
-1.61629
-1.43556
-1.43754
-1.61311
-1.40243
-1.39714
-3.56349
-3.68437
-3.81316
-3.51146
-3.11828
-3.29093
-3.5782
-4.6802
-4.32809
-4.44648
-3.95523
-4.2309
-4.44963
-4.2647
-8.10708
-8.4249
-8.38279
-7.84945
-7.35286
-8.10699
-8.04109
-6.40999
-5.92601
-6.07856
-5.80645
-6.07345
-5.90452
-6.33055
-3.1676
-3.10789
-3.37573
-3.50708
-2.26782
-2.52853
-3.2705
14.6003
-11.6555
7.46175
-5.28965
-9.56365
-2.75044
8.27369
-15.8928
32.041
17.6742
47.0179
10.2222
-4.63079
23.4953
63.6568
134.815
64.965
22.4419
34.5601
32.3423
-88.2682
46.0912
27.6002
-24.3532
8.90562
32.389
-95.562
12.0658
31.6911
26.6017
10.3169
120.766
65.6515
16.3118
4.18363
3.21497
1.87943
-2.37323
0.805071
-0.337836
-1.10987
-2.33014
-2.30931
-1.42734
-2.04411
-2.24902
-1.89262
64.6026
71.7161
5.0829
57.8789
55.691
62.6481
50.3866
15.2658
19.7753
11.5202
27.5163
18.0388
16.0019
14.5619
88.8554
87.4337
86.4793
76.8271
83.4025
75.2615
83.1067
1.16928
12.7635
3.00252
-3.09504
2.72803
2.71774
5.92422
-3.9781
-3.88738
-3.89149
-3.73097
-3.87223
-3.79647
-3.92932
-3.98805
-3.93985
-3.989
-3.98672
-4.04227
-3.95845
-4.01259
-3.77569
-3.80004
-3.78402
-3.7797
-3.77281
-3.78722
-3.76898
-1.59709
-2.51025
0.32783
6.07564
0.645499
-3.4817
-2.85424
-2.22233
-2.20543
-2.21135
-2.25387
-2.22676
-2.21847
-2.21996
-2.06169
-2.08526
-2.09695
-2.0275
-2.03283
-2.05627
-2.06551
-2.2745
-2.51645
-2.62055
-2.68315
-2.87506
-2.56483
-2.49177
-0.766191
-0.840444
-0.840961
-0.801333
-0.737963
-4.68695
-5.03817
-4.76701
-4.80855
-4.5047
-4.99935
-4.60945
-5.05907
-5.28994
-5.14009
-5.24981
-5.64927
-5.14661
-5.38603
-2.47232
-2.53804
-2.47002
-2.39166
-2.47203
-2.49132
-2.41942
-2.19319
-2.08922
-2.21446
-2.29299
-2.32954
-2.22188
-2.30048
26.0448
35.3555
-46.2435
28.7235
32.0116
29.9877
28.7182
30.5495
29.2311
22.8125
29.9521
47.8745
38.0874
39.4664
53.218
33.6121
34.8966
28.5114
23.3293
35.3817
25.9535
38.1622
60.4998
98.3171
112.524
193.301
141.601
219.447
101.827
147.924
169.824
146.282
216.635
174.275
195.395
141.276
169.671
172.901
138.765
258.986
142.129
166.099
178.213
168.297
191.665
153.899
219.903
223.076
242.288
215.439
197.463
209.915
228.541
239.549
238.363
251.813
232.073
219.098
220.799
194.19
215.045
243.432
228.516
209.284
228.569
238.183
236.886
253.139
241.968
220.038
207.576
134.561
217.791
198.928
270.661
156.486
255.547
84.6047
74.7435
65.9065
67.0321
96.777
70.7146
64.8876
0.496118
-1.18615
3.98087
-11.4981
0.709936
1.88479
2.47958
-2.63161
-2.96955
-2.62674
-2.81138
-2.8017
-2.72392
-2.64287
-4.07018
-3.48318
-3.38398
-4.30493
-3.45493
-3.11556
-3.65053
-3.40147
-3.32129
-3.36121
-3.37544
-3.37383
-3.34794
-3.37641
-3.75875
-3.74248
-3.75276
-3.74245
-3.7735
-3.73955
-3.76577
-2.34184
-2.3489
-2.36641
-2.41607
-2.3729
-2.38285
-2.35456
-1.81375
-1.92923
-2.01791
-1.79712
-1.63003
-1.81444
-1.93388
-2.36131
-2.26996
-2.34269
-2.32176
-2.49288
-2.29481
-2.43396
-2.61697
-2.35494
-2.24904
-2.35421
-2.50089
-1.61989
-1.74719
-1.5903
-1.49004
-1.60095
-1.60778
-1.74524
-1.5616
-3.90696
-3.82933
-3.88773
-3.78658
-3.75594
-3.829
-3.83526
-3.76715
-3.7843
-3.76875
-3.78197
-3.8191
-3.77916
-3.79961
-7.05024
1.30637
8.0725
-13.9518
-0.620562
-1.24993
-3.37326
-2.90171
-2.98123
-3.00946
-3.01503
-2.91109
-2.87701
-2.99677
-2.78446
-2.74756
-2.8235
-2.86924
-2.90195
-2.81323
-2.85385
-2.56924
-2.49216
-2.58766
-2.62987
-2.54451
-2.49097
-2.59579
443.935
682.144
426.096
606.251
569.533
682.935
489.302
735.6
858.086
789.591
762.259
836.273
905.553
791.845
893.129
566.403
658.705
296.859
171.607
233.61
147.563
241.287
171.79
295.116
84.8203
85.7115
81.4798
85.5333
83.5501
86.7083
81.7684
75.7359
44.8534
55.3946
73.0563
66.9635
49.652
57.4427
56.0882
56.4866
67.0444
73.9105
75.9509
101.712
196.47
97.0426
129.129
36.3394
49.0205
49.8842
48.5077
52.2804
224.152
176.796
157.709
262.915
159.717
178.111
321.915
333.751
219.849
246.899
869.479
706.961
653.844
702.564
706.169
673.5
766.222
876.613
807.466
776.681
899.378
796.174
798.606
776.969
762.43
711.217
925.265
795.853
762.757
719.666
935.717
64.4668
166.412
31.7714
27.0881
34.2353
72.1565
34.5809
-1.37363
-2.08188
-1.07734
-2.0095
-2.274
-2.28141
-1.4611
-4.7045
-4.32398
-4.16302
-4.12723
-4.31546
-4.12693
-4.8732
-3.60184
-3.79403
-3.70764
-3.96955
-3.94232
-3.73948
-3.80445
-3.31013
-3.29988
-3.28836
-3.27854
-3.24607
-3.28221
-3.27464
-3.62337
-3.6253
-3.66189
-3.61454
-3.63412
-3.62054
-3.65751
-2.88462
-2.85678
-2.8305
-2.87969
-2.99552
-2.92625
-2.85957
-1.69626
-1.69513
-1.7166
-1.69637
-1.67368
-1.68804
-1.70383
-1.50557
-1.53411
-1.49542
-1.50434
-1.48242
-1.52339
-1.50608
-1.32484
-1.26363
-1.26797
-1.25271
-1.23584
-1.28841
-1.25586
-1.03772
-1.07707
-1.02328
-1.02064
-0.992438
-1.05174
-1.04778
-2.41239
-2.43251
-2.48979
-2.37335
-2.31176
-2.37166
-2.4221
-2.79376
-2.75641
-2.83152
-2.82069
-2.88143
-2.7758
-2.68791
-2.72477
-2.79001
-2.9043
-2.8657
-2.76086
-2.69844
-2.58067
-2.70065
-2.73085
-2.7112
-2.62978
-2.69644
-2.6495
-2.67341
-2.74419
-2.93786
-2.86955
-2.79013
-143.266
-133.804
-124.978
-99.3035
-128.201
-143.825
-172.041
-121.399
-117.246
-2.93191
-2.63328
-3.02158
-2.18765
-3.57218
-2.24589
-3.20308
-3.23944
-3.12962
-3.01072
-2.93678
-2.86124
-163.878
-137.945
-147.804
-478.088
-498.368
-478.438
-474.146
-459.187
-460.808
-468.007
-479.639
-495.504
-490.697
-505.351
-483.171
-479.163
-468.017
-480.544
-490.455
-466.543
-481.335
-470.226
-499.443
-478.603
-478.797
-446.825
-470.14
-476.78
-459.768
-485.75
-509.327
-496.097
-500.287
-489.401
-483.74
-495.089
-485.706
-475.933
-489.442
-483.819
-476.458
71.1258
-12.9897
5.41553
-15.0742
-20.8222
-6.60832
-41.7769
-2.79372
-2.84377
-2.84912
-2.89808
-2.86782
-2.84448
-2.91258
-2.93249
-2.85803
196.651
217.234
219.732
241.679
225.424
216.66
235.268
243.062
224.113
230.808
232.121
249.49
205.29
215.487
183.688
-2.84907
-2.73888
-2.8195
-2.93156
-2.88811
-2.87473
-3.61318
-3.65771
-3.64912
-4.97243
-4.85392
-4.84977
-8.9431
-8.77244
-8.87606
-8.95581
-3.65438
-3.6674
-3.64032
-2.04325
-2.05275
-2.04951
-4.99505
-4.85731
-4.85756
-2.24042
-2.23462
-2.22177
-3.62239
-3.60718
-3.66613
-3.66056
-1.57685
-1.56211
-1.60179
-2.03368
-2.02198
-2.04904
-2.04285
-2.6954
-2.67869
-2.70392
-2.6548
-4.95198
-5.05657
-5.04368
-5.18222
-3.03611
-3.02944
-2.84449
-2.93079
-2.79177
-2.90646
-2.76774
-2.8336
-2.956
-2.82389
-5.03753
-4.94576
-5.18997
-5.05905
-2.775
-2.54292
-2.07088
-2.42107
-2.25131
-2.38203
-3.25085
-2.89472
-2.81456
-2.89268
-3.04118
-3.03238
-2.75704
-2.82726
-2.80414
-2.96696
-9.02866
-8.91229
-9.18246
-9.16401
-9.3196
-9.18619
-9.28355
-9.07937
-2.17542
-2.16958
-2.1732
-2.16684
113.704
123.431
147.63
138.17
-2.53017
-2.49935
-2.46206
-3.13685
-3.03417
-3.12831
-3.02256
2.44406
2.36642
-0.138604
-0.0557893
-3.79287
-3.93599
-3.7162
-3.67514
-2.15361
-2.08446
-2.0621
80.6997
82.4856
-1.88795
-1.36913
-2.24261
-1.69185
8.54882
0.315215
3.50925
18.2813
-1.01365
-1.05738
-2.88768
-2.83638
-2.81561
-2.78936
3237.08
2824.32
2581.86
2311.52
-2.1201
-1.89327
-2.09602
-1.91353
-4.53417
-5.08569
-4.40598
-4.97796
-2.09562
-2.60114
0.173352
-0.875999
-2.68248
-2.69611
-2.62707
-2.6647
-2.1872
-2.18768
-1.87516
-1.63132
-1.78213
-1.59211
-3.1073
-3.01938
-3.38062
-3.24149
-3.75458
-3.98839
-4.8
-3.99558
-3.09882
-4.07918
-94.6115
-87.5414
-2.67585
-2.63226
-2.69221
-2.62725
-3.04681
-3.37767
-1.50719
-2.95978
-3.23076
-2.97682
-2.84389
-3.63271
-2.20802
-2.21584
-2.7605
-2.77044
-2.75618
-2.7738
-1.11299
-1.82306
-1.4666
-1.86977
-2.59161
-2.64927
-2.55886
-2.50405
-2.38157
-2.43891
-7.49001
-6.34155
-7.93196
-3.42877
164.277
167.251
208.469
659.983
742.185
729.336
774.737
46.54
44.1923
52.3009
45.4885
93.1852
142.018
151.099
9.51088
-4.39517
6.5549
3.74686
40.0369
48.7151
-2.66934
-2.65716
-2.22997
-2.86532
-1.31836
-0.246775
-0.31133
-0.77901
-2.74654
-2.81581
-2.71341
-2.82026
-2.8623
-2.81006
-1.68994
-1.74608
-3.07221
-3.0234
-3.08468
-3.0041
-3.0261
-3.04559
-3.02159
-3.08306
1.71369
4.88083
0.965953
3.32672
-3.54718
-3.58221
-3.55971
-3.60992
-11.497
-11.4118
-2.93896
-2.32558
-11.4578
-11.2359
13.9896
11.0535
-2.21752
-2.20541
-19.5344
-10.4927
-3.49629
-3.52713
-3.51043
-3.53551
-5.2351
-16.6838
-2.54287
-5.5575
30.1816
-20.5066
-3.50278
-3.46893
-3.53715
-3.49984
-2.6378
-3.88423
-0.973275
-0.773258
-2.17266
-2.25886
-2.84087
-2.82526
-2.84537
-2.82078
-2.1628
-2.16146
-174.658
-172.934
-134.217
-137.864
-1.70456
-1.68333
-1.70094
-1.66632
69.8289
51.8263
207.631
71.0643
-4.92733
-2.25027
-5.08415
-4.55277
0.166151
0.958379
-3.55047
-3.5556
-7.36228
-7.57132
-6.9237
-7.28461
466.313
380.522
372.313
253.908
-1.90351
-1.89183
-1.90107
-1.87543
-1.2096
-1.25905
-1.71858
-0.518661
-2.54852
-2.51173
366.818
417.616
-387.681
-2.39391
0.153374
-1.79862
1.53412
-5.42812
-5.61534
-5.07407
-5.2759
-1.25432
-1.2705
-4.09609
-4.01449
-2.00559
-2.0224
-4.07408
-4.04443
-4.07416
-4.01179
-5.65839
-5.41105
103.768
104.601
104.154
105.979
2363.46
2424.94
2787.1
-2.94583
-2.93165
-2.90301
-2.89634
-4.81602
-4.55332
-4.19869
-4.24101
-1.96923
-1.94893
-2.00491
-1.98611
-5.17955
-5.42801
-1.4339
-1.42615
-1.40695
-1.38327
-3.49507
-3.46061
-3.52988
-3.48576
-2.00017
-2.01906
-2.13479
-2.15697
-3.88275
-3.8311
-3.97047
-3.85193
-1.39218
-1.21188
-2.26218
-2.27134
-2.74753
-2.7342
-2.76657
-2.73637
-2.75413
-2.7726
1.2677
11.4694
-7.63465
-8.80842
-3.21815
-3.17981
-3.33531
-3.28517
-2.74698
-2.74521
-2.76204
-2.76945
-1.94896
-1.96937
-1.9859
-2.00502
-5.4231
-5.12301
-3.64834
-3.9768
-3.74663
-3.7867
-3.74549
-3.83384
-3.78346
-3.7405
-3.82066
-3.72004
-3.11401
-3.19763
-3.01126
-3.0762
-3.19169
-3.11002
-3.07523
-3.00586
-2.78936
-3.79464
-3.76408
97.4156
97.077
98.0112
97.701
-2.20102
-2.25399
-2.16499
-2.30984
9.58222
1.57414
-15.6802
-12.8937
63.2321
65.4504
69.7274
67.9443
97.2303
97.7447
97.8693
98.2177
257.795
297.424
123.517
47.3207
-2.2062
-2.27047
-10.2143
-10.9282
-1.67975
22.6793
-3.34919
-3.01906
-3.61821
-3.24948
-1.76648
-1.78473
-1.76178
-1.7884
0.317038
-3.01572
0.372203
2.30804
-74.5733
-80.035
407.5
322.814
-2.64657
-2.68121
-6.21487
-2.1406
-4.10576
-5.77507
-2.79858
-2.78471
95.2964
95.2182
-5.9483
-6.03748
-6.09869
-6.3974
-69.436
-60.995
-6.05877
-5.95977
-6.37821
-6.09682
-3.75134
-3.79236
-2.80506
-2.81137
89.6556
92.2597
79.4896
-1.60377
-1.58999
-0.726412
-0.698686
2.42102
1.95381
1.40084
1.02834
-1.48717
-1.47731
-3.6544
-3.73778
-3.56273
-3.64971
-2.19368
-2.27695
-2.34376
-2.41352
-2.69568
-2.72773
-2.25335
-2.17624
-2.39148
-2.34331
-2.78216
-2.75443
-2.75465
-2.78247
-3.21199
-3.22222
-3.15174
-3.17697
-3.54567
-3.52528
-3.57073
-3.53733
-3.60872
-3.57421
-3.24817
-3.28335
123.922
129.054
145.732
158.501
-3.67554
-3.62128
-3.43696
-3.27849
-3.55491
-3.36787
-3.36336
-3.49749
-3.41105
-3.49736
-3.38882
-4.17495
-3.78089
-3.7209
-2.11042
-1.65333
-1.79918
0.227012
-4.08355
-4.09146
-4.00786
-4.01056
-3.73556
-3.6876
-2.74919
-2.71636
10.0758
5.06441
26.9858
15.6006
-3.50097
-3.49189
-0.878993
-17.2442
5.65665
0.718553
-3.96973
-4.0825
-3.90684
-4.05127
-3.68143
-3.68921
3.65846
2.92561
5.67558
1.68198
-2.17486
-2.18948
-2.15767
-2.16959
-2.2709
-2.15922
-2.4442
-2.34216
-1.9437
-1.98777
-2.72847
-2.72273
57.7216
58.7958
60.6559
55.9406
-2.72864
-2.72276
-6.59805
-6.40769
-5.92828
-6.33734
-3.69461
-3.67843
-1.4795
-1.66805
-10.7065
-6.39282
-3.67433
-5.22416
-2.94137
-2.93407
-46.1743
-38.4254
-71.3276
-69.2942
-2.16004
117.904
62.2048
53.4962
-4.62497
-4.35625
-1.79568
-1.81365
-1.78137
-1.81148
40.8938
50.9814
31.4052
38.6592
4.55332
6.33752
3.96699
10.1675
-4.23801
-4.0087
-2.70384
-2.71311
-3.53974
-3.49241
97.5848
85.9989
94.3226
82.8966
95.4175
108.525
78.4721
100.011
-2.70398
-2.71316
-2.81981
-2.80905
-2.25096
-2.17083
-2.06314
-2.06808
-2.11777
-3.44616
-3.43736
-3.43374
-3.45712
-3.44225
-3.4892
-3.24768
-3.2216
-3.53996
-3.5755
-3.58318
-3.61859
-1.74715
-1.55906
-1.64435
-3.00557
-409.391
-397.402
-3.58488
-3.57981
-3.78295
-3.76517
-3.62386
-3.67255
-3.60316
-3.60674
-0.0117701
-2.37664
-2.42758
-2.46019
-3.34933
-2.87753
-3.49243
-3.53783
-6.39478
-6.13487
-5.91624
-6.02287
-6.06887
-6.14859
-2.68498
-2.91217
-3.40899
-3.42959
-1.00355
-1.00801
-1.00607
-1.009
-337.82
-341.869
6.13497
2.34118
25.5096
10.7552
-2.43095
-2.4596
-2.74038
-2.72506
-2.61471
-2.66666
-2.72219
-2.63836
-4.64234
-4.49455
-10.5818
-10.3406
-11.6208
-11.7378
-1.86008
-1.87659
8.04953
-6.72077
-6.54528
6.29072
24.6682
29.9699
-4.48943
-4.59327
-4.73542
-4.80624
-2.99274
-3.01396
-2.68473
-2.68882
-2.69121
-2.69264
-2.73862
-2.72934
-1.91978
-1.92372
-382.173
635.381
587.104
674.087
-1.91701
-2.01791
-4.60039
-5.43465
-4.30293
-4.64759
-1.94306
-1.92302
-2.17011
-2.16966
-2.17161
-1.9432
-1.92689
-2.73428
-2.78083
-2.60592
-2.61994
-2.84427
-2.8768
-2.70002
-2.54602
-0.0368278
1.59598
-1.31543
-2.04299
-1.87875
-1.87935
-1.93633
-1.81446
-3.21598
-3.3532
-3.96492
-3.93928
-3.69694
-3.91205
-3.64176
-4.12772
-3.59238
-3.569
-9.06137
-8.70029
-3.59724
-3.59132
-7.93181
-8.30449
-1.72333
-1.43833
-1.68259
-1.48355
-1.59433
1.33958
-1.54834
-1.53743
-2.55583
-2.12953
-2.78021
-2.79346
-2.23886
-2.27798
-1.54459
-1.5371
-2.1077
0.810063
-3.5721
-3.59341
454.789
464.614
-0.0260994
0.286567
-3.03163
-2.70441
-2.1131
-4.54991
-2.96036
-2.96146
1.24815
2.54508
3.51456
5.20909
-1.83392
-1.87049
2.9198
2.82757
5.16441
2.91234
-3.80938
-3.79284
-2.59482
-2.57926
-3.00044
-3.01503
-3.57726
-2.42558
-2.16911
-2.21161
-2.75966
-2.7491
-2.16922
-2.211
-1.55297
-1.5613
-1.56475
-1.57256
-3.34885
-3.35686
-3.34387
-3.35712
-0.949151
-0.802126
-2.45352
-2.48841
-0.929651
-0.809968
2.32642
0.803547
2.4696
0.88782
-3.7031
-3.71684
-2.28185
-2.29547
-1.79204
-1.6577
-1.72715
-1.61859
-3.23593
-3.31666
-0.381352
-0.016654
0.623091
-0.194732
441.594
382.768
-2.74269
-3.18617
-2.85288
-3.10071
-2.78641
-6.09012
-2.71857
-2.72499
-3.70361
-3.71925
-5.21495
1.40531
-3.95441
-3.83255
-1.4771
-1.49218
-2.97547
-2.94832
-3.60616
-3.66046
-3.60504
-3.66
-2.45905
-2.40339
-2.11938
-2.21574
172.159
156.168
152.148
141.33
1.7595
-3.54587
61.1856
61.5005
-3.52416
-3.73977
-2.46077
-2.38281
-4.16787
-4.65827
-1.40588
-1.38184
-1.68392
-1.67023
-2.28205
-2.27137
-7.50781
-7.9056
-2.60247
-2.35897
-2.04699
-2.02582
-4.84754
-4.62148
-1.21574
-1.29155
9.91789
5.22777
-3.11403
-3.198
78.6042
76.9959
-4.8251
-4.76827
13.1107
6.42195
-3.17491