/*--------------------------------*- C++ -*----------------------------------*\
| =========                 |                                                 |
| \\      /  F ield         | OpenFOAM: The Open Source CFD Toolbox           |
|  \\    /   O peration     | Version:  v2012                                 |
|   \\  /    A nd           | Website:  www.openfoam.com                      |
|    \\/     M anipulation  |                                                 |
\*---------------------------------------------------------------------------*/
FoamFile
{
    version     2.0;
    format      ascii;
    class       surfaceScalarField;
    location    "0.05";
    object      alphaPhi0.water;
}
// * * * * * * * * * * * * * * * * * * * * * * * * * * * * * * * * * * * * * //

dimensions      [0 3 -1 0 0 0 0];
oriented        oriented;


internalField   nonuniform List<scalar> 
49400
(
-5.65799e-06
1.44043e-09
5.60935e-06
4.71603e-08
1.30504e-05
3.59523e-06
-2.23037e-05
1.28546e-05
1.96778e-07
-3.42755e-06
1.73453e-05
-8.30866e-06
2.02433e-05
-2.00756e-05
-2.07818e-05
5.09812e-05
-3.41821e-07
8.10928e-06
1.95985e-05
-5.00114e-05
-1.52991e-07
-6.30145e-07
-1.2279e-05
2.42861e-07
1.21268e-05
-9.42759e-08
2.62939e-05
1.15491e-05
-5.0122e-05
2.59066e-05
-1.3124e-05
1.50776e-06
2.37435e-05
-1.32638e-05
4.36121e-08
2.946e-05
-3.11747e-05
5.68742e-05
-2.68102e-05
4.34384e-07
2.63711e-05
1.57381e-09
9.16362e-06
1.56168e-05
-5.15915e-05
4.87083e-07
9.10461e-06
4.11546e-05
2.27359e-05
-4.82747e-05
1.73011e-05
5.02233e-05
7.67416e-06
-7.39064e-06
2.00663e-07
-3.68675e-06
2.04627e-05
6.23544e-06
9.10905e-06
1.98491e-05
8.84061e-06
4.61751e-07
-1.99998e-05
4.92988e-05
3.09655e-07
-3.41881e-45
6.03032e-46
-1.04598e-46
-1.29675e-45
5.34764e-44
-4.6556e-45
-3.5525e-43
-1.07459e-44
-4.06737e-43
-2.85611e-45
3.07112e-47
-2.12982e-46
1.69292e-45
-8.66704e-44
-2.68426e-43
5.44018e-46
-6.7296e-42
7.19516e-21
8.53079e-21
9.46969e-21
-1.59772e-19
1.43082e-22
6.45948e-22
-1.69097e-21
3.16807e-22
8.79073e-23
-5.41537e-23
-7.87679e-23
6.53944e-23
-9.99485e-22
4.12554e-23
-2.78796e-22
4.32109e-23
-1.83555e-22
1.0608e-42
-1.80686e-43
-6.76795e-41
6.40048e-43
-5.68528e-43
-5.93967e-44
1.28446e-43
-2.73333e-42
-9.45683e-42
1.27644e-40
1.85628e-41
-2.68622e-39
2.69934e-42
5.4424e-42
-3.73051e-42
4.64909e-43
-5.74781e-41
-1.46578e-11
-6.98403e-10
8.1752e-10
-9.43568e-11
-2.95287e-10
4.67656e-10
-1.85161e-11
1.4136e-10
-1.11898e-09
-4.66869e-10
-3.3905e-10
1.37889e-09
-3.67143e-10
-1.10857e-11
-6.04394e-10
1.0107e-09
-8.05184e-10
-5.2702e-08
-4.3633e-08
-2.04628e-08
1.15938e-07
-2.7659e-09
-7.82272e-08
3.32521e-08
-4.64348e-08
1.62463e-09
1.43597e-07
6.16484e-08
-2.64437e-07
1.61061e-07
2.12629e-08
3.27259e-08
-1.41412e-08
1.73121e-07
7.59677e-28
1.58882e-26
-4.91796e-28
-6.15924e-25
2.01329e-27
-4.15003e-26
2.85166e-28
-2.49464e-27
2.30501e-27
-7.94043e-25
3.64166e-26
3.73565e-27
5.52428e-25
-1.54412e-23
3.0847e-26
-1.93389e-26
5.61099e-27
5.14766e-11
4.24914e-10
-1.58605e-10
-4.94981e-10
5.06504e-11
-7.78576e-13
8.89178e-13
-3.20932e-11
3.99321e-10
2.24476e-11
9.63668e-12
-5.85257e-11
9.5872e-12
6.07286e-12
-1.06824e-10
4.84099e-11
-3.66812e-10
-2.57093e-06
-1.15899e-05
-6.04955e-06
1.85788e-05
7.25851e-08
-2.61663e-06
-3.15762e-08
-1.35497e-05
2.11893e-06
3.42264e-06
2.88094e-06
-9.06961e-06
3.38401e-06
-4.91089e-12
-1.12911e-05
8.98234e-06
-2.19464e-05
-5.68742e-12
-1.02734e-12
1.25972e-12
3.18337e-12
9.36237e-12
2.15696e-11
-4.10044e-11
4.60622e-12
-4.38703e-13
-2.49873e-13
-3.29257e-12
3.5417e-12
-1.13674e-11
1.37341e-11
5.05134e-12
-9.87336e-13
3.38106e-12
1.3177e-27
4.0858e-27
6.6322e-27
-1.20832e-25
4.17219e-29
7.74696e-29
-7.27172e-32
8.95893e-29
7.54254e-29
-2.52252e-30
-9.29036e-30
8.98796e-30
-4.69471e-28
4.07035e-29
-4.51638e-29
8.38208e-31
-3.10915e-30
1.19213e-56
-2.49285e-54
-8.50664e-59
1.5704e-56
-5.40307e-54
3.86118e-56
1.29679e-55
6.6264e-55
-2.59943e-52
2.31315e-58
-8.86751e-57
-8.94928e-59
1.71087e-60
4.96401e-58
-1.55525e-56
1.8915e-57
-3.31713e-58
1.97965e-88
1.31549e-89
-2.53453e-86
-1.0418e-92
-1.40948e-86
-1.37784e-88
2.35399e-88
1.88771e-87
-4.35954e-84
-6.80309e-84
3.50323e-86
1.91466e-86
2.93734e-84
-8.47951e-82
-2.611e-86
8.89914e-88
-4.08771e-88
8.69075e-91
-1.99431e-89
-2.89003e-89
2.9698e-91
-1.55327e-88
-1.18196e-87
8.19475e-89
-1.19782e-86
-1.61189e-87
-2.57687e-87
1.01667e-85
-5.14881e-84
2.22916e-87
-1.4266e-85
2.12755e-89
5.92194e-89
5.37731e-87
1.49955e-91
4.74192e-91
1.01541e-88
8.22684e-90
8.39869e-90
1.00008e-83
-5.43028e-82
-6.43974e-83
7.35686e-84
-3.09961e-81
-2.94517e-80
1.60172e-81
-2.40393e-79
-2.15162e-81
-2.65722e-81
1.22868e-78
-4.74327e-77
2.83165e-81
-1.57241e-79
-2.20049e-83
2.30903e-80
-6.34504e-87
1.49179e-82
1.98345e-81
-5.87607e-85
-7.33544e-80
1.48892e-79
-5.27721e-78
-2.0898e-85
-1.39391e-84
2.31866e-86
-6.36707e-83
1.15527e-60
1.43337e-60
5.93872e-61
-4.3404e-59
-8.86259e-64
1.83614e-61
-8.94098e-60
3.74415e-62
6.02813e-63
-2.69542e-58
-1.10911e-61
2.178e-59
-6.16883e-60
-7.20331e-57
5.7087e-60
-1.51305e-58
3.11742e-61
3.38857e-33
4.00225e-33
-2.30788e-33
-2.23318e-31
2.09136e-34
-3.12362e-32
2.20143e-33
-8.49969e-34
4.11099e-34
-1.01605e-31
5.11603e-33
-2.55367e-35
3.94386e-31
-8.24709e-30
1.07332e-32
-7.98064e-32
7.52651e-34
9.18616e-42
2.91236e-42
-3.55826e-41
-1.57102e-40
-3.9169e-42
-5.44893e-43
1.04056e-42
2.36021e-42
-2.47913e-40
-4.67248e-40
9.86154e-42
1.99081e-41
6.79989e-41
-9.83004e-39
-4.86316e-41
4.26586e-42
-9.07988e-40
-2.25463e-12
6.09085e-11
5.16247e-11
-1.87018e-10
7.16834e-12
8.10299e-12
-1.29649e-11
1.49217e-11
1.31957e-11
1.06513e-12
-2.11551e-11
1.30646e-11
-8.1803e-12
1.22452e-11
1.66208e-12
-1.4211e-12
-8.70201e-13
7.85516e-11
-3.49302e-12
-1.87214e-10
4.26329e-11
-4.80978e-11
-1.38156e-11
8.86675e-11
-8.4202e-11
-8.47343e-13
3.45802e-10
6.5139e-11
-6.80063e-10
1.44684e-10
1.31123e-10
-1.21209e-10
1.84514e-10
-2.09025e-10
8.34663e-11
-1.88771e-10
-4.61667e-11
5.21402e-10
-2.53561e-10
7.71385e-11
3.83797e-10
-6.44052e-11
-2.57699e-10
2.10336e-10
2.48794e-11
-2.57047e-10
1.06756e-10
7.38917e-10
-6.47516e-11
2.70522e-10
-1.03452e-10
2.23318e-10
2.32254e-11
-1.02774e-10
-1.00579e-10
-1.93199e-10
8.81701e-11
3.25523e-10
4.71201e-10
-6.98267e-10
-1.93964e-09
8.31973e-11
2.34262e-09
-1.21289e-11
-2.70206e-09
-3.85141e-10
7.51285e-10
-4.13548e-10
9.44669e-10
1.61437e-09
6.40687e-10
-2.84471e-09
5.27292e-10
2.10691e-09
-9.88758e-10
2.36841e-09
1.76822e-10
-2.24507e-09
-3.62283e-09
8.59363e-09
-1.88578e-09
1.51622e-10
-5.91881e-10
3.42401e-10
-2.04566e-09
-4.60881e-20
-1.18062e-18
2.23909e-18
6.51562e-18
-1.44285e-20
-1.22625e-21
-3.96243e-24
-9.8713e-18
1.04549e-18
3.86872e-17
-3.01243e-18
-4.75732e-18
8.54898e-17
1.34384e-15
4.16795e-18
-2.87153e-19
3.11952e-16
2.14476e-50
3.82411e-50
4.91399e-51
-3.01542e-49
1.48575e-51
3.1533e-51
-8.08295e-52
7.10674e-51
1.0114e-50
-3.12077e-51
-7.86715e-52
2.91118e-51
-2.60815e-51
-6.35062e-50
3.61885e-51
-4.13083e-50
5.6066e-51
-4.84188e-18
-2.55688e-18
-1.32277e-18
1.80304e-18
-2.94507e-19
1.00887e-18
-9.08642e-17
-1.36587e-17
-9.90724e-18
-1.43262e-16
1.21372e-17
8.83659e-18
5.31912e-17
-1.16347e-15
1.3675e-17
-6.32958e-17
4.31615e-18
-1.23578e-27
-1.39813e-28
3.98687e-29
2.41528e-29
7.55749e-28
1.78675e-27
-2.96262e-26
3.75122e-28
-5.17231e-27
-4.97458e-30
-2.67842e-29
8.89897e-30
-1.95409e-28
1.53474e-29
9.03823e-29
-5.97849e-28
3.25851e-29
-5.37103e-27
-1.28654e-27
1.50984e-27
5.481e-27
-7.3101e-28
-2.75135e-26
1.57384e-26
-1.60308e-28
-1.22244e-29
1.06584e-25
-2.43005e-27
-9.92539e-26
4.91568e-27
1.29575e-25
5.46755e-27
-3.87316e-27
2.3372e-26
-4.75958e-13
5.82201e-12
3.32784e-11
-5.07401e-11
1.06878e-13
4.55871e-13
-3.96267e-13
7.76302e-14
5.74917e-12
5.46863e-12
-2.87208e-12
6.94352e-13
-2.07967e-11
3.36402e-11
-9.64953e-13
-9.07632e-14
1.01988e-11
-4.28226e-09
1.37482e-09
3.37785e-09
-1.44191e-10
6.9578e-09
1.30817e-09
-1.23455e-08
5.1293e-09
3.4322e-09
-4.25512e-10
-1.74048e-10
3.97552e-09
-5.13774e-10
-3.05003e-11
3.02636e-09
-2.16231e-09
7.99608e-09
2.38949e-15
-9.6253e-15
4.71172e-16
7.18495e-17
-1.04284e-13
-1.55735e-16
5.76368e-14
-9.45993e-16
-3.14155e-13
5.30876e-16
2.81585e-16
-2.12651e-15
1.3951e-16
6.96437e-18
-7.56807e-16
2.44382e-16
-3.13326e-15
9.3638e-10
1.55559e-09
1.46637e-09
-5.73994e-09
-1.95165e-10
8.27183e-11
3.99131e-10
8.35039e-10
-3.5257e-10
4.81211e-10
1.33406e-10
-3.04839e-10
5.61044e-10
-2.99649e-11
1.4385e-07
2.33217e-08
2.62612e-08
-1.93429e-07
-3.20529e-07
-1.47446e-07
6.11857e-07
-8.82714e-08
-2.0822e-07
-1.48354e-07
2.71733e-08
3.89497e-07
-7.31099e-07
3.28394e-07
1.46283e-07
7.56834e-08
3.05558e-08
-3.72617e-07
-6.14662e-09
4.12209e-08
1.63004e-07
4.13412e-08
1.04679e-07
6.92488e-08
7.86878e-08
-8.06473e-08
8.89591e-08
8.73223e-08
-9.26042e-09
1.20744e-07
6.31768e-08
-4.30818e-09
-1.67542e-08
-5.69206e-08
5.21562e-08
3.49757e-08
-3.72741e-08
-2.39727e-09
8.6703e-09
3.40336e-08
-1.78775e-08
4.45441e-08
-5.08262e-09
1.05592e-07
-8.8716e-09
1.64469e-08
4.16605e-08
1.26228e-09
-1.02644e-09
1.84519e-09
-2.38526e-09
-7.78654e-10
5.97765e-10
1.34346e-09
5.40474e-10
-2.15199e-09
1.13514e-09
-3.43906e-09
2.65342e-09
-1.28894e-09
4.03737e-09
-3.67466e-10
-4.93388e-10
-2.0757e-09
1.34022e-10
2.4102e-10
-1.93487e-10
-2.85958e-10
4.30895e-11
-3.67585e-10
3.92658e-10
-5.66177e-10
7.87686e-10
2.77839e-10
7.00003e-10
-1.31507e-09
4.79968e-10
-5.96614e-10
-1.18172e-10
1.28547e-10
-1.90187e-10
-2.29903e-10
-7.83552e-11
3.19545e-12
2.43377e-10
8.77489e-11
-1.35195e-10
-2.9097e-10
1.72514e-10
-2.59403e-10
-5.58691e-10
6.27156e-11
5.48268e-10
2.62725e-11
-1.08043e-09
2.05614e-10
-4.36812e-10
1.75845e-10
-1.55837e-10
-1.5575e-09
4.01194e-10
1.26967e-09
-1.71137e-09
9.76029e-10
6.36017e-10
-6.47641e-10
-3.65009e-09
2.18446e-10
-8.65388e-10
1.79472e-09
-1.64899e-09
3.41364e-09
-8.49814e-10
3.6394e-10
-3.23737e-09
1.99226e-10
3.53079e-10
-1.02322e-10
-4.55293e-10
4.82676e-10
-8.91214e-10
2.83254e-10
5.94589e-11
6.99656e-10
1.29214e-09
-1.17034e-10
-2.5058e-09
1.13304e-10
1.21284e-09
-3.50578e-10
4.32877e-10
-6.307e-10
2.41093e-55
-2.53422e-54
-7.25411e-57
2.14874e-54
-4.82882e-54
4.81176e-53
2.64257e-53
1.09778e-54
-1.10099e-52
7.63622e-56
-7.35282e-56
-5.02931e-55
-3.98884e-54
8.14388e-54
-1.3603e-55
6.17514e-53
-1.22582e-55
-3.52937e-41
-5.2222e-40
-4.85058e-41
4.37172e-41
-1.92559e-41
-1.20068e-39
3.54186e-42
-3.44821e-38
-3.99919e-41
4.40756e-38
2.68799e-38
-1.48588e-36
1.16131e-39
7.17811e-41
9.58054e-40
-1.56329e-39
1.0571e-40
2.74904e-30
9.85211e-31
-1.59586e-30
-4.91037e-29
-2.77415e-32
1.88583e-33
2.0765e-31
1.82219e-32
-7.47134e-31
-1.555e-30
2.18308e-32
8.26378e-32
-1.83799e-32
-3.27982e-29
-3.10375e-30
2.28722e-31
-6.12678e-29
-1.62279e-50
-9.53993e-48
-5.55734e-47
2.63204e-48
-8.81303e-48
-7.0371e-51
3.04504e-49
-1.74982e-49
-9.71965e-46
2.81974e-50
2.20671e-49
-1.17219e-47
1.74096e-45
-6.62513e-44
1.2489e-51
-5.31298e-51
1.59512e-47
3.49684e-73
1.46269e-73
-5.03233e-71
-1.67789e-74
-1.02884e-75
-2.61711e-72
8.61677e-74
-4.2001e-76
1.67556e-75
-9.26973e-75
1.46302e-70
-9.66112e-69
1.39604e-74
-1.57616e-72
-1.39741e-76
1.0004e-72
-9.70729e-75
-3.58572e-76
3.89728e-78
-2.86648e-85
2.8414e-78
9.95112e-76
-1.37851e-73
-1.85731e-83
-7.18754e-75
2.53218e-76
-1.36444e-83
5.2654e-73
-3.44626e-71
2.05195e-83
-2.07015e-81
-1.02709e-85
6.80901e-75
-1.7308e-88
4.47131e-78
3.30116e-78
1.76518e-78
-2.21094e-76
1.6922e-82
7.56261e-80
1.57772e-80
3.26369e-80
7.30213e-82
-1.7177e-73
-4.70964e-80
8.90364e-75
-4.55472e-78
-7.25488e-72
-4.29446e-78
1.37259e-79
-2.23512e-76
2.29937e-76
-9.70956e-75
-2.0431e-77
6.858e-77
-3.70219e-74
-4.12156e-73
2.39272e-74
-3.05897e-72
-1.21805e-75
-1.60983e-75
3.08598e-71
-1.18834e-69
1.11075e-75
-8.74805e-74
-1.72319e-77
1.1822e-72
-3.80066e-78
-1.69156e-79
5.85855e-75
-6.93674e-75
-2.17436e-73
5.02602e-78
-4.3492e-76
-1.10694e-78
-8.5459e-77
2.98668e-76
4.73958e-76
2.66167e-76
1.01262e-77
9.8733e-80
-4.12492e-75
6.10545e-77
-2.55251e-73
-5.47723e-67
-1.11937e-63
2.60341e-65
7.05563e-66
-8.59246e-64
1.92104e-68
1.16565e-65
6.14692e-64
-4.307e-62
9.29366e-63
-2.67495e-64
-2.69711e-61
-3.87425e-66
6.05979e-64
-2.13065e-64
8.86035e-66
-8.93017e-63
-1.04788e-60
-8.59473e-64
-1.40002e-58
3.20888e-60
1.28594e-60
5.25812e-61
-3.84206e-59
3.42289e-62
5.26956e-63
4.43724e-57
-4.87126e-60
-9.44581e-56
-8.93382e-62
4.36175e-58
4.506e-60
-1.16932e-58
2.51667e-61
-1.46314e-40
-1.81424e-35
6.32099e-37
2.16207e-37
1.26721e-40
1.46307e-40
-3.85571e-39
7.02697e-35
-9.47068e-34
-9.94632e-39
-4.56221e-36
7.79387e-37
-1.66903e-41
8.35925e-39
1.14752e-41
-8.54608e-41
8.04739e-36
-6.19851e-28
-5.9682e-26
1.11403e-27
1.32575e-27
-1.93421e-26
1.14757e-27
-1.44183e-31
9.69113e-26
-1.74118e-24
3.91098e-29
-6.90739e-27
6.00151e-28
-1.38618e-28
1.345e-28
-6.72276e-28
1.23304e-29
-4.47621e-29
2.15825e-23
-5.16288e-25
-8.54793e-22
1.23867e-23
-1.83805e-24
-1.96188e-24
2.92918e-24
-2.44094e-23
-1.93923e-26
1.37933e-21
3.16757e-22
-1.90169e-20
4.98878e-23
9.09383e-23
-2.32299e-23
7.01115e-24
-4.49021e-24
1.23854e-12
5.56472e-13
-8.49992e-12
-4.21374e-13
-2.72354e-13
-5.1296e-13
5.68932e-13
-2.379e-12
3.49417e-13
7.20132e-12
1.02426e-11
-6.90941e-11
1.45405e-12
-1.05268e-12
-8.31426e-13
1.16297e-13
-4.44393e-13
1.35621e-15
-5.71841e-15
1.97353e-16
-1.02087e-15
-4.45883e-15
-2.34614e-14
3.12507e-14
1.51471e-14
2.59101e-15
-1.12306e-13
-8.87365e-16
3.69475e-14
3.09881e-13
-4.94655e-12
-2.40589e-17
8.03638e-14
-1.98987e-16
-4.01491e-10
-1.02251e-10
-1.4779e-09
1.45537e-09
1.22798e-09
-6.52748e-10
-9.56508e-10
-4.33977e-09
4.41879e-09
9.80118e-10
3.59301e-09
-5.22111e-09
3.09232e-09
-3.017e-09
1.13328e-09
-1.92641e-09
2.77694e-09
-1.52504e-16
-7.53328e-20
-3.65568e-21
3.57789e-17
2.63098e-18
-1.44839e-19
-1.0136e-15
1.6439e-22
5.44671e-23
4.9018e-24
-2.47489e-24
-6.15595e-23
-5.84449e-25
-1.30691e-25
1.93401e-19
-2.8986e-18
1.9242e-20
2.67039e-15
1.9028e-14
6.25835e-15
-1.04074e-13
5.53152e-17
5.66273e-19
6.43283e-17
8.13878e-16
2.5667e-15
1.38805e-18
-3.9077e-17
5.11589e-19
-2.36772e-18
6.44093e-18
5.29929e-17
-8.59647e-16
6.60269e-17
-1.13637e-16
2.59994e-17
-1.84245e-15
5.09213e-16
-4.26751e-15
1.82321e-18
1.30997e-18
-6.10881e-20
5.08837e-19
2.01139e-18
1.41431e-14
1.26741e-17
-1.46804e-13
8.01659e-15
-6.25769e-15
-4.19232e-15
4.89674e-15
-4.33193e-14
-1.5113e-15
3.10563e-13
1.27812e-13
-1.51834e-12
3.1993e-14
7.36475e-14
-5.04953e-14
1.93098e-14
-1.63913e-13
-2.92513e-13
-3.96853e-15
7.36587e-14
1.98655e-14
1.8748e-13
-1.84526e-12
1.6885e-14
-4.73246e-15
2.18109e-14
-5.74008e-09
-3.41333e-09
-5.26235e-09
1.26697e-08
2.07961e-09
-1.67435e-08
5.14115e-09
-2.45351e-09
1.34029e-09
1.98141e-09
1.97611e-09
-4.78559e-09
3.23085e-09
2.36609e-10
9.10898e-09
-2.11442e-08
5.6746e-09
-1.02351e-09
-3.52804e-10
7.58873e-10
2.44983e-10
5.97389e-10
8.33816e-10
-3.21008e-09
4.65468e-10
-4.05778e-10
-5.92405e-10
-3.95908e-10
1.60286e-09
-7.63871e-10
1.77426e-10
1.99251e-10
-3.65764e-10
1.84559e-10
6.01257e-10
-8.17943e-10
-2.64387e-10
1.43712e-10
-2.31422e-09
-2.4331e-10
2.78154e-09
-8.48137e-10
-2.30747e-09
5.98894e-10
-2.18675e-10
-1.03444e-09
2.62736e-10
2.32743e-10
-1.19758e-09
8.79356e-10
-2.64865e-09
6.49902e-12
-2.59766e-11
1.24178e-12
2.14847e-12
-7.09639e-11
-3.66001e-13
4.68853e-11
-1.97163e-12
-1.69557e-10
2.05697e-12
-9.22263e-14
-6.38698e-12
7.50866e-13
9.11101e-13
-3.06288e-12
1.36129e-12
-1.11308e-11
-4.21142e-47
-2.59848e-45
6.03022e-48
2.7489e-47
-2.47669e-45
2.33202e-46
-9.17891e-45
2.60644e-45
-1.62838e-43
1.12076e-48
-6.76949e-47
6.47945e-49
-4.73711e-48
1.44219e-48
-3.35032e-47
5.18196e-48
-1.97555e-47
1.76354e-44
2.43968e-44
2.60962e-44
-1.29223e-42
2.19256e-45
8.01331e-45
-2.90876e-43
2.78186e-46
1.02418e-46
-1.52314e-47
-2.87002e-46
2.85926e-47
-1.13867e-45
2.20176e-47
-4.66511e-46
2.13597e-46
-6.02644e-46
1.84713e-44
3.12105e-44
-1.79528e-44
-3.08288e-42
1.43373e-45
-1.61871e-43
4.74282e-45
-2.04442e-45
1.48938e-45
-1.72119e-42
4.0257e-44
-8.0715e-48
3.8144e-42
-1.69679e-40
8.93624e-45
-2.15766e-44
-5.25666e-50
-5.97072e-85
-1.37046e-82
-5.51655e-82
1.38865e-83
-7.11753e-83
-5.40871e-83
1.01142e-84
-4.34562e-81
-2.50463e-80
1.84436e-81
4.33929e-81
-6.19735e-79
5.8359e-80
-5.71477e-78
2.29744e-83
-2.53832e-83
5.63455e-82
-5.45616e-97
-4.95511e-94
-3.66676e-93
9.6468e-95
-6.50676e-95
-8.80897e-108
1.08301e-97
-6.71994e-106
-1.09393e-91
1.00493e-105
1.26428e-105
-1.76377e-103
5.65243e-91
-6.29476e-89
-4.76197e-108
1.23727e-92
1.38911e-107
-3.16392e-84
1.61205e-73
-2.18039e-79
-6.8008e-72
7.45808e-83
-7.3869e-81
-1.56219e-83
-1.7047e-81
9.39415e-75
1.06038e-80
2.62965e-81
-4.59441e-79
1.5331e-82
2.26033e-83
3.14425e-79
-1.11975e-77
1.38109e-80
-1.68342e-29
-7.20092e-28
-6.04333e-27
1.66122e-27
-1.59728e-28
-2.74544e-30
9.49245e-30
-2.60644e-29
-9.6152e-27
2.53165e-29
3.42372e-29
-5.36678e-28
5.09395e-26
-3.13624e-25
9.31759e-31
-2.39832e-31
5.00776e-27
-1.68158e-25
-1.132e-24
-5.40928e-24
1.72653e-24
-3.45695e-25
-2.3138e-24
2.08853e-25
-1.07672e-23
-6.95442e-24
6.99453e-24
1.24417e-23
-1.25655e-22
2.35039e-23
-1.37884e-22
3.52859e-25
-6.83936e-25
-3.4455e-25
3.52544e-22
4.10169e-22
-7.35672e-21
-4.1293e-21
3.03977e-23
-1.15509e-21
1.48863e-22
-1.25447e-21
2.62626e-22
-2.48717e-21
1.48445e-20
-1.64436e-19
3.4208e-21
-5.56319e-20
8.11124e-22
-6.0254e-21
1.68733e-21
1.42725e-09
-9.88543e-10
2.5098e-09
-5.48239e-09
-1.76405e-09
1.03412e-09
9.15488e-10
3.10016e-09
-7.04879e-09
-5.8689e-11
-1.56079e-09
1.91734e-09
-2.85154e-09
2.9039e-09
-4.75493e-10
4.59459e-10
-7.17727e-10
-5.64332e-10
2.83915e-10
1.46562e-09
-2.45583e-09
3.57788e-10
6.41496e-10
-1.96603e-09
9.74381e-11
1.79111e-10
1.12445e-11
-2.3044e-10
1.14451e-10
-4.56222e-10
2.63697e-10
-6.32928e-11
1.86172e-10
1.5619e-10
-7.00059e-12
-1.34712e-12
2.57189e-13
2.14147e-12
4.01678e-12
-1.38115e-11
-1.77012e-11
1.26412e-12
-9.02672e-12
-1.56231e-11
-2.50969e-12
6.4347e-12
-3.98257e-11
-3.21909e-11
3.06705e-11
-1.50303e-10
7.45929e-12
4.26588e-23
3.74643e-23
6.85499e-26
-1.15608e-21
-4.3479e-25
8.59651e-26
-1.07245e-21
-9.35074e-26
-6.69538e-27
1.38011e-16
-1.41584e-19
-9.97738e-16
-3.96066e-21
3.10815e-17
-1.81098e-19
1.74589e-20
-2.76352e-18
-4.99842e-16
-2.67271e-17
7.55318e-17
2.18756e-17
4.13889e-16
1.32874e-16
-3.17178e-15
2.70413e-16
-1.6651e-15
-1.07138e-14
-2.0611e-16
4.64215e-15
-1.56531e-15
-4.18411e-14
1.34378e-15
-7.09749e-15
3.25682e-16
1.54237e-10
1.25935e-09
7.50089e-10
-2.126e-09
8.43644e-10
-1.76083e-10
-5.33306e-10
-1.7072e-10
2.28408e-09
-6.4655e-09
1.99141e-09
5.43641e-09
1.3768e-10
-8.52661e-09
3.17298e-10
-3.52637e-10
2.16086e-09
3.81393e-08
-1.40121e-07
-1.29009e-09
1.13789e-07
-4.11486e-07
2.3577e-07
2.9721e-07
-6.68688e-08
-3.83401e-07
4.3164e-08
-6.82881e-08
4.34268e-09
-4.947e-08
2.09928e-07
-3.56361e-08
2.59922e-07
-1.85407e-07
-9.10781e-11
5.82275e-10
9.64106e-11
-8.00058e-10
1.15112e-09
-2.8874e-09
9.66041e-10
-6.24149e-10
2.24091e-09
-7.4093e-10
7.21485e-10
-6.38427e-11
3.45758e-09
-4.96705e-09
-5.37162e-11
1.8841e-11
-3.14802e-11
-3.17709e-19
2.16305e-19
3.43969e-18
-2.50268e-17
2.86682e-19
2.14748e-19
-2.77678e-18
1.67619e-22
3.77248e-20
4.93108e-21
-3.40169e-20
-1.35713e-23
-2.96326e-19
8.73163e-20
2.7073e-20
-1.14389e-20
5.61548e-19
1.83442e-33
-7.87174e-42
1.11593e-32
-1.37303e-31
-8.48219e-42
7.23598e-35
1.20101e-35
7.83943e-42
-1.85747e-40
-7.50502e-37
-7.49958e-34
1.38242e-34
-1.04464e-42
2.74107e-37
-6.53786e-43
1.01011e-33
-5.39762e-42
-4.79228e-57
-1.40961e-41
3.08405e-43
7.13789e-43
3.39506e-57
1.41252e-58
-1.57391e-55
-1.20369e-39
2.4563e-41
3.7641e-39
-2.11681e-60
-5.96514e-38
4.56326e-42
3.5032e-40
0
-8.0854e-63
4.50627e-43
-1.97114e-60
-1.76348e-63
1.76102e-62
1.81072e-62
1.30472e-60
3.06712e-61
-1.17568e-58
9.0021e-63
-2.95869e-62
-2.06472e-61
-8.45911e-64
6.93214e-63
-1.39661e-61
-1.24966e-59
1.70748e-61
-9.87324e-60
4.58773e-63
7.8699e-60
-1.66626e-58
-1.25622e-57
2.14095e-59
-3.37475e-58
-8.63292e-60
9.6574e-60
-1.72262e-58
-4.84681e-56
-2.85753e-56
4.15659e-58
-3.6529e-61
6.43251e-56
-4.77963e-54
-3.82893e-59
1.93757e-60
2.09609e-58
-2.57998e-110
-3.04132e-109
7.03803e-112
2.29164e-112
1.77064e-110
5.29794e-111
-4.25401e-108
4.83669e-108
-9.81118e-106
-2.06576e-104
-4.32554e-110
2.50394e-106
-8.84387e-113
-3.74173e-102
4.64332e-113
-6.3509e-111
2.63168e-111
-8.31859e-102
1.76398e-104
-2.10928e-108
2.58868e-100
-4.46638e-111
-3.37931e-98
2.56494e-102
1.71262e-108
-1.07573e-105
-9.40098e-110
3.36526e-104
7.19499e-106
-3.52611e-102
-6.02784e-102
-1.34472e-105
-3.32256e-103
9.1773e-105
-3.93767e-104
-1.34059e-103
5.76805e-102
5.38296e-102
-8.9944e-100
9.19626e-101
-1.37325e-98
-5.02946e-104
2.60728e-102
1.45214e-104
1.30305e-102
-2.76353e-100
-4.08349e-101
-9.01722e-102
-4.31552e-101
2.35514e-99
-2.80542e-97
-3.84428e-99
2.79438e-101
-2.23006e-88
-4.92315e-100
-9.72769e-92
5.77273e-90
-1.32887e-100
-3.26987e-90
-2.16749e-86
1.03157e-89
-4.70338e-88
2.27767e-91
-5.14715e-21
-8.38461e-20
1.15503e-20
3.73347e-21
3.27231e-21
6.16008e-21
-4.85358e-20
2.71091e-19
-9.37265e-19
-6.17022e-22
-1.39104e-19
5.91357e-20
-1.58904e-21
7.99029e-22
1.26327e-22
-2.5897e-22
-7.47864e-20
1.34453e-12
-6.18299e-11
1.48213e-10
-4.82385e-11
-1.25005e-10
5.18704e-11
3.21498e-11
3.0476e-11
-3.41882e-10
-5.72159e-10
-1.80598e-10
8.51808e-10
-6.20223e-10
-6.31564e-11
-2.47122e-10
9.48424e-11
-9.77174e-10
1.57084e-16
4.92558e-16
-4.49682e-16
-5.81853e-15
1.4301e-16
-1.45907e-15
1.43267e-16
-3.89319e-16
2.62509e-16
-6.34814e-15
3.19793e-15
-1.19602e-14
7.48541e-15
-6.68722e-14
7.82129e-16
-2.57328e-15
6.89133e-16
-2.11445e-19
-2.91381e-17
2.71269e-18
1.83144e-18
-2.14009e-17
1.07816e-18
-2.92153e-19
1.425e-17
-4.58766e-18
-2.00924e-18
1.64395e-18
-3.11628e-17
-3.79518e-18
2.05184e-17
-1.93914e-16
2.74756e-18
1.036e-25
-2.17875e-25
1.26485e-25
-2.46825e-27
-1.8706e-24
9.90981e-24
1.11682e-23
2.73509e-24
-1.01873e-23
8.20674e-22
-3.03681e-23
6.8052e-21
-5.06401e-25
3.34418e-21
-4.93338e-26
-3.39111e-23
-3.30159e-27
-1.27388e-22
-9.34984e-22
-2.90632e-22
1.59487e-20
8.97512e-23
-2.6306e-23
-3.20424e-22
-3.10363e-23
4.06398e-21
1.79211e-24
3.32102e-23
-2.87907e-25
6.47841e-22
-1.108e-21
8.58122e-24
-5.78751e-26
2.13681e-22
9.10974e-09
-1.02129e-10
-8.02263e-09
2.35864e-10
-5.1375e-09
-5.12785e-09
2.0072e-08
-3.87865e-09
-8.08325e-10
9.33599e-09
2.30717e-09
-1.90125e-08
8.91873e-09
1.3489e-09
-5.17606e-09
9.5121e-09
-5.78445e-09
-3.98566e-10
5.29039e-11
4.01919e-10
4.80844e-11
9.99846e-11
-9.50682e-12
-3.85424e-10
1.20101e-11
3.02816e-10
5.12251e-10
-5.00312e-12
-4.48886e-10
-6.22677e-11
8.82264e-10
3.94345e-10
-4.20882e-10
5.57153e-10
-3.97618e-23
2.2102e-24
2.63767e-26
-3.38699e-26
2.06453e-21
-2.97241e-26
-1.93859e-20
-1.46815e-27
4.02243e-22
-3.30063e-26
4.77387e-27
-1.36458e-28
2.03734e-26
-6.62396e-25
1.801e-26
-3.54921e-25
1.43769e-27
-2.87855e-25
5.58871e-27
9.81603e-29
3.76113e-25
-1.40867e-23
-1.72011e-26
2.43884e-27
-3.28078e-25
4.2906e-28
-1.03925e-23
5.86447e-15
6.04571e-16
-3.83412e-16
-1.68187e-14
-1.51727e-16
-4.73006e-17
3.37307e-15
-1.75824e-16
8.66648e-18
2.25154e-16
9.69538e-17
-1.25153e-15
4.64523e-17
5.12048e-18
-2.95143e-16
9.90061e-17
-1.33665e-15
1.78316e-13
1.06918e-11
3.2522e-11
-2.15432e-11
8.00086e-12
1.94386e-11
-2.54678e-11
1.23496e-10
8.54334e-11
-1.85154e-11
-2.08311e-11
2.29721e-10
-4.02079e-11
1.90989e-10
1.60371e-12
9.67239e-14
1.04465e-11
1.50318e-10
-1.467e-10
-8.23145e-10
4.9682e-10
-2.60709e-10
-4.25037e-10
6.6884e-10
-5.19134e-11
-6.77756e-10
-1.08557e-09
4.05791e-10
2.10994e-10
4.92101e-10
-2.97735e-09
-6.93193e-10
3.73777e-10
-1.52593e-09
-1.29922e-07
3.48817e-08
1.24389e-07
2.39519e-07
-4.43106e-08
3.59701e-08
-6.13033e-08
2.80712e-07
-1.13836e-07
-2.53013e-07
1.41166e-07
2.00366e-07
1.3119e-07
-4.7029e-07
-4.41382e-07
4.6573e-07
-1.29216e-07
-2.26637e-17
-5.9254e-19
-7.43998e-22
9.87542e-18
5.08314e-18
-1.56288e-24
-8.70587e-17
7.79381e-23
2.26141e-19
1.55826e-23
1.33518e-24
-1.17738e-24
2.51568e-20
4.61017e-20
2.74298e-24
-1.10673e-23
1.14854e-20
1.12935e-30
-5.7072e-29
-2.09686e-31
7.29476e-30
-7.511e-29
-4.31766e-28
9.54403e-29
-1.71045e-27
-1.77736e-30
5.03493e-29
3.4242e-27
-3.0276e-26
2.89459e-30
-2.54564e-33
-4.70739e-32
1.55595e-28
-7.72834e-35
2.3562e-23
4.20287e-24
-2.72363e-22
-1.01807e-22
-5.19891e-24
-1.04192e-22
3.48275e-23
-5.40111e-23
3.10063e-24
2.63512e-22
3.101e-22
-3.44037e-21
7.22791e-22
-4.83716e-21
-2.31038e-23
1.0175e-22
-6.82966e-24
8.94754e-23
-4.64496e-23
-2.6619e-21
9.01763e-23
-1.5373e-22
-6.85357e-23
3.29231e-23
-5.86811e-23
-6.34392e-21
-4.40904e-21
2.27968e-22
-1.24066e-25
6.9526e-21
-1.80245e-19
-8.4839e-22
3.82345e-23
-2.76167e-20
-9.22772e-72
-7.44507e-71
1.56825e-73
1.51614e-73
-2.45296e-71
1.73292e-71
-3.22005e-69
1.80469e-70
-2.64186e-68
-2.42043e-76
-1.41934e-72
1.61127e-74
-1.30629e-73
1.81907e-75
4.07357e-74
-1.78669e-72
1.22887e-72
-2.45011e-122
3.18085e-126
4.62932e-125
2.19836e-125
9.67558e-123
-2.39089e-121
-2.27585e-120
5.35775e-119
-3.11992e-116
-5.77435e-120
-2.17613e-121
5.25136e-122
-1.62323e-120
-1.96012e-117
9.42871e-121
-5.97783e-118
2.83765e-122
-4.80859e-112
1.39102e-115
-3.26826e-121
4.66261e-111
-3.25077e-118
-1.31845e-108
1.48458e-113
-1.29699e-118
-2.68572e-122
-3.39285e-115
4.22829e-85
8.12977e-85
-1.1613e-82
-4.81768e-83
4.96658e-87
-5.99686e-85
8.49246e-87
-2.80111e-84
7.943e-86
-2.06398e-83
2.71048e-82
-2.43085e-80
4.81582e-83
-6.92444e-81
2.54664e-85
-2.78317e-85
2.87813e-84
-3.36686e-61
8.50005e-61
1.23793e-60
-1.61223e-58
6.3208e-61
-3.0079e-62
-2.98505e-59
9.33409e-63
4.24528e-62
-4.8697e-58
2.9748e-61
1.69873e-59
-4.60662e-62
-1.74422e-56
1.53289e-61
-6.49977e-60
1.93178e-62
-1.41042e-47
9.86214e-43
1.7466e-42
-1.12352e-40
2.63042e-47
-1.0558e-48
-7.22646e-46
1.38011e-44
4.46707e-44
-3.2735e-40
-5.06828e-47
2.26669e-41
-4.11974e-48
-6.94225e-39
9.3853e-48
-2.36669e-46
3.32465e-45
3.33847e-23
2.95661e-22
-1.11191e-21
-1.97404e-21
3.21361e-22
-1.92917e-21
9.95652e-23
-2.37437e-20
-3.73747e-20
3.23123e-22
-7.85024e-21
-2.36409e-20
-8.3098e-20
-1.23546e-19
-1.0895e-18
-7.60601e-20
-6.9847e-21
6.50692e-19
1.9394e-19
-2.80688e-19
-3.69603e-18
5.77351e-21
-3.95149e-19
5.61028e-19
-3.81294e-19
-1.53957e-18
-1.54176e-19
3.86995e-19
-8.57184e-19
-3.52727e-18
-1.95299e-17
-9.20266e-18
-4.49228e-18
-6.1962e-17
-3.22792e-17
-4.53279e-07
-5.061e-07
-3.50036e-07
9.10107e-07
1.06688e-08
-1.73483e-06
1.62855e-07
-1.07735e-06
-5.5153e-09
1.20778e-06
1.54633e-06
-4.6817e-06
1.132e-06
-1.66488e-07
5.80829e-07
-2.55665e-06
1.05674e-06
1.74167e-10
1.60088e-10
-2.11969e-10
-2.30918e-10
1.50779e-10
2.73207e-10
-3.53899e-10
3.8186e-11
2.29419e-10
2.25656e-10
-3.55319e-10
1.44005e-10
-2.20829e-10
6.27636e-10
-3.34142e-11
-1.00365e-10
-5.12276e-10
-2.11581e-15
-7.84074e-17
1.29006e-16
8.77455e-17
1.55349e-15
2.92493e-15
-2.41512e-14
2.13678e-16
-6.74508e-18
-1.92453e-17
-5.21162e-17
4.1724e-17
-5.09554e-16
8.71463e-17
1.83086e-16
-1.6772e-16
3.43685e-17
-4.27399e-30
-4.40713e-31
-2.56069e-30
5.51337e-31
2.54215e-30
-2.24917e-28
-1.47467e-29
-2.84383e-29
1.39922e-30
1.84303e-28
2.59514e-28
-6.83256e-27
3.78776e-29
-7.10157e-28
1.19866e-29
-1.35573e-28
2.2242e-30
2.355e-19
3.9148e-20
-6.7177e-19
-1.14731e-21
-3.91946e-18
-5.36489e-18
9.06824e-18
7.67321e-19
-1.16201e-17
-1.8751e-17
7.41748e-17
5.45734e-17
3.7825e-18
-8.64489e-17
-9.9156e-19
7.25087e-17
-1.94601e-19
-8.93702e-11
-4.99787e-11
6.14486e-11
1.17301e-10
3.88289e-11
2.97949e-10
-3.7364e-10
6.31326e-11
-5.42973e-11
2.27749e-11
-1.06459e-10
1.56607e-10
-3.24625e-10
4.59423e-10
-3.93385e-12
-1.68973e-11
-2.68904e-11
1.18854e-08
9.91064e-09
4.79843e-09
-2.6305e-08
-2.02101e-10
1.14776e-08
9.09258e-10
1.0271e-08
-8.2431e-11
-5.53068e-09
-5.4875e-09
2.18371e-08
-5.02765e-09
-3.01099e-10
-7.83424e-09
1.40511e-08
-7.2453e-09
-1.75814e-12
-4.64993e-13
1.04345e-12
1.29341e-12
4.05523e-13
-8.38286e-13
-3.23003e-13
-1.3416e-12
2.46075e-12
6.9139e-12
-9.0163e-13
-6.38399e-12
1.70304e-13
1.1752e-11
4.01152e-12
-2.49611e-12
8.06927e-12
1.3479e-21
3.87349e-22
-1.63143e-21
-1.19092e-21
-3.82804e-22
-2.73753e-22
1.36128e-21
1.13452e-22
-9.80223e-22
-9.57466e-22
6.68486e-22
-7.73092e-26
2.03524e-21
-6.23311e-21
-6.4847e-22
7.40385e-22
-8.59362e-22
1.17923e-07
1.97914e-07
3.4224e-08
-3.95268e-08
-3.38867e-07
1.12403e-07
2.60802e-07
2.33407e-08
-4.19009e-07
-7.22047e-09
3.52153e-07
-7.45897e-08
1.55803e-08
-4.43582e-08
-3.94404e-07
4.36292e-07
-1.01951e-07
3.16111e-08
-5.93438e-08
-5.12991e-08
7.90372e-08
-1.71527e-07
-3.8199e-08
2.41374e-07
-1.2145e-07
-1.09088e-07
-4.22604e-07
2.08676e-07
9.36882e-08
5.78683e-07
-1.09748e-06
-6.93221e-08
2.2677e-07
4.72322e-07
-5.45431e-09
-9.24935e-08
2.29183e-08
7.50753e-08
-1.26413e-07
7.77131e-08
4.33057e-08
-5.75761e-08
-1.59658e-07
-1.91064e-08
1.11362e-08
3.09238e-08
-3.5736e-07
4.18815e-07
-4.66782e-07
4.24603e-07
-9.52501e-07
-1.98997e-07
7.65046e-08
3.63869e-07
1.06817e-07
6.55807e-07
-1.17158e-13
-2.58492e-12
1.6543e-13
1.52991e-12
-2.29001e-12
1.57002e-12
-1.09674e-14
4.5857e-12
-1.16447e-11
2.53979e-11
-6.27115e-11
1.50651e-11
-1.44671e-11
3.28015e-11
-2.87085e-11
1.00659e-11
-1.11395e-10
2.34698e-32
-5.41786e-35
-9.11031e-31
1.65518e-31
-6.61559e-35
-3.39362e-32
1.44569e-32
-5.47463e-35
-2.49386e-34
7.25311e-36
1.32899e-34
-9.14701e-34
4.70152e-34
-3.52858e-33
-2.59047e-31
3.7384e-32
-5.2501e-30
9.00597e-30
1.5186e-29
4.19475e-30
-8.16754e-29
1.41225e-30
3.31116e-30
-3.04735e-29
1.80238e-30
2.26184e-30
-1.38697e-28
-2.05894e-30
4.65142e-29
-3.04851e-29
-6.29473e-28
3.48101e-29
-1.75431e-28
1.01359e-29
2.39665e-25
3.40482e-25
1.37491e-25
-1.73476e-24
1.10804e-26
-1.4165e-25
5.10085e-26
6.15795e-26
3.76218e-26
1.22766e-24
-1.00192e-24
-2.90802e-24
-1.1423e-25
6.58084e-25
-8.73259e-25
2.73702e-25
-4.34673e-24
-2.14741e-84
-1.01738e-84
1.63472e-86
4.62625e-87
1.98809e-84
1.69323e-84
-2.52557e-82
5.12275e-84
-4.43809e-82
-3.44267e-88
-4.98101e-86
1.70976e-87
-4.16662e-86
2.29437e-88
2.94421e-86
-1.20925e-84
9.11046e-86
-2.42437e-125
9.08513e-126
-1.70821e-122
1.52876e-125
-3.43671e-122
4.17821e-126
-2.4815e-126
3.72392e-121
-8.69375e-118
3.29521e-122
2.24257e-122
-2.25197e-119
-3.78603e-120
1.28979e-122
-4.83596e-117
8.94136e-120
-2.18441e-114
9.25839e-126
2.06477e-126
-1.68647e-119