/*--------------------------------*- C++ -*----------------------------------*\
| =========                 |                                                 |
| \\      /  F ield         | OpenFOAM: The Open Source CFD Toolbox           |
|  \\    /   O peration     | Version:  v2012                                 |
|   \\  /    A nd           | Website:  www.openfoam.com                      |
|    \\/     M anipulation  |                                                 |
\*---------------------------------------------------------------------------*/
FoamFile
{
    version     2.0;
    format      ascii;
    class       volScalarField;
    location    "0.05";
    object      p_rgh;
}
// * * * * * * * * * * * * * * * * * * * * * * * * * * * * * * * * * * * * * //

dimensions      [1 -1 -2 0 0 0 0];


internalField   nonuniform List<scalar> 
24700
(
2827.17
2806.61
2870.91
2792.14
2794.02
2879.7
2849.65
2832.45
2776.44
2777.43
2799.48
2803.74
2792.52
2822.79
2815.38
2811.92
2808.91
2855.99
2846.48
2808.02
2892.45
2891.15
2815.71
2808.2
2914.93
2855.07
2861.52
2828.13
2859.61
0.00511621
0.00595098
0.00151851
0.00833438
0.0124533
0.00573859
0.00980412
0.306194
0.290856
0.274775
0.245168
0.25314
0.263956
0.27466
0.520895
0.518951
0.528478
0.523203
0.511796
0.514565
0.526035
0.348459
0.314621
0.309175
0.0257702
0.178066
0.19284
0.194274
4.17641
6.37755
3.05178
21.0394
33.1818
5.16841
10.8483
0.390017
0.407358
0.383235
0.368309
0.399678
0.404761
0.375902
-0.92875
-0.826114
-0.791479
-0.752829
-0.696331
-0.774371
-0.909021
1420.26
274.855
2721.42
1635.41
184.7
2390.27
2561.79
-0.0414332
-0.111483
-0.0633409
0.0675268
0.00148596
-0.0372476
0.00595211
0.17369
0.187816
0.174877
0.176184
0.160183
0.181572
0.166444
0.279182
0.272814
0.280746
0.286573
0.278352
0.27549
0.284165
0.381543
0.375453
0.375376
0.370528
0.376803
0.373973
0.380254
0.0380249
0.031816
0.0388543
0.0419566
0.048825
0.0451599
0.0381003
0.038171
0.0344035
0.0272563
0.01091
0.00630087
0.0127022
0.0169148
0.0230575
0.0131607
0.0184459
0.010881
0.00984008
0.00220305
0.00830004
0.0154883
0.0440937
0.0372437
0.0378464
0.0302718
0.0366096
0.0407534
0.0340468
0.182034
0.169125
0.182012
0.193416
0.181614
0.174873
0.186739
0.528585
0.519253
0.521012
0.511861
0.523265
0.51469
0.526106
0.755855
0.757408
0.726115
0.686259
0.700532
0.721877
0.704853
0.791142
0.776689
0.783213
0.859345
0.872247
0.768096
0.828814
0.841597
0.877043
0.748011
0.708204
0.679863
0.699884
0.693391
0.117712
0.139643
0.0633426
-0.0256553
0.113257
0.0717923
0.0894254
0.698574
0.908199
0.79341
0.721301
0.550314
0.66529
0.471043
0.349028
0.360732
0.343821
0.338329
0.311349
0.344186
0.328383
0.497353
0.495807
0.490363
0.494923
0.501769
0.499905
0.492683
0.901875
0.925958
0.936037
0.907557
0.962992
0.949844
0.906136
0.59495
0.603947
0.614318
0.582503
0.568856
0.583623
0.595007
0.43607
0.4339
0.432351
0.431056
0.437149
0.4317
0.436484
0.365832
0.395525
0.385437
0.396454
0.352104
0.408649
0.374774
1.14656
1.0401
1.07754
0.98746
0.66691
0.877436
0.942218
0.400011
0.389535
0.395968
0.403664
0.405552
0.397662
0.400199
0.770312
0.598925
0.694877
0.657472
0.580029
0.63651
100.089
99.6413
100.333
99.7294
100.953
99.6559
12.9399
10.8562
9.95141
8.54879
14.0398
11.2486
10.203
7.55097
1.55131
11.6174
8.15122
15.0511
5.78208
14.4293
0.274853
0.171024
0.215913
0.17782
-0.0133954
0.119018
0.280599
0.606112
0.712384
0.580637
0.52834
0.626723
0.680175
0.590245
0.48019
0.322531
0.28123
0.135318
0.171659
0.211769
0.311357
-1.10904
-0.731914
-0.880559
-1.46787
-1.04231
-0.916462
-1.11073
0.0597248
0.204091
0.235701
0.125939
0.215136
0.224095
0.0331796
0.502394
0.49765
0.503499
0.510041
0.503804
0.502442
0.507775
0.602471
0.607871
0.606547
0.610878
0.604095
0.610027
0.603399
0.555839
0.547645
0.563188
0.56768
0.579348
0.557431
0.567662
0.20985
0.217525
0.219786
0.227317
0.220408
0.22127
0.214107
0.212946
0.205428
0.211633
0.214807
0.220872
0.210203
0.216353
0.184987
0.186552
0.177956
0.187749
0.193958
0.182444
0.188829
0.118752
0.112741
0.111825
0.103324
0.109999
0.106817
0.113636
0.0844998
0.0775674
0.0866985
0.0871807
0.0934431
0.0807692
0.0872343
0.0616025
0.063022
0.0548353
0.0723789
0.0651583
0.0611608
0.067303
0.0625765
0.0616369
0.0689046
0.0597893
0.0529344
0.0571106
0.0634585
0.0373195
0.0441122
0.0378759
0.0366283
0.0302835
0.0407431
0.0340452
0.0799194
0.0857587
0.078775
0.0730947
0.0804511
0.0831072
0.0755875
0.174739
0.187811
0.173637
0.160099
0.175769
0.181433
0.166361
0.218825
0.222883
0.238946
0.218792
0.197743
0.209616
0.230317
1.21141
1.16551
1.15426
1.28848
1.25096
1.2001
1.20626
0.548495
0.555203
0.570913
0.577931
0.609238
0.570134
0.55691
0.900534
0.434401
0.769786
0.26622
0.451385
0.981606
0.869168
0.43423
0.444837
0.440388
0.443048
0.441154
0.445489
0.439511
0.459659
0.454456
0.447992
0.453656
0.455517
0.461437
0.457206
0.456385
0.462076
0.457847
0.454466
0.45526
0.462032
0.463798
0.463439
0.469983
0.458208
0.461646
0.468711
0.463265
0.472499
0.464875
0.464729
0.463937
0.613346
0.894558
0.57745
0.674534
0.473144
1.56537
0.923444
0.61247
0.576065
0.530302
0.462087
0.651871
0.551659
0.42186
0.474541
0.466757
0.614059
0.543915
0.600873
0.544917
0.571471
0.574429
0.570309
0.605071
0.555158
0.583671
0.586865
0.577526
0.58237
0.586818
0.585344
0.577179
0.579779
0.582788
0.580767
0.473967
0.462081
0.466933
0.460978
0.471372
0.460891
0.473609
0.294039
0.286228
0.291709
0.304113
0.298491
0.292846
0.299278
0.253781
0.259342
0.260515
0.267391
0.262135
0.263637
0.258176
0.227847
0.233682
0.234251
0.243375
0.237463
0.233171
0.238495
0.136314
0.136953
0.13055
0.143167
0.137952
0.139587
0.134037
0.0143508
0.0202529
0.0194349
0.0242255
0.0177758
0.0213753
0.0159208
0.0176701
0.0242585
0.0209787
0.0250371
0.0163527
0.0246401
0.0169886
0.556318
0.549644
0.525537
0.552588
0.581598
0.564142
0.539078
0.522734
0.212997
-0.0381637
0.401554
0.163962
0.378057
0.103301
0.930035
0.815683
0.68645
0.694127
0.750961
0.696272
0.809133
0.675936
0.673402
0.681064
0.650536
0.64522
0.672356
0.658241
0.442775
0.439627
0.440665
0.44372
0.434147
0.439074
0.444216
0.425492
0.425695
0.42122
0.409513
0.419605
0.423763
0.419809
0.723545
0.650602
0.617234
0.705153
0.735174
0.64259
0.666823
9.77595
26.3402
21.6123
2.92379
5.49077
11.2723
3.55682
0.692626
0.816478
0.668132
0.752366
0.842268
0.985769
0.695132
0.573424
0.56102
0.570558
0.569868
0.573892
0.566094
0.572797
0.532518
0.530605
0.529719
0.530688
0.529267
0.531152
0.529283
0.571569
0.572107
0.571671
0.571349
0.571771
0.571612
0.571334
0.462934
0.46369
0.457872
0.452605
0.452475
0.458334
0.458067
0.324668
0.329129
0.332769
0.338349
0.335448
0.33291
0.328933
0.300359
0.305602
0.300184
0.291444
0.297604
0.299569
0.294291
0.300416
0.298875
0.292269
0.308959
0.302845
0.256871
0.251354
0.257689
0.263321
0.257512
0.254277
0.260733
0.257965
0.248511
0.258041
0.263578
0.251363
0.224825
0.23055
0.233322
0.230308
0.224727
0.00164191
0.00365315
-0.00390373
0.00121078
0.00712669
0.00617971
-0.00101874
-0.767683
-0.640587
-0.674109
-0.644382
-0.701444
-0.735901
-0.767771
0.374778
0.404406
0.348707
0.325457
0.406323
0.396887
0.33726
0.31579
0.282533
0.326784
0.267733
0.258314
0.293462
0.296295
-0.0442523
-0.077793
-0.0811026
-0.117329
-0.0755947
-0.102523
-0.0618356
0.00814511
0.0347209
0.0570354
0.059268
0.0153857
0.0616058
0.0140562
1.26253
0.657811
0.457568
1.10134
1.33317
1.2511
0.727562
0.40009
0.174457
0.160002
0.211689
0.0691617
0.198906
0.270279
0.459908
0.457891
0.452812
0.461453
0.462691
0.458847
0.455309
0.461228
0.46541
0.453616
0.460424
0.461598
0.394283
0.389372
0.399034
0.402518
0.40472
0.397093
0.399159
0.351948
0.303693
0.339028
0.267607
0.316875
0.277793
0.332363
0.523155
0.637657
0.536225
0.633293
0.590257
0.658165
0.542236
40.5178
2.60578
32.0537
10.0072
33.1831
19.2522
39.4495
0.581504
0.602728
0.597286
0.599919
0.605869
0.602908
0.596149
0.627158
0.618445
0.621426
0.621385
0.618269
0.61927
0.622821
0.521349
0.522815
0.52682
0.520755
0.515632
0.518851
0.524106
0.554645
0.557582
0.552868
0.552172
0.548188
0.55516
0.551275
0.525091
0.528003
0.524023
0.522144
0.526226
0.527141
0.522845
0.359533
0.363772
0.359519
0.351935
0.357296
0.358824
0.354359
0.359655
0.358298
0.352601
0.366634
0.361585
0.260533
0.259364
0.25385
0.262118
0.267401
0.263649
0.258197
0.216884
0.225441
0.217871
0.209105
0.216789
0.221559
0.214027
0.161206
0.170351
0.163261
0.153035
0.160149
0.166224
0.158478
0.00101075
0.000872838
-0.00038553
0.000592743
-0.000177855
-0.00113001
-0.00189506
-0.00323597
-0.00445733
-0.00291164
-0.00118216
-0.00103397
-0.00350968
-0.000741742
-0.00248804
-0.00409282
129.731
219.691
133.178
302.305
310.669
498.971
233.274
0.195832
-0.311377
-0.422269
-0.356708
-0.201138
-0.413296
0.09078
0.0479422
0.0466406
0.0719646
0.0516738
0.0172306
0.0281047
0.0585454
0.091172
0.112695
0.112524
0.132155
0.109579
0.123011
0.0993814
-0.187707
-0.232116
-0.244878
-0.296711
-0.248443
-0.259383
-0.213939
-1.08779
-1.05585
-0.913094
-0.961285
-1.24769
-1.10148
-0.950999
1.39725
1.74385
1.6323
1.57782
0.792969
1.59462
1.32829
0.333572
0.286633
0.26912
0.23292
0.225967
0.265493
0.286101
0.440043
0.446862
0.430187
0.418418
0.408648
0.430089
0.42281
32.7149
10.4063
32.733
37.9334
1.74793
21.1114
40.622
90.817
89.8586
90.7548
92.029
91.8252
92.1666
90.9298
88.6444
89.1467
89.6794
89.8863
88.4731
90.0054
90.3558
89.6442
90.9808
89.229
0.623447
0.628718
0.624246
0.629645
0.607973
0.618802
0.632687
0.617397
0.615221
0.61127
0.607703
0.604194
0.610936
0.610113
0.566207
0.568565
0.572798
0.572393
0.56305
0.564437
0.572541
0.53335
0.5354
0.540395
0.52848
0.53855
0.539435
0.530193
0.4696
0.471835
0.466335
0.467238
0.472717
0.472104
0.46668
0.373871
0.378369
0.378718
0.378007
0.381881
0.384591
0.380747
0.377987
0.37093
0.375663
0.21119
0.21902
0.218982
0.228347
0.220038
0.224223
0.216229
-0.00724828
-0.00894251
-0.0112043
-0.000533734
-0.017594
-0.00671637
-0.0150139
-0.00966316
-0.00873211
0.000224898
-0.00372388
-0.00597703
-0.0231235
-0.0202707
-0.0149725
-0.00725088
-0.0223907
-0.00742732
-0.00801231
-0.136909
-0.0705619
-0.0671261
-0.0860416
-0.10511
-0.0821502
-0.145401
-0.128751
-0.122909
-0.16499
-0.136316
-0.047665
-0.0279515
-0.0294279
-0.0113451
-0.0323705
-0.0219924
-0.0405341
-0.18357
-0.196709
-0.162055
-0.136414
-0.120658
-0.161785
-0.146965
-1.41165
-1.37768
-1.54266
-1.75641
-1.58194
-1.55238
-1.61722
0.194916
0.217363
0.187004
0.180349
0.158871
0.199115
0.1768
-0.0126218
0.0322839
-0.158117
0.19577
-0.000116319
0.078093
-0.0539321
0.801486
0.850526
0.799952
0.761693
0.792762
0.830425
0.755232
0.621365
0.661087
0.50631
0.39664
0.47083
0.671084
0.509046
0.707422
0.833228
0.685856
0.705325
0.715314
0.957964
0.742536
88.3212
86.8784
88.9136
92.3521
91.9276
90.8089
92.7126
92.5117
92.3404
92.5555
88.3986
92.6013
91.7529
91.2947
92.6576
0.451615
0.430789
0.439629
0.425082
0.454565
0.427621
0.45206
0.185908
0.18707
0.127347
0.249823
0.276422
0.25688
0.189642
0.754273
0.570643
0.923642
0.973606
1.31408
0.993752
1.25118
0.521114
0.516738
0.518692
0.514344
0.521359
0.515535
0.521271
0.505315
0.504503
0.508634
0.51142
0.511313
0.507511
0.507962
0.467684
0.468366
0.470849
0.47409
0.474029
0.471532
0.47118
0.441955
0.437789
0.440594
0.439471
0.444174
0.438724
0.443349
0.409309
0.412783
0.413912
0.418769
0.415657
0.416041
0.412837
0.411602
0.407268
0.410846
0.416432
0.413147
0.410708
0.414039
0.430906
0.42784
0.432451
0.434413
0.437271
0.431527
0.434189
0.469598
0.472699
0.467245
0.466333
0.471833
0.472098
0.466677
0.452644
0.452473
0.457904
0.463706
0.462898
0.458258
0.458061
0.256861
0.133368
0.262647
0.32836
0.261303
0.197407
0.291581
2.73918
13.9485
9.71359
3.28416
2.90774
7.46546
4.92876
-0.0127452
-0.0283661
-0.0364799
-0.0335822
-0.0159353
-0.0492524
-0.0336334
-0.0179705
-0.00417042
-0.0233409
-0.0160839
-0.0106925
-0.00963584
-0.0106736
-0.00342303
-0.00714343
-0.0149138
-0.818176
-0.756527
-0.408633
-0.135788
-0.94842
-0.816712
-0.298078
0.158508
0.179868
0.186558
0.217291
0.194648
0.199159
0.176465
0.615481
0.650677
0.60434
0.576617
0.565777
0.604499
0.589024
0.499615
0.744024
0.886921
0.279312
0.296732
0.33921
0.628295
0.50894
0.508745
0.500402
0.51017
0.520378
0.516067
0.504493
0.457798
0.454043
0.439059
0.484377
0.465254
0.47129
0.453667
0.0587768
0.27937
0.322655
0.612716
0.522913
0.518045
0.386437
0.444041
0.446168
0.441297
0.447728
0.450169
0.443927
0.446629
0.464119
0.467019
0.466807
0.469708
0.466829
0.468111
0.465494
0.601936
1.44441
-0.198663
-0.0923277
-0.069236
0.915851
0.27668
-0.34853
-0.451843
-0.505703
-0.4326
0.117994
-0.475921
-0.0443798
0.00133536
0.000704711
0.000227432
0.00394741
0.00397429
0.00390535
0.00409573
0.0441591
0.0484792
0.0529183
0.0374573
0.0365948
0.0422295
0.0442439
-0.584028
-0.533463
-0.522156
-0.540579
-0.498925
-0.513613
-0.569099
-0.361687
-0.371521
-0.372274
-0.381239
-0.378132
-0.371217
-0.373714
0.26887
0.284089
0.338874
0.223454
0.230064
0.265056
0.288523
0.054533
0.323997
0.296777
0.415501
0.17176
0.32353
0.0878931
0.326569
0.386133
0.37467
0.397563
0.355133
0.409776
0.36043
0.718766
0.752707
0.734739
0.683619
0.699266
0.720817
0.697798
1.09265
0.867009
0.855137
0.877759
0.859376
0.905006
0.949431
0.702181
0.800556
0.702242
0.752865
0.680966
0.723508
0.74368
-1.54944
-1.85929
-2.39432
-0.995953
-1.05522
-1.46874
-1.75893
0.62474
0.605876
0.62541
0.626291
0.629557
0.617866
0.628237
93.6861
94.4727
88.475
94.5957
93.4614
93.9625
93.5054
90.971
95.0213
93.7735
94.4561
93.0565
93.5817
92.919
89.419
91.4075
93.1291
94.2128
0.576447
0.580317
0.604356
0.623129
0.605147
0.543577
0.560117
0.585492
0.57811
0.573233
0.655291
0.578355
0.580949
0.604771
0.458241
0.377131
0.461029
0.448877
0.504588
0.432055
0.510074
0.122614
0.118848
0.19078
0.124472
0.298293
0.328594
0.267306
0.518858
0.528244
0.529862
0.540179
0.530628
0.538477
0.525482
0.45002
0.446538
0.450273
0.450243
0.452803
0.451898
0.451727
0.449906
0.44418
0.449066
0.511755
0.516255
0.513414
0.511123
0.515475
0.516181
0.511613
1.20299
1.24345
1.26525
1.15021
1.16078
1.19514
1.20154
0.894733
0.968417
0.87243
0.856401
0.808509
0.922584
0.862663
0.536574
0.591136
0.621325
0.468216
0.48902
0.547016
0.55197
-0.0210103
-0.0558282
-0.0371153
-0.0560063
-0.0224196
-0.0655211
-0.0246972
-0.0282454
-0.0482283
-0.029575
-0.0322393
-0.0109565
-0.040577
-0.0219117
0.00339731
0.00287447
0.00111666
0.0084066
0.00388601
0.000960111
0.00869665
0.00759058
0.00766372
0.023365
0.015253
0.0120448
0.00533497
0.0129588
0.0128076
0.0200808
0.00237989
0.0096845
0.0101007
0.01318
0.0198951
0.0222248
0.0347351
0.0188703
0.0178438
0.0043793
0.0153824
0.0240599
0.0169046
0.29765
0.322426
0.332848
0.384997
0.339963
0.35162
0.31769
0.0243067
-0.159783
-0.0351331
-0.0365023
0.0438114
-0.0950201
0.046239
-0.307526
-0.332177
-0.33243
-0.302651
-0.324787
-0.348966
-0.333107
-0.312693
-0.33197
-0.353563
-0.366883
-0.369679
-0.35465
-0.292813
-0.303121
-0.235585
-0.309564
-0.265579
-0.332575
0.429508
0.267465
0.215131
-0.0718239
0.155871
0.182885
0.24949
0.52288
0.433704
0.48222
0.566058
0.534108
0.475428
0.494954
0.62143
0.618456
0.627093
0.61825
0.621297
0.619232
0.622812
96.3149
95.7554
96.037
96.4558
95.2586
96.2274
0.498112
0.49218
0.513726
0.52876
0.530029
0.513194
0.510008
-0.0424658
0.104254
-0.0506921
-0.012458
-0.0440099
0.154089
-0.0190983
0.442649
0.440971
0.439665
0.439255
0.430885
0.428141
0.437719
0.443838
0.44176
0.438284
0.505086
0.509844
0.50908
0.490795
0.50328
0.505982
0.500088
0.585339
0.586813
0.582364
0.579779
0.577178
0.582784
0.580769
0.715921
0.707715
0.702171
0.691507
0.694562
0.699817
0.706156
0.925953
0.962685
0.907596
0.901706
0.935999
0.949682
0.905928
0.532158
0.542683
0.568754
0.514936
0.496961
0.523298
0.545176
0.378654
0.330118
0.356079
0.425707
0.440934
0.391624
0.399192
0.363616
0.380685
0.399914
0.332486
0.338548
0.353957
0.362403
0.0466175
0.0132028
0.0508935
0.0711008
0.0457587
0.0256988
0.0575501
0.0670886
0.064289
0.0609417
0.0524807
0.0613704
0.0559928
0.0626235
0.0440105
0.0385642
0.0520801
0.0517322
0.040672
0.0423943
0.0552232
0.275597
0.294052
0.307307
0.254047
0.245308
0.265844
0.275901
0.265635
0.239756
0.281016
0.281909
0.330495
0.263805
0.302588
-0.145412
-0.135128
-0.142423
-0.136974
-0.15515
-0.148712
-0.130518
-0.124777
-0.152435
-0.119433
-0.156036
-0.174803
-0.139841
-0.154772
-0.336518
-0.330822
-0.345902
-0.351877
-0.336472
-0.353035
-0.342269
-0.357336
-0.332619
-0.353442
-0.48642
-0.466967
-0.512316
-0.499636
-0.459584
-0.461847
-0.504197
-0.0838818
-0.0648911
-0.480642
-0.294961
-0.126218
-0.0551494
-0.438757
0.692994
0.477169
0.780164
0.533022
0.501753
0.382516
0.651945
0.346168
0.29214
0.30307
0.315881
0.249935
0.265863
0.29915
0.579642
0.57764
0.549318
0.56945
0.616761
0.590409
0.557635
0.461461
0.458466
0.455702
0.450306
0.453032
0.45452
0.457317
0.570516
0.560951
0.573378
0.573867
0.570206
0.566065
0.57265
0.569074
0.566337
0.572725
0.563037
0.572342
0.564426
0.572354
98.1397
97.0198
97.3249
97.0632
96.9485
96.9106
97.5377
95.3284
95.7893
95.2782
94.3737
95.352
95.6849
94.8244
95.3338
94.0652
96.5753
96.9787
96.8488
96.4586
96.9337
95.8093
96.0044
94.6723
94.6817
93.3794
27.5728
13.6389
12.5072
9.42088
14.4133
5.72739
11.0488
0.598826
0.608097
0.590639
0.620736
0.599436
0.584329
0.613022
0.168076
0.0204999
0.341296
0.206607
0.198379
0.0712669
0.165825
-0.25056
-0.135312
-0.336375
-0.0540402
0.0472241
-0.173017
-0.143109
0.52225
0.532932
0.529377
0.527747
0.531663
0.524493
0.521237
0.0579527
0.0380839
0.123242
0.0570654
0.124495
0.140084
0.0984013
0.492183
0.462776
0.450427
0.360513
0.466167
0.407433
0.48281
0.563047
0.565246
0.562879
0.563624
0.559865
0.564547
0.56196
0.571601
0.571335
0.571691
0.572113
0.571589
0.571592
0.571257
0.731931
0.702262
0.716175
0.706752
0.728942
0.706452
0.733246
0.555971
0.546382
0.524667
0.555767
0.577761
0.560559
0.540821
0.0979307
0.0899315
0.0980188
0.11508
0.0936699
0.0947126
0.107338
0.129839
0.105696
0.110336
0.0917043
0.115212
0.0997761
0.125777
-0.190648
-0.166167
-0.15899
-0.166889
-0.189494
0.380713
0.389205
0.391231
0.399996
0.393468
0.394565
0.386883
0.432216
0.433742
0.436006
0.431044
0.437276
0.431566
0.436405
0.517059
0.510044
0.518974
0.52735
0.516471
0.51374
0.522972
0.540995
0.545895
0.538667
0.535316
0.532949
0.53877
0.535431
95.3069
95.9404
96.1135
0.387175
0.388958
0.383644
0.377559
0.384819
0.381933
0.383198
0.387185
0.379468
0.378542
0.379747
0.380113
0.379044
0.376728
0.385373
0.390086
0.398482
0.379991
0.381146
0.382609
0.494235
0.496839
0.497763
0.500421
0.495456
0.494258
0.495954
0.497637
0.497052
0.503838
0.504346
0.505853
0.505109
0.50452
0.507384
0.506878
0.501981
0.502825
0.498171
0.50289
0.503995
0.503674
0.503831
96.8398
96.3721
96.7907
96.902
97.6498
97.0905
96.9556
97.6551
96.9524
96.8962
95.7891
96.7236
96.3037
96.4681
96.7182
96.3083
96.2553
96.4135
96.6459
96.8786
96.6924
96.5476
96.1587
96.6505
3.69925
1.39132
1.53941
1.43707
1.80087
1.74596
3.52864
0.49902
0.488711
0.495422
0.506758
0.500718
0.49599
0.502388
0.328256
0.335474
0.357234
0.416858
0.352319
0.382815
0.334812
-0.0877157
0.0422974
0.0633913
0.213113
0.0791141
0.114279
0.00160715
0.545561
0.556485
0.460542
0.6019
0.393601
0.52792
0.62665
0.133678
0.257659
0.213353
0.466112
0.0988078
0.503467
0.14031
0.571938
0.57113
0.572582
0.573646
0.57344
0.572025
0.572587
0.446846
0.425028
0.448192
0.451254
0.47155
0.437419
0.459624
0.331755
0.322329
0.29684
0.336624
0.382635
0.350337
0.31628
0.0394335
0.0415778
0.0378269
0.0365978
0.0305158
0.0403524
0.0346409
0.0237236
0.0340168
0.0418999
0.0346056
0.02914
0.0541628
0.0511036
0.0520338
0.0470837
0.0526756
0.058023
0.0522755
0.0531344
0.442193
0.4422
0.437364
0.441967
0.448095
0.445191
0.439816
0.46792
0.461596
0.460431
0.462988
0.455122
0.464862
0.457302
0.530688
0.530605
0.529264
0.529718
0.53252
0.531153
0.529279
0.451989
0.456477
0.439263
0.464749
0.483277
0.470346
0.453613
0.468828
0.48176
0.463455
0.449338
0.444969
0.463778
0.455481
0.509702
0.519232
0.510353
0.502427
0.509945
0.516277
0.50529
94.9243
95.0317
94.7318
94.6898
94.9983
94.3796
94.6871
95.9985
95.7233
96.2034
95.9478
96.2349
96.4009
96.7413
95.31
95.0008
95.2249
0.888558
0.785687
0.878707
1.92144
2.38194
1.36224
1.06936
1.79141
0.608403
1.19912
1.16778
0.83014
0.725549
0.66542
0.463593
0.47647
0.467786
0.458069
0.461048
0.467288
0.460054
0.45924
0.455217
0.457656
0.490953
0.488133
0.487027
0.497767
0.499684
0.501495
0.483746
0.483315
0.491085
0.483766
0.483022
0.501903
0.49445
0.503305
56.2438
3.75366
8.41477
106.594
37.9016
10.9229
56.2133
96.1697
95.7406
95.8022
96.6353
94.4102
95.086
96.7514
97.0273
97.1021
97.4001
96.8666
97.8482
96.6703
98.0158
98.3023
96.9018
96.6008
96.1224
95.7954
95.2828
95.4299
0.579979
0.618778
0.566415
0.597704
0.597573
0.593389
0.572149
0.554604
0.561977
0.588729
0.556534
0.569537
0.570218
0.576221
0.578943
0.568538
0.574095
0.575987
0.557738
0.565967
0.576979
0.375073
0.371004
0.259228
0.453893
0.543131
0.392618
0.388175
0.136726
0.231729
0.209473
0.281354
0.258336
0.259418
0.198145
0.501794
0.495682
0.494843
0.497272
0.490219
0.499977
0.49269
0.348298
0.365383
0.343769
0.334126
0.353135
0.359475
0.340037
-0.726133
-0.718473
-0.639226
-0.704967
-0.792159
-0.766334
-0.664762
-0.661423
-0.937506
-1.18315
-1.34017
-1.19496
-0.880824
-0.507421
1.13661
1.25629
1.53454
1.10127
0.80743
1.08827
1.12559
0.257971
0.279202
0.244808
0.245278
0.274088
0.281494
0.25572
0.0431502
0.0483228
0.0396314
0.0400054
0.0462006
0.0478077
0.0405005
0.0110419
0.0167952
0.0109474
0.00775264
0.00592663
0.0101314
0.0117806
0.0171429
0.00987409
-0.00171329
0.000281761
0.0113443
0.0108638
0.0206344
0.00983741
0.0135464
0.0185326
0.0209382
0.0128134
0.0212166
0.017094
0.0117592
0.00157576
0.00535007
0.00857752
2855.64
2832.33
2838.04
2845.13
2837.5
2838.61
2773.49
2825.37
2862.17
-0.174206
0.309592
-0.150247
107.466
32.0662
0.695459
-0.398453
5.2125
-0.207277
-0.0520054
-0.0764638
1.32007
2803.32
2874.27
2845.13
2819.05
2818.33
2819.9
2822.85
2818.36
2808.5
2820.39
2799.03
2803.41
2809.92
2813.58
2816.26
2819.48
2849.98
2818.79
2828.37
2801.35
2816.85
2818.07
2817.5
2818.69
2819.82
2822.41
2818.7
2820.58
2817.91
2813.88
2809.98
2804.92
2798.91
2790.14
2815.93
2824.11
2813.39
2842.58
2809.24
2785.37
2812.35
1445.86
616.057
2834.86
2877.57
2860.03
2702.83
2713.06
0.0179082
0.0118924
0.0110952
0.00449181
0.00951748
0.0119476
0.00475653
0.00228779
0.00970284
90.3265
93.3522
93.1972
93.9109
94.6767
93.1904
93.3692
93.9694
93.6237
95.6536
94.8424
94.8421
90.4703
92.2854
87.1496
0.0121954
0.0228009
0.0160193
0.00110405
0.00757724
0.0083593
0.608628
0.605218
0.602931
0.439988
0.438258
0.434448
0.513156
0.500932
0.484091
0.511965
0.601413
0.596174
0.595364
0.111657
0.131869
0.107244
0.439852
0.434323
0.437797
0.924556
2.20933
1.76703
0.599959
0.607991
0.600716
0.605913
0.644564
0.666819
0.557528
0.0977103
0.0902604
0.12041
0.110355
-0.164747
-0.1082
-0.207376
-0.0788774
0.438527
0.441734
0.442665
0.445779
0.469173
0.454313
0.481444
0.475717
0.49529
0.490623
0.496315
0.495385
0.492006
0.482119
0.441754
0.438584
0.44591
0.442741
-0.0795225
-0.113469
0.0963439
0.0190397
0.112085
0.00960294
-0.0135693
0.0362805
0.00433195
-0.0374549
0.468962
0.454064
0.497112
0.496141
0.483139
0.493016
0.513944
0.499715
0.534259
0.524132
0.523028
0.547982
0.531143
0.546644
0.295352
0.348582
0.278806
0.325299
4.70912
2.49727
5.20176
1.66611
0.0461545
0.0553118
0.058213
0.268435
0.259711
0.266769
0.258173
4.23328
46.0143
5.92397
16.2344
-0.335417
-0.313427
-0.187066
-0.145395
0.0878326
0.0943784
0.0980428
0.574605
0.641377
0.21526
0.320735
0.208419
0.280149
0.580572
0.575023
0.575047
0.580607
0.223685
0.236974
0.00716811
0.0145299
0.0163451
0.0207727
93.2283
91.224
93.7948
96.9944
0.0430087
0.052226
0.0469054
0.0509896
0.55933
0.563168
0.589915
0.598323
0.362631
0.336276
0.319801
0.260788
0.311991
-0.403872
-0.297711
-0.921126
0.583547
0.605973
0.618179
0.608374
0.581264
0.582449
-0.164236
-0.073006
0.148759
0.0994367
0.602224
0.584977
0.604662
0.606211
-0.0292383
0.00623196
2847.69
2857.02
0.0324617
0.0357749
0.0336899
0.0447849
0.563813
0.690908
0.653267
1.08106
0.680191
0.576867
0.784177
0.689403
0.505546
0.495615
0.0490837
0.0454784
0.0494883
0.0432332
0.604965
0.489629
0.535004
0.477906
0.0534217
0.041848
0.0340449
0.0366598
0.526853
0.522805
0.377352
0.38203
0.375791
0.382193
44.1503
97.3085
93.8019
81.2544
89.9058
94.7052
96.7359
0.460773
0.467123
0.461297
0.471745
0.508542
0.510766
0.508645
96.8858
96.4526
53.1353
58.9924
83.1661
87.884
-0.957473
-0.654082
-0.335481
-0.339947
-0.367923
-0.393691
-0.399581
-0.386654
0.0230586
0.0137334
0.0236687
-0.00150515
-0.00037933
0.0029032
0.128301
0.124751
0.47935
0.47749
0.458932
0.46508
0.477585
0.479413
0.465208
0.458842
0.57962
0.552847
0.55873
0.569106
0.674288
0.670841
0.745926
0.681503
-0.388064
-0.363078
0.144638
0.172786
-0.17781
-0.214257
-0.240701
-0.109425
0.511232
0.493503
0.529154
0.528382
0.222019
0.229402
0.829723
0.422951
0.528392
0.529161
12.6683
17.4971
2194.72
2693.99
0.547481
0.543262
0.552793
0.547166
0.635826
0.660766
0.811811
0.648347
0.542538
0.537072
0.276582
0.265553
0.286669
0.270362
0.333168
0.318749
2840.54
2849.08
2854.94
2835.86
-0.423783
-0.502396
-0.528492
-0.626313
0.556635
0.52784
0.494344
0.558954
-1.97389
-0.443718
-1.99712
-2.13476
0.449182
0.457628
0.634774
0.887333
0.475981
0.498101
0.510436
0.538153
2.31133
1.88385
1.66756
1.23056
-0.0467564
-0.0539749
-0.0661871
-0.0953328
0.18545
0.189659
41.591
17.6199
0.0598071
0.0639798
0.583789
0.871848
2822.99
0.596016
0.600492
0.606274
0.609491
0.372467
0.377324
0.375284
0.381572
0.681246
1.45296
0.350607
0.328376
0.0702995
0.07995
0.430896
0.433884
0.436898
0.439414
0.549771
0.541912
0.614734
0.41774
0.431746
0.482079
64.1902
88.1543
92.2271
0.319787
0.319982
0.302363
0.308378
0.231335
0.331786
0.274978
0.271321
0.0202121
0.00581238
0.0332702
0.0223658
0.438038
0.439298
-1.11644
-1.4785
-0.948829
-1.43954
0.479509
0.490901
0.457369
0.465855
-0.0208787
-0.0357884
-0.0154309
-0.013241
0.515967
0.511717
0.505935
0.503017
0.775999
0.638694
0.498739
0.488681
0.220133
0.214499
0.221321
0.211704
0.216148
0.222749
0.607812
0.604154
0.59953
0.596169
0.721746
0.721115
0.706664
0.700372
0.0407478
0.0451242
0.0313828
0.0349612
0.00586394
0.0201121
0.0222571
0.0330756
0.439289
0.438105
0.363566
0.368205
0.525944
0.533714
0.485689
0.491988
0.531444
0.524655
0.489821
0.483853
0.0443394
0.173114
0.150169
0.68513
-0.0178962
0.0448669
0.538253
0.198517
0.0207738
0.454951
0.458315
0.38846
0.423498
0.346347
0.38265
0.21026
0.215142
0.221488
0.226031
0.604125
0.607615
0.59625
0.599687
0.531949
0.530882
0.525754
0.522931
0.421095
0.388537
0.379947
0.344375
1.07045
0.761697
0.969733
0.800132
0.22282
0.222052
0.802496
0.565047
41.2059
53.7301
0.143922
0.152432
0.117418
0.10942
-0.477064
-0.429533
-0.508241
-0.431749
1.21434
1.21798
1.31595
1.27919
2823.56
2854.01
1.17398
1.07978
146.906
390.107
1534.91
1642.62
0.443329
0.446044
0.231426
0.230158
0.356204
0.311165
0.478108
0.482921
0.472754
0.478144
2867.16
2876.75
0.48338
0.478335
0.478215
0.472872
0.440881
0.438064
-0.0447555
-0.0385034
0.393293
0.391138
0.585287
-1.44612
-1.52953
-0.476892
-0.460321
0.493449
0.349265
0.885726
0.755925
-0.296701
-0.686367
0.424775
0.425579
0.43266
0.436335
-0.0234134
0.00998092
0.032203
0.0595909
0.215769
0.221703
0.0109904
-0.023224
0.0605716
0.0335384
0.0255193
0.0295122
0.0295092
0.0255252
0.729153
0.730459
0.750384
0.739919
-0.188675
-0.507072
0.489478
0.492867
0.480688
0.481904
0.320121
0.32011
26.3402
23.2357
18.4339
24.0434
0.889425
0.465122
0.906238
1.1959
1.90325
1.88213
0.942707
0.746565
2.28035
2.30148
0.555508
0.575862
0.46919
0.46796
0.812898
0.809215
0.836617
0.846297
0.557604
0.556505
0.561668
0.561552
0.559584
0.344618
0.539
-0.248605
0.543332
0.563661
0.530707
0.538819
0.545956
0.542511
2.03941
1.82958
3.11526
2.46322
0.711558
0.692512
0.721035
0.682457
0.490961
0.493232
0.323012
0.307573
0.48192
0.416991
0.370003
0.386425
0.327151
0.334059
0.511935
0.537834
0.961762
0.733702
0.112248
0.106664
0.17121
0.157578
0.521913
0.518927
0.518199
0.515776
0.171187
0.157642
0.497253
0.502849
0.48493
0.493641
0.493354
0.49097
0.658009
0.735001
0.548751
0.552682
0.542979
0.547018
0.352091
0.265589
2823.42
2839.01
2825.93
2843.86
0.361157
0.496522
0.498071
0.498405
0.411282
0.414262
-0.432765
-0.396875
-0.452719
-0.379003
0.39913
0.404496
0.385849
0.392761
0.461997
0.457652
0.463223
0.456487
0.577083
0.563403
0.120247
0.131616
0.617828
0.620414
0.42881
0.399362
0.269159
0.523346
0.604356
0.599307
0.687946
0.406147
0.120199
0.131564
0.235152
0.2334
0.54129
0.54269
0.0536668
0.053552
0.0466495
0.534639
0.536203
0.892836
0.551084
0.742856
0.373207
1.16377
1.06635
0.29264
0.25457
0.234609
0.215773
60.2999
122.418
50.347
95.0118
2772.24
2784.11
0.345752
0.326719
0.462141
0.467255
0.512862
0.508612
0.508342
0.503251
0.708518
0.693952
-0.443201
-0.525871
0.631701
0.637904
0.627629
0.63578
0.497887
0.501597
0.50162
0.497991
0.507333
0.508707
0.543435
0.540027
0.534693
0.536166
0.200623
0.196324
0.20002
0.19662
2843.33
2838.9
1.46616
0.858892
0.711974
0.640129
-0.510424
-0.556704
0.247194
0.245589
-0.189689
-0.174739
-0.0952556
-0.0645582
0.37967
0.418823
-0.0184291
0.052968
-0.345703
-0.390928
-0.254116
-0.215692
0.577594
1.34181
1.23077
0.57783
0.931303
0.597945
0.530655
0.531857
0.527994
0.530324
0.255306
0.257261
0.112486
0.117471
0.107293
0.117034
0.247347
0.245715
-0.0398114
-0.0415802
2799.13
29.3462
8.95534
12.7658
0.55291
0.549855
0.244101
0.268468
0.445051
0.442374
0.22968
0.253028
0.443231
0.463553
0.41846
0.229713
0.252983
24.8
9.26554
0.160773
0.166291
0.465051
0.453595
0.360659
0.346661
0.0392035
0.0254826
0.0772685
0.0684086
-0.112454
-0.107876
0.646022
0.659245
0.529189
0.533434
0.440582
0.443363
-0.485557
-1.07401
-0.526365
-1.48204
0.498847
0.504466
0.467356
0.472143
0.599832
0.601779
0.455889
0.432361
0.235149
0.229687
0.235025
0.229631
0.817436
0.838822
-1.0918
-1.4938
0.645583
0.659012
0.330148
0.345019
0.113049
0.10765
-1.6062
-1.60896
0.817264
0.838717
0.504439
0.49882
1.25952
2.17717
0.432806
0.420457
0.115793
0.170349
0.576401
0.601517
0.0744309
0.168727
0.298484