/*--------------------------------*- C++ -*----------------------------------*\
| =========                 |                                                 |
| \\      /  F ield         | OpenFOAM: The Open Source CFD Toolbox           |
|  \\    /   O peration     | Version:  v2012                                 |
|   \\  /    A nd           | Website:  www.openfoam.com                      |
|    \\/     M anipulation  |                                                 |
\*---------------------------------------------------------------------------*/
FoamFile
{
    version     2.0;
    format      ascii;
    class       volVectorField;
    location    "0.05";
    object      U;
}
// * * * * * * * * * * * * * * * * * * * * * * * * * * * * * * * * * * * * * //

dimensions      [0 1 -1 0 0 0 0];


internalField   nonuniform List<vector> 
24700
(
(0.0185558 -1.7461 0.0176542)
(-0.00739233 -1.69436 0.010215)
(-0.00524537 -1.64339 0.0028598)
(0.0707425 -1.44714 -0.0171978)
(0.0308149 -1.55963 -0.0374969)
(0.0776891 -1.51324 -0.0549941)
(0.0555055 -1.56319 -0.0471605)
(-0.0109027 -1.49074 0.00475677)
(0.0774566 -0.90326 -0.0181862)
(0.02412 -1.39792 -0.0222657)
(-0.00226287 -1.46527 -0.0232166)
(-0.00365739 -1.49844 0.0039497)
(-6.84632e-05 -1.48488 -0.0207424)
(0.00419284 -1.4703 -0.0196523)
(0.00553867 -1.48525 0.00367327)
(-0.00177332 -1.49521 0.000457402)
(-0.00203918 -1.48927 -0.0164282)
(-0.0045323 -1.56887 0.0170897)
(0.0332938 -1.54257 0.0208381)
(0.00148258 -1.66421 0.0928939)
(0.0439712 -1.45241 0.00415779)
(0.00963188 -1.49673 -0.000774972)
(0.0262975 -1.44608 0.00727924)
(0.00485655 -1.57132 0.050976)
(0.0522435 -1.43859 -0.00185575)
(0.00843115 -1.51379 -0.00608191)
(0.0436953 -1.20811 -0.0018744)
(-0.0116002 -1.49788 0.00912959)
(-0.0259698 -1.50404 -0.0308817)
(-0.00816716 0.258751 -0.0237798)
(0.00306487 0.275506 -0.00158724)
(0.00195198 0.272202 -0.00890559)
(-0.0203907 0.265125 -0.00629419)
(-0.0148717 0.276868 0.00667806)
(-0.0367951 0.27743 -0.0024091)
(-0.00673788 0.27417 -0.00193152)
(0.00107941 0.360913 -0.0870049)
(0.0115289 0.364808 -0.0740537)
(0.0020059 0.374317 -0.100162)
(-0.0102307 0.348615 -0.0681458)
(-0.0163819 0.352496 -0.0672369)
(0.00236291 0.345537 -0.0575044)
(-0.00555484 0.351337 -0.0729829)
(-2.1827e-05 -0.161184 -0.0871404)
(0.00540506 -0.162739 -0.0804968)
(0.00720556 -0.167401 -0.0769227)
(-0.00651456 -0.1655 -0.0846026)
(-0.00540859 -0.161252 -0.0836309)
(-0.00109252 -0.169779 -0.0871156)
(-0.000847786 -0.178986 -0.0859232)
(-0.0921369 0.895098 0.00420477)
(0.018446 1.13821 -0.114359)
(0.160119 0.739831 0.0566767)
(-0.0136754 1.03095 -0.139606)
(0.178038 1.02919 -0.121678)
(0.0360838 0.800554 -0.00780043)
(0.290235 0.771859 0.0773516)
(0.139095 -2.12394 0.352393)
(0.0991885 -2.30888 1.4054)
(0.603806 -2.1793 -0.48096)
(0.198341 -1.75981 -0.458793)
(-0.414275 -1.52071 -0.14708)
(0.424862 -1.99388 -0.47326)
(-0.365457 -1.67842 -0.469588)
(6.92232e-05 -0.00397603 0.222051)
(-0.000712101 -0.00949608 0.209698)
(-0.00389032 0.00345994 0.203496)
(0.00525134 0.00944906 0.216417)
(-0.00466545 -0.00800838 0.226735)
(-0.000459713 -0.00823002 0.21958)
(0.00436002 0.0151516 0.206887)
(-0.0590763 0.798603 0.160284)
(0.0144128 0.654768 0.0630827)
(-0.0426281 0.695958 0.107556)
(0.0133294 0.57386 0.280363)
(0.0941841 0.500586 0.226974)
(-0.0194424 0.613289 0.249253)
(-0.11315 0.754656 0.345176)
(0.0221215 -1.53445 -0.0320523)
(-0.0321603 -1.14237 0.0471593)
(-0.00830176 -1.56124 -0.0401626)
(-0.0611185 -1.76686 -0.000165609)
(0.0643129 -1.45417 -0.0162865)
(0.00744153 -1.64153 -0.0490168)
(-0.0133993 -1.63693 -0.0669988)
(-0.00327879 0.109813 -0.105662)
(-0.0655395 0.306722 -0.0893089)
(0.0041038 0.238905 -0.0392785)
(0.0490845 0.129716 -0.147064)
(-0.0158657 0.162439 -0.136356)
(-0.102704 0.292305 -0.140764)
(-0.0361385 0.21546 -0.0535448)
(-0.000888331 0.099154 0.132751)
(0.00937415 0.0912148 0.129705)
(0.00114947 0.114245 0.141729)
(-0.00463705 0.106882 0.123973)
(-0.00554262 0.103914 0.12297)
(0.00677413 0.0865023 0.117276)
(-0.00293066 0.0962732 0.12692)
(-2.22944e-05 0.0472707 0.0667764)
(-0.00143889 0.0453863 0.0687465)
(-0.00314614 0.043647 0.0734046)
(0.000279739 0.0433088 0.0721799)
(0.00138281 0.0473376 0.0664522)
(-0.000927491 0.0505404 0.0718679)
(-0.00300507 0.0469337 0.0791546)
(-0.000182971 0.00383113 0.0432651)
(-0.000780038 0.00911414 0.0383625)
(9.87706e-07 0.0047357 0.040459)
(0.000802323 0.00800243 0.038756)
(-1.70479e-05 0.00570891 0.0408738)
(-0.000524377 0.00906231 0.0375042)
(0.00163575 0.00495542 0.0413475)
(-0.00532412 0.0832023 0.00605229)
(-0.000619637 0.0935452 0.00777028)
(0.000759045 0.0955544 0.0131835)
(0.010619 0.0879597 -0.00525528)
(0.000399623 0.0850241 6.48285e-05)
(-0.00617388 0.0775676 0.00287019)
(0.0100905 0.0860329 -0.00628475)
(-0.0124892 0.0567927 -0.000462666)
(0.0156672 0.0855824 -0.0154568)
(-0.00205387 0.0857402 -0.00260913)
(-0.000333947 0.0854278 0.0155906)
(-0.00289721 0.0837473 0.0167469)
(8.97882e-05 0.0897564 0.0175928)
(0.00812227 0.0988675 0.00558822)
(-0.00310197 0.091339 0.00492694)
(0.00516485 0.0969366 0.0025067)
(-0.00596266 0.0958729 0.00166053)
(-0.00530655 0.0986975 -0.00374553)
(0.00336838 0.0946581 0.00198058)
(0.00371644 0.0937904 -0.00056129)
(-0.0166231 0.0992395 0.00425759)
(-0.00734895 0.0986013 -0.000666833)
(-0.00419969 0.0956509 0.0115928)
(-0.000496013 0.109301 0.000368069)
(-0.00502777 0.0988601 0.00780237)
(0.00575981 0.102821 0.0109535)
(0.00195718 0.105017 0.0114074)
(-0.00331339 0.101716 0.01631)
(-0.000136238 0.0984163 0.0149451)
(-0.000733386 0.101642 0.126437)
(0.00262814 0.0964238 0.107894)
(0.00421978 0.0985927 0.108165)
(-0.00787184 0.0840331 0.114474)
(0.00278128 0.0893693 0.119901)
(0.00241093 0.0898142 0.109624)
(-0.00231872 0.0837351 0.103824)
(-0.00705428 -0.167434 -0.0770113)
(-0.00541557 -0.16274 -0.0805442)
(2.58495e-05 -0.16112 -0.0871041)
(0.00531068 -0.161166 -0.0836414)
(0.00645707 -0.165454 -0.0845346)
(0.00100478 -0.169783 -0.0872176)
(0.00100136 -0.179028 -0.0860172)
(-0.0710775 0.101077 -0.137614)
(0.0237538 0.1838 -0.110362)
(-0.0118852 0.192468 -0.209635)
(0.0333012 0.144075 -0.193137)
(0.0244083 0.186927 -0.204912)
(0.00729008 0.198391 -0.145051)
(-0.0299871 0.137782 -0.143535)
(-0.00978851 0.510127 -0.211037)
(0.0167999 0.426296 -0.227699)
(-0.0198171 0.342291 -0.184433)
(0.0489342 0.447691 -0.120638)
(0.0814383 0.54054 -0.0717239)
(0.0936156 0.424187 -0.0946959)
(0.0166345 0.380314 -0.154583)
(-0.0328758 0.548188 0.195053)
(-0.0325642 0.329409 0.191337)
(-0.156187 0.0288169 0.33476)
(0.0708309 0.10182 0.471573)
(0.129198 0.420101 0.374913)
(-0.0119213 0.317632 0.329896)
(-0.111174 0.0632889 0.390071)
(-0.0607263 -0.408691 0.501306)
(-0.0494658 -0.533308 0.414272)
(-0.0029692 -0.6786 0.351595)
(0.056688 -0.536984 0.504909)
(0.0618713 -0.410381 0.578496)
(-0.0363551 -0.503911 0.508421)
(-0.0601397 -0.411745 0.575671)
(-0.0215034 -0.0874512 0.245397)
(0.0442058 -0.112566 0.278593)
(0.000988804 -0.159006 0.387815)
(-0.0209552 -0.119024 0.354303)
(-0.068158 -0.0965627 0.282503)
(0.0304504 -0.139977 0.342949)
(-0.0774858 -0.110817 0.268507)
(0.0122114 -0.0627255 -0.0388039)
(0.0086865 -0.0698289 -0.0417292)
(-0.000705015 -0.0531074 -0.0483512)
(-0.00397129 -0.116921 -0.0481549)
(-0.0171307 -0.0826541 -0.066)
(-0.00864787 -0.0931297 -0.0455356)
(0.00820885 -0.0687074 -0.0519537)
(0.00157744 -0.13596 -0.0633603)
(-5.51174e-05 -0.138598 -0.0587518)
(0.00348862 -0.136077 -0.0574656)
(-0.00319641 -0.139577 -0.0557178)
(-0.00400276 -0.142133 -0.0561209)
(-0.00147573 -0.140976 -0.0603804)
(0.00103204 -0.138002 -0.0569628)
(-0.00219937 -0.357581 -0.0559771)
(0.00182244 -0.380658 -0.0587872)
(-0.00674656 -0.366796 -0.0440166)
(-0.00696811 -0.383754 -0.0934275)
(0.012523 -0.398785 -0.0864574)
(0.00707061 -0.396413 -0.0673004)
(-0.00179868 -0.374509 -0.0845862)
(-0.0025449 -0.255019 -0.150671)
(-0.00369181 -0.230108 -0.136012)
(-0.0104947 -0.223624 -0.124227)
(0.00902651 -0.226905 -0.137649)
(0.0074403 -0.224212 -0.134175)
(-0.000626602 -0.216367 -0.132251)
(-0.00398475 -0.207535 -0.117858)
(-0.014764 -0.0656521 -0.0934069)
(-0.000823227 -0.0511961 -0.10601)
(-0.00329224 -0.0643765 -0.0938196)
(0.00777431 -0.0647128 -0.101573)
(0.0114136 -0.0648264 -0.0964538)
(0.00258494 -0.0762174 -0.102714)
(-0.00196784 -0.077482 -0.0944038)
(0.0694262 -0.340199 -0.40678)
(-0.0254096 -0.0876405 -0.299681)
(-0.0193359 -0.137342 -0.522809)
(-0.0334648 -0.0204111 -0.466845)
(0.0813366 -0.237857 -0.5011)
(0.000434486 -0.106746 -0.279043)
(0.195334 -0.380495 -0.409885)
(0.0248927 1.24242 -0.420367)
(0.0694316 1.09283 -0.272995)
(0.105942 1.32083 -0.287039)
(-1.8649e-07 0.828022 -0.487076)
(-0.0635656 0.317028 -0.508747)
(0.136523 0.866305 -0.423797)
(0.139946 1.1539 -0.374121)
(-0.00195382 0.00803616 0.318533)
(-0.000473368 0.0310181 0.319891)
(-0.000759402 0.0479054 0.311844)
(-0.00972638 0.0265247 0.261426)
(0.00410105 0.00627225 0.269351)
(-0.00232136 0.0225674 0.282267)
(-0.0105835 0.0466542 0.278412)
(0.048837 0.340408 0.110242)
(0.0742108 0.267916 -0.0135534)
(-0.0134034 0.363631 -0.0482372)
(0.0133282 0.380408 0.0775527)
(-0.0300234 0.368085 -0.0448654)
(-0.0647169 0.420888 -0.0558026)
(0.00310416 -0.000241298 -0.0127275)
(0.00635286 -0.00281346 -0.0144551)
(0.0173944 0.00915055 -0.0188207)
(-0.000221601 0.00255809 -0.0160414)
(-0.00999382 0.000770162 -0.0183126)
(0.00946989 0.0158395 -0.018019)
(0.0073451 0.268259 -0.0253499)
(0.0453727 0.266156 -0.0952065)
(-0.00628133 0.385068 0.180216)
(0.0367705 0.0179484 -0.110331)
(0.041142 0.113713 -0.103546)
(0.105997 0.0884351 -0.136313)
(0.0424843 -0.0342313 -0.0482524)
(0.0750594 0.00439187 -0.0102738)
(-0.169191 0.147038 -0.180958)
(-0.0155413 -0.217226 -0.0506318)
(0.0830039 0.107178 0.00840249)
(0.0531623 0.0554389 -0.093413)
(0.167831 0.0660419 -0.0620742)
(0.04857 0.0948642 -0.112288)
(-0.106024 -0.496745 -0.323618)
(-0.00986426 -0.222833 -0.547361)
(-0.0925259 -0.275311 -0.0713598)
(-0.054877 -0.346473 -1.01032)
(-0.0698337 -0.235804 -0.86369)
(-0.176024 -0.245381 -0.395502)
(-0.106864 -0.353418 -0.732699)
(-0.0222061 -0.302528 -0.348862)
(0.0171585 -0.29483 -0.414074)
(0.0920038 -0.452121 -0.404887)
(0.0512643 -0.540472 -0.133806)
(-0.0630782 -0.336628 -0.185684)
(0.0419812 -0.413045 -0.180745)
(0.168642 -0.677053 -0.203748)
(-0.0577307 -0.512563 0.409299)
(-0.0719939 -0.666935 0.309023)
(-0.002732 -0.417095 0.641328)
(0.0646294 -0.700087 0.691779)
(0.071627 -0.853432 0.598951)
(-0.0139062 -0.787759 0.453561)
(-0.0152253 -0.654163 0.488412)
(-0.0382224 0.322413 0.941843)
(-0.0789172 -0.236139 0.72272)
(-0.0824386 -0.52863 0.57529)
(-0.05375 0.177024 0.159082)
(0.0371759 0.406446 0.524783)
(-0.0997658 -0.121518 0.401722)
(-0.188172 -0.314452 0.328329)
(-0.0114812 1.05214 -0.806562)
(0.000889853 0.814027 -0.842032)
(-0.0114774 0.930258 -0.795424)
(-0.017781 0.897019 -0.946048)
(-0.0167678 0.822708 -0.900061)
(-0.054972 0.900756 -0.820724)
(-0.0585192 0.975561 -0.825203)
(-0.000862335 -0.14588 -0.0170048)
(-0.00404159 -0.138188 -0.0300206)
(0.00150207 -0.139853 -0.040675)
(0.00877884 -0.151717 -0.0387224)
(-0.00173856 -0.156668 -0.0347133)
(-0.00115545 -0.143529 -0.0389194)
(0.00599525 -0.143299 -0.0455956)
(0.000243614 -0.140667 -0.00371082)
(-0.000560177 -0.146415 -0.0046175)
(-0.000487242 -0.144741 -0.00604808)
(0.00017926 -0.136831 0.00600501)
(-0.00324721 -0.129793 0.00382632)
(-0.00338687 -0.145602 0.00461137)
(-0.00546164 -0.13353 0.00738724)
(-0.00197237 -0.0906322 0.152079)
(0.00233377 -0.0909042 0.14119)
(-0.000586391 -0.0939953 0.142571)
(-0.00303469 -0.10103 0.133858)
(-0.00162115 -0.105467 0.140395)
(-0.000309558 -0.103509 0.143869)
(0.00254432 -0.108 0.157435)
(0.00736331 0.0713141 0.0674839)
(0.00590161 0.0686486 0.063613)
(-0.0008686 0.0823132 0.0802702)
(-0.00768098 0.066268 0.063238)
(-0.00284768 0.075349 0.0685686)
(-0.00469328 0.0586921 0.0578428)
(0.0029819 0.0681609 0.0660156)
(-0.000446914 0.066967 0.0291452)
(0.00360154 0.0616258 0.0256145)
(0.00266088 0.05834 0.0217901)
(-0.00134229 0.0605877 0.0265049)
(-0.00616873 0.0549244 0.0237912)
(-0.000455075 0.0600951 0.0240621)
(-0.00492065 0.0549447 0.0192451)
(0.00659456 0.0691492 0.0117848)
(-0.000403896 0.0674191 0.0235483)
(0.0019771 0.0670284 0.0115195)
(-0.00232423 0.0627646 0.0187805)
(-0.00460622 0.0599908 0.0165535)
(4.7714e-05 0.0651005 0.0110776)
(0.00062178 0.0627709 0.0101041)
(0.00406998 0.0806342 0.0112717)
(0.00321003 0.0851267 0.00735451)
(0.000501596 0.08916 -0.000440251)
(-0.00400452 0.0831202 0.00485918)
(-0.00397448 0.0841723 0.00620675)
(-0.000512114 0.0819471 0.00844951)
(0.00481042 0.0774384 0.0119941)
(-0.00860234 0.0958905 0.00383705)
(0.00104859 0.0861495 0.00222945)
(0.000543251 0.0826088 0.0150294)
(0.00297672 0.0863077 0.00390194)
(0.00473202 0.0825281 0.00329119)
(0.00175784 0.0852178 0.00113122)
(0.00376241 0.0819516 9.97064e-05)
(-0.00323239 0.0888105 0.00532617)
(2.5483e-05 0.0844917 -0.00468437)
(-0.00109421 0.0890391 0.00398642)
(-0.000378394 0.0837476 0.00525456)
(0.00643315 0.0942754 0.0048123)
(0.00278419 0.0916344 0.00808574)
(-0.000968325 0.0877175 0.00864226)
(0.00165635 0.0879917 0.00891222)
(0.00044036 0.0921335 0.00358027)
(0.0039716 0.0887768 0.010377)
(-0.00626055 0.0991459 0.0111391)
(-0.000941685 0.0934352 0.0116737)
(0.00155087 0.0907644 0.0134484)
(0.00142882 0.0922936 0.01402)
(0.000537567 0.109189 0.000362016)
(0.00513861 0.0947278 0.0118264)
(0.00501912 0.0985214 0.00754135)
(-0.00217664 0.105005 0.0114663)
(-0.00615161 0.102782 0.0108615)
(0.00361754 0.101513 0.0164421)
(2.69701e-05 0.0982029 0.0147789)
(-0.00123926 0.133564 0.0493252)
(-0.00658271 0.118105 0.0401853)
(-0.00362557 0.122129 0.0399143)
(0.00550552 0.126698 0.0357409)
(0.00606407 0.124944 0.0331442)
(-0.00305244 0.11814 0.0313844)
(-0.00231995 0.119996 0.0311461)
(-0.00117616 0.11462 0.142238)
(-0.00946526 0.09137 0.129733)
(0.00106406 0.0988661 0.133064)
(0.00579967 0.103643 0.12362)
(0.00445246 0.107069 0.124869)
(-0.00720788 0.0866463 0.117762)
(0.00301832 0.0961135 0.12707)
(0.000514004 0.0957765 0.19151)
(-0.0046309 0.0831252 0.184081)
(-0.0128804 0.0688608 0.190889)
(0.00845991 0.0858079 0.203745)
(0.00654522 0.0907699 0.198312)
(0.000613724 0.0887937 0.195605)
(-0.0022658 0.0766853 0.208436)
(0.000420773 -0.559235 -0.190055)
(0.0124689 -0.503675 -0.150976)
(0.0288246 -0.52447 -0.168529)
(0.0132791 -0.586629 -0.170794)
(-0.0330895 -0.579442 -0.115927)
(-0.00838041 -0.525058 -0.106734)
(0.0295022 -0.570502 -0.169201)
(0.00646261 -0.0332814 -0.0638298)
(-0.0131022 -0.0617175 0.00358979)
(-0.00230648 0.020176 -0.0341462)
(0.0048578 0.0402855 -0.0221223)
(0.016417 -0.00943555 0.0644102)
(0.033802 -0.0125778 0.118521)
(0.0102223 -0.00301574 -0.0373641)
(-0.0426683 0.306121 0.306575)
(0.0109963 0.268965 0.236254)
(0.0374156 0.616623 0.585136)
(0.0573015 0.467467 0.785863)
(-0.0880502 0.182405 0.477049)
(0.0773428 0.692486 0.937472)
(-0.0262214 0.273758 0.698639)
(0.0058635 0.0191219 0.148197)
(0.00463694 0.0362973 0.145191)
(-0.00172967 -0.0248117 0.128919)
(-0.00847173 0.00419983 0.0731278)
(3.69391e-05 -0.0405029 0.103032)
(-0.00520053 0.0435723 0.0885093)
(0.00811387 -0.010833 0.109064)
(0.0206088 0.138904 0.0585023)
(0.00176854 0.0611781 0.0321286)
(-0.0182505 0.121261 0.0793929)
(-0.00672075 0.0642608 -0.00922526)
(0.00271706 0.0371381 0.00486264)
(0.0289833 0.092276 -0.00958885)
(-0.0167074 0.10476 0.0316852)
(-0.0459429 0.149005 0.07619)
(0.0242868 0.11475 0.0120418)
(0.0195252 0.0535116 -0.00123089)
(0.0341842 0.0367357 0.0263918)
(0.025004 0.0656406 0.0230677)
(-0.00130308 0.155993 0.046632)
(0.00530269 0.139772 0.0295514)
(0.00357791 0.16716 0.00938618)
(-0.0163811 0.208419 0.0536206)
(-0.000294172 0.199146 0.0696111)
(-0.00181581 0.198201 0.0679102)
(-0.0150986 0.229731 0.0415179)
(-0.020599 0.23434 0.00210483)
(-0.00627265 0.229625 0.0158983)
(-0.0156496 0.0994976 0.00449776)
(-0.0181912 0.125672 0.0123282)
(-0.0103964 0.196944 0.0381302)
(0.0242094 -0.115193 -0.500901)
(0.117022 -0.174709 -0.484247)
(0.0258692 0.165386 -0.566408)
(0.0132884 -0.0194512 -0.401035)
(-0.0949748 0.0658792 -0.365416)
(0.0928349 -0.126459 -0.425315)
(0.0117928 -0.154783 -0.383549)
(-0.0125918 0.719639 0.225996)
(-0.0273427 0.497232 0.204256)
(-0.0445775 0.721322 0.348914)
(0.100766 0.725611 0.154898)
(0.0375094 0.615717 0.01343)
(-0.0119756 0.448549 0.130025)
(0.105286 0.713231 0.311469)
(-0.0003566 -0.884354 0.149645)
(-0.0578336 -0.863809 0.283767)
(-0.0465273 -0.76047 0.423331)
(0.0155581 -0.562499 0.479913)
(0.0164386 -0.703925 0.270172)
(-0.0574494 -0.710828 0.430678)
(-0.0397172 -0.58824 0.650103)
(-0.00344306 -0.392802 0.170801)
(-0.00128853 -0.425431 0.226766)
(0.0308692 -0.394619 0.279713)
(-0.0127546 -0.292109 0.206568)
(-0.0150227 -0.329819 0.159871)
(-0.0200851 -0.361799 0.187797)
(0.0179516 -0.296764 0.238842)
(-0.000222381 -0.106365 0.0236332)
(-0.00341328 -0.104416 0.0163005)
(9.04107e-05 -0.102986 0.0227614)
(0.002877 -0.0977786 0.0171017)
(0.00417409 -0.0967105 0.0160034)
(6.57996e-05 -0.0967122 0.0117759)
(0.00142879 -0.0989371 0.0171043)
(-0.0011111 -0.039845 0.0990721)
(-0.00137129 -0.0333877 0.100386)
(-0.000318839 -0.0374319 0.103974)
(0.00435632 -0.0320132 0.0925185)
(0.000553139 -0.0352367 0.0944419)
(8.46788e-05 -0.027234 0.0959826)
(-0.00101033 -0.0345424 0.0958491)
(-7.51118e-05 0.0553939 0.105914)
(0.00464846 0.0476768 0.0968736)
(0.00116354 0.0466743 0.0917821)
(-0.0067126 0.037595 0.0991971)
(0.000707712 0.0419203 0.103506)
(0.00144022 0.0385963 0.101954)
(-0.00577166 0.0354491 0.093796)
(0.00475657 0.0456056 0.0200819)
(0.00340066 0.0465135 0.0200022)
(-0.000291637 0.0509664 0.0305523)
(-0.0052512 0.0388718 0.0245854)
(-0.00187645 0.0435299 0.028004)
(-0.00305304 0.0401264 0.019702)
(0.00320467 0.0412729 0.022475)
(0.00304856 0.0456591 -0.00316805)
(0.00141479 0.0481686 -0.00417838)
(0.00913953 0.0385651 0.000594991)
(0.00583604 0.0457475 -0.000457898)
(-0.000863015 0.0481642 0.00769517)
(-0.00364864 0.0506341 -0.000258503)
(0.00347847 0.0514909 -0.00712528)
(-0.00672045 0.0824431 0.0125871)
(0.000618699 0.0905972 -0.00675832)
(-0.0072708 0.0832022 0.00985379)
(0.00625221 0.075898 0.0102796)
(0.00787529 0.0798324 0.00530985)
(0.00220878 0.0784824 0.0183217)
(-0.000741305 0.0789408 0.0153424)
(0.000265086 0.167907 0.0273235)
(0.00376361 0.163087 0.0258429)
(-4.10325e-05 0.163337 0.041625)
(0.00418333 0.162423 0.0435083)
(-0.00412409 0.176652 0.0393983)
(0.00090288 0.15991 0.030559)
(-0.00406424 0.174089 0.028141)
(-0.000317953 0.175091 0.0563041)
(-0.00320276 0.166632 0.0538111)
(0.000164991 0.173898 0.0629248)
(0.00405319 0.169441 0.0631391)
(-0.00188298 0.182881 0.0604081)
(-0.000654782 0.170049 0.0543995)
(-0.00251544 0.182946 0.0539552)
(-0.00536478 -0.235194 -0.270531)
(0.00621894 -0.218052 -0.22958)
(0.019527 -0.214157 -0.228902)
(-0.0083702 -0.201849 -0.243739)
(-0.0126727 -0.211069 -0.239705)
(-0.010909 -0.208473 -0.221979)
(-0.00286098 -0.196618 -0.219131)
(-0.00175701 1.26747 0.783975)
(-0.0218705 0.979933 0.734974)
(-0.0716026 1.14789 0.510088)
(0.0753685 1.00747 0.996764)
(0.0875948 0.924573 0.851333)
(0.0717256 1.09411 1.00158)
(0.0304172 0.969761 0.790099)
(0.0473123 0.779449 -0.291376)
(0.0354882 0.440037 -0.324665)
(-0.00328527 0.340432 -0.172482)
(0.00741036 0.162184 -0.232959)
(0.0325663 0.302382 -0.157662)
(-0.011306 0.220416 -0.416565)
(-0.00238986 0.493292 -0.311463)
(0.0262145 0.233242 -0.150782)
(-0.0409506 0.237568 -0.147471)
(-0.00507212 0.166709 -0.213492)
(-0.0117044 0.0803203 -0.269172)
(-0.122598 0.0120025 -0.339308)
(-0.204549 0.0874956 -0.329436)
(-0.115001 0.144859 -0.258711)
(0.00580448 -0.00254238 0.0753356)
(0.00151888 -0.0270424 0.127738)
(-0.000135972 -0.0428996 0.10321)
(-0.00257714 0.026793 0.142336)
(-0.00403248 0.0103173 0.144881)
(-0.00772341 -0.015374 0.108347)
(0.00332291 0.0406842 0.090305)
(-0.00271422 0.0185512 0.194943)
(0.0103816 0.0508517 0.176594)
(0.00310347 0.035583 0.238269)
(-0.0032126 0.0568549 0.241844)
(-0.00915242 0.0872088 0.229127)
(0.00096421 0.0855175 0.195905)
(0.000911501 0.0363446 0.206266)
(-0.000636102 -0.358151 -0.717999)
(0.206856 -0.364576 -0.831914)
(0.0831268 -0.391518 -0.900016)
(-0.109588 -0.258752 -0.639761)
(0.0198751 -0.208806 -0.571261)
(0.302515 -0.334652 -0.612961)
(0.114749 -0.323956 -0.689434)
(0.0363376 -0.0622736 -0.0998096)
(0.0150483 -0.129206 -0.223067)
(0.092309 -0.152393 -0.0975262)
(0.0121452 0.109087 -0.289878)
(-0.0611528 -0.0636835 -0.217246)
(-0.0276747 0.0938855 -0.26693)
(0.250382 0.167122 -0.0805512)
(-0.00181333 0.0737088 -0.205391)
(-0.00453295 -0.0216975 -0.312543)
(-0.0325871 -0.0568313 -0.272996)
(0.0297233 -0.0336141 -0.205257)
(0.0313866 -0.036723 -0.283324)
(0.0119797 -0.163202 -0.290747)
(0.0285878 -0.157289 -0.160162)
(0.00165167 -0.285428 0.0280297)
(-0.00386792 -0.267118 0.0227047)
(-0.00134201 -0.295525 0.016076)
(0.00325037 -0.282092 -0.0133802)
(0.0030264 -0.296062 -0.00279188)
(-0.000935604 -0.264815 0.0065809)
(0.000918642 -0.281765 0.0167278)
(0.00072572 -0.183104 -0.0430497)
(-0.000718376 -0.196509 -0.0409815)
(-0.00300678 -0.179263 -0.03888)
(0.00100026 -0.198297 -0.0307233)
(0.00179722 -0.197485 -0.0248253)
(0.000366104 -0.186699 -0.0341895)
(-0.00135965 -0.187093 -0.0304741)
(0.00027299 -0.103021 -0.0585921)
(0.000685858 -0.100573 -0.0533071)
(-0.000203987 -0.106208 -0.0626632)
(0.000184072 -0.0970951 -0.0671225)
(0.00183677 -0.102324 -0.0677306)
(0.000568023 -0.103132 -0.0658059)
(0.00113502 -0.104127 -0.0679988)
(-0.00328653 -0.0209308 0.0637535)
(-0.00342007 -0.0234803 0.0630948)
(-0.000309748 -0.014277 0.0702724)
(0.0038735 -0.0171481 0.0640393)
(0.00117008 -0.0168547 0.0661459)
(-0.00332232 -0.0219408 0.0644898)
(-0.00107887 -0.0214141 0.0620207)
(0.00468297 0.0293403 0.0674889)
(0.00569557 0.0276055 0.0640623)
(-0.000370383 0.0353261 0.0744362)
(-0.00596626 0.0236989 0.0646318)
(-0.00197809 0.0248589 0.0680112)
(0.00100413 0.0213504 0.0617329)
(0.00250881 0.0239422 0.0681633)
(0.00572015 0.0258803 -1.64868e-05)
(-0.00251668 0.0248327 0.00423305)
(0.000718425 0.0300963 -1.48676e-05)
(0.000569317 0.0326881 0.0011724)
(-0.00523337 0.0352152 -0.00589586)
(-0.0047787 0.0255461 0.00271437)
(0.000262313 0.0324625 0.00224317)
(7.88631e-05 0.0253946 0.00181065)
(0.00335069 0.0413339 0.0066376)
(-0.00434216 0.0331831 0.00981333)
(-0.000603529 0.0252466 0.00317614)
(-0.00387349 0.0275408 0.00258936)
(0.00257331 0.0377742 0.000426642)
(-0.00186053 0.0455307 -0.000733924)
(-0.00502737 0.0430255 -0.0028902)
(0.0036596 0.0417292 0.00189371)
(0.00145403 0.0405018 0.00276521)
(-0.00276868 0.0439343 0.00114288)
(0.00103892 0.0441521 -0.00662199)
(8.24789e-05 0.0477658 0.00572319)
(-0.00337284 0.0459078 -0.000271325)
(0.00130921 0.0489627 0.00476336)
(0.00306079 0.0425075 -0.0019883)
(-0.00535371 0.0450776 0.00249117)
(0.00451414 0.0560149 -0.00839277)
(-0.0132005 0.0471889 0.00825486)
(-0.0001318 0.0555428 -0.00962069)
(-0.0258161 0.0686806 0.0187287)
(0.018002 0.0540407 0.00642826)
(0.000542703 0.189648 0.0681507)
(0.00680215 0.185074 0.0668862)
(-0.00250995 0.198712 0.0657631)
(-0.00453777 0.194673 0.0645665)
(-0.00221656 0.181246 0.0591812)
(0.00199572 0.183644 0.0590103)
(-0.00572121 0.201754 0.0613771)
(-0.00875187 0.736895 -0.0348854)
(-0.0620249 0.564747 0.201334)
(-0.0223346 0.593494 0.262572)
(0.0471568 0.632809 -0.0611549)
(-0.0402703 0.645488 -0.0121026)
(-0.0772405 0.54031 0.179419)
(-0.134014 0.570032 0.261835)
(-0.00113209 -0.10233 -0.415694)
(0.00546585 -0.112563 -0.396646)
(0.00276027 -0.0743432 -0.380346)
(-0.00616548 -0.067561 -0.430067)
(0.0100674 -0.106921 -0.441785)
(-0.00121194 -0.109786 -0.409261)
(-0.000851819 -0.0585918 -0.381384)
(-0.00238951 -0.0761867 -0.350422)
(0.00195245 -0.0291534 -0.322458)
(0.0171941 -0.0702788 -0.365509)
(-0.00788485 -0.0285844 -0.314827)
(-0.0052247 -0.0140693 -0.347914)
(0.0140886 -0.0452205 -0.374224)
(-0.000103899 -0.0668338 -0.341828)
(-0.0194515 -0.185138 -0.140065)
(-0.00393932 -0.223241 -0.195236)
(0.00426451 -0.184053 -0.137788)
(0.015661 -0.211023 -0.148573)
(-0.00252328 -0.200418 -0.145063)
(-0.00290988 -0.188465 -0.130852)
(-0.0299305 -0.178799 -0.129577)
(0.0179913 -0.17402 -0.236762)
(-0.00611281 -0.222762 -0.261558)
(-0.00118379 -0.172109 -0.247552)
(-0.0324154 -0.178406 -0.176439)
(0.00461658 -0.193205 -0.186936)
(-0.0332458 -0.150532 -0.1924)
(0.000877312 -0.160985 -0.182521)
(-0.0413056 2.55376 -0.119509)
(0.0630798 2.1068 -0.229269)
(0.148765 1.56485 -0.372078)
(-0.0321055 2.2025 -0.267716)
(-0.0243479 2.23847 -0.16471)
(0.0164451 2.21719 -0.207732)
(0.0777454 1.98049 -0.327811)
(-0.0552997 0.776743 0.0688209)
(-0.0182903 0.515043 0.361272)
(-0.0402999 0.882326 -0.171963)
(0.174882 0.474929 0.356989)
(0.0466736 0.637927 0.0904503)
(0.215707 0.453656 0.523522)
(0.0934277 0.55288 0.182037)
(0.000105142 -0.203154 -0.00603756)
(0.00185355 -0.211164 -0.00893193)
(-0.000909989 -0.21043 -0.00786639)
(0.00149168 -0.172178 0.00339922)
(-0.00386232 -0.19424 -0.0115311)
(-0.00110941 -0.20648 -0.00522571)
(0.00493166 -0.202742 0.0036199)
(-0.00571435 -0.0661292 -0.00207879)
(-0.00760178 -0.1635 -0.0156864)
(0.000389356 -0.166655 -0.00133302)
(-0.00101554 -0.17284 0.0047619)
(-0.00452556 -0.183194 -0.00646528)
(0.00597052 0.0439778 0.307091)
(0.00345016 0.0305963 0.31318)
(0.00166398 0.0130056 0.313258)
(0.00786311 0.0290402 0.258876)
(-0.00728438 0.0122438 0.268399)
(0.00432887 0.025219 0.278779)
(0.0162698 0.0458742 0.276107)
(0.0315763 -0.261254 0.198613)
(0.00940331 -0.328268 0.301499)
(-0.000797476 -0.301547 0.285533)
(-0.0116025 -0.381346 0.248701)
(-0.00105065 -0.331065 0.231235)
(-0.00348267 -0.426017 0.261224)
(0.00580429 -0.341348 0.179006)
(-0.00859721 -0.5281 -0.194914)
(0.0461032 -0.521299 -0.273529)
(0.0113053 -0.460543 -0.213358)
(0.0402689 -0.623613 0.172163)
(-0.053973 -0.663443 0.304955)
(0.0146828 -0.637223 0.0900334)
(-0.00164869 -0.613479 0.190458)
(-0.0754984 -0.267649 0.18763)
(-0.111762 -0.0459339 -0.0727418)
(0.0481494 -0.0180333 -0.052885)
(0.171407 0.360909 -0.179582)
(0.173934 0.24044 -0.182049)
(0.112534 0.26595 -0.28398)
(0.173395 0.16314 -0.223823)
(0.0103438 -0.204366 -0.494344)
(0.0176402 -0.234044 -0.454028)
(-0.00176452 -0.143682 -0.500874)
(-0.00693522 -0.167991 -0.41603)
(-0.0103029 -0.138689 -0.445554)
(0.00362545 -0.210077 -0.42631)
(-0.00113355 -0.17729 -0.447254)
(-0.00521446 -0.195774 -0.248233)
(0.00254888 -0.222482 -0.256956)
(-1.48629e-05 -0.236977 -0.255917)
(0.00374887 -0.247564 -0.209238)
(-0.00436251 -0.213844 -0.194927)
(0.00536752 -0.238588 -0.217075)
(-0.00759409 -0.18823 -0.201847)
(0.000170711 -0.238936 -0.0459733)
(-7.39588e-06 -0.236259 -0.0453548)
(-0.0025703 -0.237911 -0.0440716)
(0.00124116 -0.232626 -0.0484686)
(0.00167995 -0.236894 -0.049022)
(0.00277976 -0.234861 -0.0459416)
(0.00109058 -0.235594 -0.0443714)
(-6.5751e-05 -0.0204009 -0.0693873)
(-0.000419158 -0.0237233 -0.0705392)
(-0.000668753 -0.0243851 -0.0673115)
(0.00101327 -0.0249681 -0.0573648)
(-0.0024437 -0.0155877 -0.0579568)
(-0.000132742 -0.0243956 -0.061812)
(-0.00067378 -0.0165121 -0.0623633)
(8.23416e-05 -0.0212452 0.0198006)
(-0.00294511 -0.0253933 0.0150547)
(0.00211063 -0.02558 0.0198705)
(0.000526978 -0.0181313 0.0208993)
(0.00240265 -0.0152662 0.0173761)
(0.0029304 -0.0193635 0.0155987)
(0.00320622 -0.0235529 0.0191548)
(0.00477576 0.0145999 -2.77802e-05)
(-0.000598407 0.00695196 0.00351069)
(0.00145416 0.00939026 -0.00161945)
(-0.000307155 0.0115463 0.00115149)
(-0.00396823 0.014367 -0.00316294)
(-0.00245566 0.0036855 0.0032641)
(0.000141571 0.010304 -0.000114213)
(4.99228e-05 0.00295158 0.00143341)
(0.00300469 0.0145425 0.00712345)
(-0.00408071 0.0102384 0.00667643)
(0.00109727 0.00412357 0.00305823)
(-0.00134773 0.00397094 0.00336329)
(0.000286621 0.0508132 0.0304143)
(-0.00334498 0.0463461 0.0200499)
(-0.00475691 0.0453023 0.0199886)
(0.00187923 0.0434729 0.0278197)
(0.00517019 0.0388851 0.0244738)
(0.0030398 0.0400663 0.0196724)
(-0.00325745 0.0411295 0.0223208)
(0.000100014 0.0635051 0.0483312)
(0.00124336 0.0574228 0.0514361)
(0.00241377 0.0618312 0.0490327)
(-0.000955568 0.0646684 0.0499109)
(-0.00248715 0.0618941 0.0551415)
(-0.00111079 0.0613326 0.0572204)
(0.00295285 0.0671788 0.0532335)
(0.000399193 0.0981906 0.0607367)
(0.00379029 0.0859762 0.0671033)
(0.00279853 0.0912407 0.0620602)
(-0.00405554 0.0931129 0.0611931)
(-0.00102011 0.0901733 0.0657471)
(0.00330107 0.0956169 0.07427)
(0.00206767 0.0981468 0.0675252)
(-0.000668452 0.195063 0.0194569)
(0.00358259 0.207577 0.0293947)
(-0.00630805 0.213579 0.0345763)
(0.00202819 0.202953 0.0436152)
(-0.00221027 0.215376 0.0436076)
(-0.00559174 0.215919 0.0508308)
(-0.00828191 0.235648 0.0529899)
(-0.0301417 0.258273 0.0759767)
(0.00760612 0.213211 0.0342456)
(-0.0134564 0.235185 0.0710993)
(0.00903743 0.218565 0.0516564)
(0.0182209 0.208658 0.0388617)
(-0.00113086 0.21702 0.0543512)
(-0.00810201 0.2351 0.0547091)
(-0.0179349 0.252794 0.0610708)
(-0.00822269 0.241162 0.0639969)
(-0.00585499 -1.48282 -0.0524617)
(-0.0539139 -1.6061 -0.0564851)
(0.0141365 -1.41271 0.036641)
(0.0227869 -1.42567 -0.000190984)
(0.00825921 -1.47717 -0.0304087)
(-0.000735473 -1.54685 -0.00880841)
(0.0304592 -1.49685 -0.0451742)
(-0.0208072 -0.248888 -0.0152566)
(0.0636219 0.154997 -0.104446)
(-0.00812961 0.370183 -0.0821765)
(-0.0648136 0.416527 -0.162147)
(-0.0392925 0.25692 -0.121085)
(0.00696788 0.245609 -0.175802)
(-0.0274554 -0.0611043 -0.120055)
(-0.000388606 0.160872 -0.273832)
(0.00405108 0.133853 -0.286169)
(-0.0155486 0.113556 -0.264676)
(0.00691921 0.160464 -0.239176)
(0.0103788 0.160434 -0.243324)
(0.0145459 0.148396 -0.269705)
(-0.000690097 0.117801 -0.241601)
(0.00950217 -0.0690294 -0.129719)
(-0.00120462 -0.0811541 -0.165625)
(0.00654039 -0.0829535 -0.140504)
(-8.44491e-05 -0.0606259 -0.164352)
(-0.0152693 -0.0409042 -0.146919)
(-0.00130779 -0.0681709 -0.150144)
(-0.0100204 -0.0407173 -0.133172)
(0.00476538 -0.258632 -0.0905209)
(0.0121512 -0.256914 -0.0846263)
(-0.00514539 -0.256789 -0.0505688)
(0.00272388 -0.241605 -0.0589938)
(-0.00612424 -0.227583 -0.0587806)
(0.00724188 -0.229337 -0.0810401)