/*--------------------------------*- C++ -*----------------------------------*\
| =========                 |                                                 |
| \\      /  F ield         | OpenFOAM: The Open Source CFD Toolbox           |
|  \\    /   O peration     | Version:  v2012                                 |
|   \\  /    A nd           | Website:  www.openfoam.com                      |
|    \\/     M anipulation  |                                                 |
\*---------------------------------------------------------------------------*/
FoamFile
{
    version     2.0;
    format      ascii;
    class       volScalarField;
    location    "0.2";
    object      alpha.water;
}
// * * * * * * * * * * * * * * * * * * * * * * * * * * * * * * * * * * * * * //

dimensions      [0 0 0 0 0 0 0];


internalField   nonuniform List<scalar> 
6576
(
1
1
1
1
1
1
1
1
1
1
1
1
1
1
1
1
1
1
1
1
1
1
1
1
1
1
1
1
1
1
1
1
1
1
1
1
1
1
1
1
1
1
1
0.989017
0.994993
0.999218
0.991622
0.980744
0.999219
0.999195
0.999817
0.991562
2.34688e-27
6.56506e-26
2.18857e-24
2.34688e-27
7.27307e-29
8.407e-30
7.54576e-29
2.38831e-21
2.38831e-21
2.38831e-21
2.89944e-21
7.56595e-21
2.4558e-21
2.4191e-21
2.85808e-17
1.62936e-18
1.43827e-18
1.16839e-17
5.8763e-18
2.70058e-16
4.31184e-19
6.79648e-06
6.79681e-06
9.60221e-06
8.25075e-05
7.45804e-06
7.56273e-06
7.71879e-06
1.46145e-05
8.95062e-06
2.99272e-06
2.3649e-06
4.6489e-06
2.96852e-06
2.34709e-06
0.0464839
0.0570349
0.194071
0.117235
0.00319454
0.00337966
0.00300275
0.99989
0.999838
0.999766
0.999741
0.999808
0.999791
0.999879
0.999999
0.999999
0.999999
0.999998
0.999999
0.999995
0.999721
0.999995
0.999999
0.999999
0.999998
0.999999
0.999999
1.5996e-16
-1.90673e-150
1.02475e-17
-1.54195e-98
-1.69657e-99
1.36206e-18
-4.62384e-35
0.87961
0.989434
0.99971
0.999671
0.999888
0.999993
0.999983
1.07167e-62
1.07167e-62
5.21789e-63
3.82744e-29
4.89904e-47
5.34124e-27
6.522e-35
3.09719e-07
7.19259e-07
8.10956e-07
3.01327e-07
2.55919e-06
2.31955e-06
1.15314e-06
1.98221e-06
3.20117e-06
1.31037e-06
3.21748e-06
2.70131e-06
2.85865e-07
1.2331e-06
8.82208e-06
9.65874e-06
9.67973e-06
1.04534e-06
4.68759e-06
9.65874e-06
9.62319e-06
3.58546e-06
2.69376e-06
7.97797e-06
2.88511e-06
2.73102e-06
7.97797e-06
7.97749e-06
7.97749e-06
7.97778e-06
2.71568e-06
2.69826e-06
2.7403e-06
2.68713e-06
2.68705e-06
2.68713e-06
3.10895e-06
4.47008e-06
1.0329e-05
4.44367e-06
1.02865e-05
1.03589e-05
7.38735e-06
4.43282e-06
1.03605e-05
1.03589e-05
7.49899e-06
9.1187e-07
1.36731e-06
6.91789e-06
5.55562e-09
6.85292e-09
1.02323e-06
1.43656e-06
5.04942e-09
3.22317e-08
3.34508e-08
3.34508e-08
5.00617e-06
1.13162e-06
1.44208e-06
1.2063e-08
1.17518e-08
8.94682e-09
9.65613e-09
1.22533e-08
1.15998e-08
8.89061e-09
1.24343e-08
1.22072e-08
9.63554e-09
5.03986e-09
1.23754e-08
9.98063e-09
9.74511e-09
1.26426e-08
7.7335e-20
4.21987e-20
5.77174e-20
3.63643e-18
3.63057e-18
-4.2527e-19
5.24317e-20
6.68506e-07
1.75918e-08
2.3613e-07
1.58698e-06
4.16689e-06
4.08783e-07
2.92608e-07
6.00088e-06
5.94374e-06
4.87883e-06
6.0568e-06
6.04417e-06
4.87275e-06
6.05703e-06
2.94493e-06
3.93344e-06
2.86396e-06
6.00235e-06
5.9242e-06
7.49899e-06
5.66165e-06
1.92321e-06
3.22232e-06
1.91219e-06
1.90304e-06
2.03464e-06
1.90676e-06
1.89945e-06
1.00416e-05
8.37299e-06
8.34741e-06
3.52963e-06
1.00199e-05
9.29145e-06
1.03405e-05
8.57147e-06
9.96039e-06
9.69136e-06
9.69278e-06
9.68914e-06
2.68713e-06
7.21113e-06
4.23192e-06
5.01405e-06
2.28063e-06
8.77704e-06
9.5099e-06
3.79887e-08
1.6387e-06
3.13896e-07
7.34581e-08
1
1
1
1
0.999997
1
1
0.999992
1
0.994859
0.99271
0.994851
0.986596
0.995044
0.986526
0.99466
0.0179038
0.0518012
0.0110729
0.0217901
0.0109158
0.0112117
0.0192533
0.0109158
0.010943
0.999931
0.996494
0.98655
0.541497
0.481441
0.735601
0.993205
0.614288
0.95413
0.993255
3.50579e-07
1.20298e-07
1.5035e-07
1.23337e-07
3.7201e-07
3.63767e-06
1.28078e-07
0.117313
0.0101561
1.0366e-05
0.0644373
0.00218141
3.85929e-05
1.00426e-05
1.0366e-05
1.06457e-05
2.18942e-11
6.40097e-11
2.21729e-11
2.05075e-11
1.00297e-10
7.73741e-11
1.38858e-10
0.984585
0.948332
0.998101
0.974635
0.995138
0.98092
0.984451
0.986667
0.830515
0.955434
0.937481
0.9519
0.975759
0.974741
0.975759
0.976244
0.998321
0.9974
0.998308
0.998309
0.998303
0.957014
0.840834
0.972089
0.991279
1
0.999999
0.999999
1
1
0.999999
0.999996
0.999998
0.999995
0.999999
1
0.999983
0.999972
0.999954
0.999992
0.999997
0.998598
0.999679
0.998211
0.999723
0.999603
0.999751
0.99975
0.998419
0.998478
0.998049
0.998811
0.999369
0.999644
0.99973
0.000663728
0.000638994
0.00199719
0.00127791
0.00347205
8.60377e-05
0.000672804
0.00163775
0.000449358
6.18503e-10
9.86238e-08
6.33819e-09
9.42933e-09
1.12657e-07
9.92556e-08
5.44973e-07
0.00013263
0.00022732
5.76381e-05
9.40171e-05
0.000137916
0.000101996
2.05843e-05
1.97784e-05
0.000225086
0.369841
0.433188
0.879935
0.540682
0.366706
0.0141685
0.302994
0.996987
0.996987
0.996987
0.995759
0.996987
0.996235
0.996968
2.85985e-06
2.87611e-06
2.86856e-06
2.85985e-06
1.20768e-05
2.90151e-06
2.88497e-06
1.5028e-05
1.6477e-05
8.64966e-06
1.3758e-05
1.52173e-05
8.82676e-06
8.6923e-06
1.59494e-07
7.23495e-06
4.89596e-06
7.32421e-08
5.15748e-06
1.34454e-05
1.10407e-05
7.06287e-05
0.00058948
0.000393965
7.73335e-05
0.00116138
0.000364945
0.000932482
0.00108384
0.000646374
0.00118497
0.00120069
0.00107833
0.000499229
8.06813e-05
0.00116965
0.000594601
0.000906983
0.00111324
0.00115166
0.000906
0.000906939
0.000906
0.00109051
0.0010106
0.00120127
0.00120005
0.00117235
0.000455506
0.00119409
0.00118641
4.55497e-06
1.49349e-05
0.00016426
2.99438e-06
5.52185e-06
3.09702e-06
2.99438e-06
0.000854155
0.00037954
0.00037954
0.00113356
0.000455169
0.000435272
0.000406118
1.76002e-06
2.03416e-06
1.87248e-06
0.00120004
0.00043207
0.00118968
1.34493e-09
1.33432e-09
1.20165e-09
1.4817e-09
1.20165e-09
8.18069e-10
1.51097e-09
4.48203e-09
4.43376e-09
3.15139e-09
1.71818e-08
1.20213e-08
7.6913e-09
4.60667e-09
4.19666e-09
1.33432e-09
1.41328e-08
2.64073e-10
3.05685e-08
1.25255e-09
7.90493e-11
3.18327e-10
9.37839e-11
1.4997e-10
7.43539e-10
1.99248e-10
7.61408e-11
7.61408e-11
7.62093e-11
1.32696e-10
1.42322e-10
7.62093e-11
9.01979e-11
9.01979e-11
1.36764e-10
5.97498e-11
9.92265e-11
7.07754e-11
6.58025e-11
8.74364e-11
1.40416e-10
7.3434e-11
7.02744e-07
4.46017e-08
2.22283e-06
2.0697e-06
2.5795e-07
5.85938e-06
5.53082e-08
4.54417e-08
1.23504e-06
1.66234e-05
1.66188e-05
1.05141e-05
1.34754e-05
1.62595e-05
1.66371e-05
1.66346e-05
5.09176e-06
4.95842e-06
5.26411e-06
1.55036e-06
4.47666e-06
4.25001e-06
2.52601e-06
6.94246e-06
1.6442e-06
6.42248e-06
6.66994e-06
1.56338e-06
5.88201e-06
1.34947e-05
5.85516e-06
1.03373e-05
1.03372e-05
5.55514e-06
9.96107e-06
1.02856e-05
7.77542e-06
5.29495e-06
5.19571e-06
7.1128e-06
5.27244e-06
9.35075e-06
1.03244e-05
6.19076e-06
4.50436e-08
6.87098e-07
2.0805e-08
2.5937e-06
4.25884e-06
1.21584e-08
1.52414e-08
1.55425e-08
1.18806e-08
7.59036e-09
1.34096e-08
1.0842e-08
3.30215e-11
3.46394e-11
8.02801e-12
1.33974e-11
1.15806e-12
7.93771e-12
2.28637e-11
3.19851e-15
4.00551e-15
3.20101e-15
9.7396e-16
1.92133e-19
5.48285e-16
2.11687e-17
3.50739e-15
3.37121e-15
1.08191e-14
1.05645e-14
9.83044e-15
7.80398e-17
1.82844e-15
1.85731e-18
1.60149e-18
0.00321023
3.81921e-05
3.79576e-05
3.78173e-05
7.99142e-05
0.000133291
3.79576e-05
0.0352462
0.00599158
0.0383363
0.13249
0.000445659
0.670791
0.000439816
0.522196
0.07574
0.00840653
0.00149843
0.00255462
0.0478697
0.051128
0.000714603
0.00075569
0.000929031
0.00153751
0.000797793
0.0100651
0.00100785
0.000742468
0.000742468
0.000710111
0.000713538
0.000704278
0.0111199
0.0015298
0.00188208
0.000710111
0.0226449
0.0122361
0.0251614
0.0482555
0.0286372
0.0482555
0.0392965
0.0482555
0.0482513
0.0332217
0.0386615
0.0332217
0.033413
0.0332654
0.0495587
0.049646
0.049646
0.0496498
0.0350192
0.0204416
0.0230587
0.0204143
0.0465552
0.0204127
0.0343032
0.0208487
0.0304897
0.0217009
0.0205671
0.0204172
0.033648
0.010943
0.0112067
0.0109158
0.0124814
0.126784
0.920496
0.918976
0.455911
0.95625
0.954894
0.738036
0.666741
0.25532
0.0241227
0.0115626
0.233763
0.414617
0.977999
0.993365
0.973517
0.940881
0.94925
0.940811
0.9984
0.998372
0.996555
0.99838
0.934928
0.998185
0.817755
0.992297
0.94367
0.99995
0.999938
0.987545
0.994584
0.994311
0.999702
0.99995
1
1
1
0.782518
0.771286
0.90006
0.90006
0.900027
0.760661
0.759375
0.999961
0.999914
0.998795
0.999943
0.992091
0.947359
0.997126
0.8989
0.994001
0.999962
0.999823
0.999936
0.842117
0.842096
0.667297
0.842121
0.841954
0.571797
0.571797
0.650496
0.694636
0.898668
0.883196
0.899937
0.753731
0.752218
0.806564
0.755809
0.82846
0.879771
0.751839
0.612911
0.611989
0.612162
0.579903
0.568825
0.568614
0.568405
0.837809
0.727674
0.786981
0.571261
0.752121
0.725242
0.841952
0.221395
0.610415
0.614028
0.427496
0.371655
0.253891
0.223567
0.397759
0.00521968
0.807476
0.0394515
0.836817
0.011161
0.2797
0.00185296
0.00788977
0.00883035
0.00850129
0.00882813
0.00357754
0.00885722
0.00741984
0.015948
0.00841945
0.00264356
0.00711551
0.00645163
0.00662651
0.0127545
0.0136108
0.0156859
0.00621494
0.00643165
0.00546091
0.00670028
0.00148644
0.00330865
0.000989421
0.0024386
0.000221581
0.00161344
0.000222909
0.000226949
0.000456448
0.0037158
0.000856565
0.00605502
0.00258168
0.00541548
0.00256222
0.00218657
0.000691145
0.000703043
4.99648e-06
1.26957e-05
2.85322e-05
4.71443e-06
4.61432e-06
1.53637e-05
1.05916e-05
2.59272e-06
1.66612e-06
1.64962e-06
7.98448e-06
5.65869e-06
3.22522e-06
2.52579e-06
2.23612e-06
1.00221e-06
3.51449e-06
3.75747e-07
6.1917e-08
1.364e-07
3.36269e-06
5.96229e-06
7.59478e-06
4.81929e-06
7.9814e-06
4.82666e-06
1.76776e-05
2.84103e-06
9.08947e-06
1.77735e-05
1.5923e-05
2.84103e-06
4.90208e-06
2.28325e-06
1.35805e-06
1.39497e-05
1.37078e-06
2.45114e-06
1.30555e-05
1.70884e-06
9.95635e-06
9.05189e-06
1.08617e-05
0.000182318
6.74036e-05
0.000139701
0.000297271
0.00118905
0.00268287
0.000830139
0.00134885
0.00221232
0.00264312
0.0025717
8.207e-05
6.13244e-05
0.000131293
0.000736167
0.000462953
8.52291e-05
0.00124666
0.00139089
0.002117
0.000447895
0.00217807
0.00151036
0.000439442
0.00143743
0.00126579
0.0022507
0.00220096
0.00111408
5.90617e-05
0.000378094
0.000429444
0.00051678
0.000476497
0.000696725
0.00122847
0.00042075
0.000976675
0.00042075
0.00117143
0.000906
0.00103648
0.0012025
0.000543049
0.00120229
0.000698194
0.000422083
0.00114541
0.00120245
3.17433e-07
6.06876e-08
8.61835e-08
1.98421e-07
1.98421e-07
2.10443e-07
1.6187e-06
1.69671e-09
6.28604e-09
1.61202e-09
1.99602e-09
2.24368e-08
4.61254e-08
5.7136e-09
5.97498e-11
1.01336e-10
7.55195e-11
8.10258e-09
3.80648e-09
9.29143e-09
4.07741e-09
3.88924e-09
7.38766e-09
4.60806e-09
2.89167e-10
7.41904e-11
2.47909e-10
2.45348e-10
2.93633e-10
4.63155e-10
1.90452e-08
3.61582e-09
2.96829e-10
6.32719e-09
1.95421e-09
1.91564e-08
5.45841e-09
5.45841e-09
1.83634e-08
5.45804e-09
5.45841e-09
9.99208e-08
2.11676e-08
3.03922e-07
3.05017e-07
2.95629e-07
1.69483e-07
1.7824e-07
1.32958e-06
6.31899e-07
4.33158e-08
3.1186e-06
1.47019e-07
1.4839e-07
3.33038e-07
4.22189e-08
1.32641e-06
4.73738e-07
6.48151e-08
1.47557e-06
1.47637e-06
1.47637e-06
1.47973e-06
2.90635e-06
1.47698e-06
1.47557e-06
6.08995e-06
6.09288e-06
6.08876e-06
6.08995e-06
6.08995e-06
6.06649e-06
4.89649e-06
5.04942e-09
4.60212e-06
8.48785e-07
5.68081e-09
5.04942e-09
5.05177e-09
1.06758e-08
1.46894e-08
1.46894e-08
1.45991e-08
1.30162e-08
1.13756e-08
8.63627e-09
1.02374e-08
1.53032e-08
8.59653e-09
4.10081e-08
8.92503e-09
9.03564e-09
9.98137e-09
1.54083e-08
1.45099e-06
4.2533e-06
1.42806e-05
1.45101e-06
2.06674e-06
6.24997e-06
1.86835e-05
1.50389e-05
5.15248e-06
1.12387e-21
3.05359e-22
2.59725e-22
5.99322e-21
2.58528e-22
2.06603e-22
2.33592e-22
6.8957e-21
6.05976e-21
4.38484e-20
1.34664e-19
4.86705e-20
2.88094e-15
1.47674e-16
1.04923e-13
5.76339e-14
4.18252e-13
1.7357e-13
9.5849e-14
7.18264e-13
1.52293e-12
1.03699e-12
7.39357e-13
4.80405e-11
4.66034e-11
5.16864e-11
2.43275e-11
3.56651e-11
3.14487e-11
5.08479e-11
0.0133793
0.0127667
0.0127667
0.012778
0.0206917
0.0159246
0.0207041
0.00340754
0.00319537
0.0102589
0.0206
0.00625634
0.00612958
0.0221812
0.00110438
0.00824039
0.0117633
0.012099
0.0222187
0.0143645
0.022287
0.0140987
0.0137708
0.0189483
0.0189351
0.0189744
0.0332652
0.0190434
0.0477949
0.0478515
0.0189954
0.0189351
0.0191487
0.0296718
0.0482555
0.048261
0.0203839
0.0204221
0.0495004
0.998279
0.991983
0.976812
0.976981
0.999096
0.99829
0.995442
0.842116
0.842117
0.842116
0.604442
0.83647
0.836817
0.83647
0.836817
0.836817
0.829459
0.612911
0.569985
0.56916
0.577581
0.657878
0.66267
0.566293
0.566293
0.667123
0.565946
0.568226
0.629627
0.567557
0.564171
0.56363
0.56363
0.56363
0.704486
0.567012
0.563833
0.565582
0.565582
0.565582
0.565582
0.681871
0.565582
0.0265435
0.0127248
0.178091
0.175257
0.420265
0.0131519
0.0134602
0.0459596
0.00090061
0.187352
0.00101012
0.210706
0.000926252
0.0336191
0.00101613
9.56154e-05
0.00196787
0.000273098
0.00201347
0.000249306
0.000817501
0.000564561
0.000303982
0.000411818
9.05035e-05
0.000208435
0.000213711
9.19334e-05
0.034567
0.0355394
0.0341634
0.0279525
0.717468
0.031556
0.195713
0.865623
0.899894
0.950649
0.616358
0.950837
0.865623
0.890012
1.33107e-05
0.133371
0.0224009
0.14593
0.271992
0.0698491
0.529613
7.26558e-06
7.26527e-06
9.26539e-06
7.26527e-06
1.22628e-05
5.28643e-05
1.17312e-05
5.92797e-05
2.34709e-06
1.33207e-05
3.58487e-05
8.43047e-05
0.000132299
9.36194e-05
2.61159e-07
4.80339e-07
2.5884e-07
3.59271e-07
4.94627e-07
8.01603e-07
5.92165e-07
3.4706e-06
9.37e-06
9.37505e-06
3.40747e-06
3.47322e-06
9.37989e-06
9.35007e-06
1.26679e-05
1.55294e-05
1.35662e-05
5.16532e-06
3.36247e-07
5.38941e-06
4.92857e-06
1.76375e-06
9.14743e-08
2.62593e-06
9.22157e-08
9.14743e-08
9.22157e-08
9.15193e-08
4.41022e-07
4.37355e-07
6.96046e-07
4.43345e-07
4.25685e-07
1.60443e-06
4.77008e-06
7.94214e-06
1.85205e-06
1.76507e-05
3.51466e-05
1.75231e-06
5.28699e-06
5.24222e-06
3.21317e-06
3.39224e-06
0.00277284
0.00278194
0.00354388
0.00279569
0.00298767
0.00291847
0.00359853
0.00347228
3.80077e-06
0.00245621
0.00357371
0.00205062
0.000990668
0.00359853
0.00352166
0.00352166
0.00349977
0.00261346
0.00352166
0.00245129
0.00142003
0.00273162
0.00272846
0.00272879
0.00272787
0.00273189
0.00273214
0.00271789
0.00352545
0.0035478
0.00247604
0.0027285
0.00272845
0.00123209
0.0023126
0.0024294
0.00159578
0.000292035
0.000615019
0.000620964
7.81451e-05
7.71383e-05
0.000179223
9.42993e-05
0.000145898
0.00116302
0.00117875
8.77348e-05
0.000449005
0.00119523
0.000935977
0.000742771
0.00112853
0.0011801
0.00117998
0.00118683
7.23093e-08
7.23226e-08
1.22656e-06
7.23103e-08
7.23093e-08
7.27748e-08
8.73758e-07
3.35352e-07
3.40583e-07
3.02815e-05
3.28923e-07
2.83828e-07
6.62305e-07
3.12639e-07
1.63472e-07
5.12878e-08
2.12566e-07
9.27267e-06
1.63535e-05
4.25045e-09
2.7145e-09
6.72566e-10
6.19332e-09
1.2375e-08
6.72566e-10
6.72566e-10
1.53908e-05
4.56973e-06
3.58032e-06
1.82453e-06
2.88734e-06
1.53349e-06
1.07495e-05
1.81278e-08
3.32417e-08
3.35065e-08
1.63955e-07
1.0868e-07
3.87123e-08
1.86006e-07
5.45804e-09
5.4591e-09
5.4591e-09
2.23295e-08
2.28382e-07
1.84242e-07
2.33544e-07
2.36205e-07
1.8511e-07
2.2802e-07
2.17998e-08
1.6921e-07
1.29694e-07
1.65015e-06
1.05704e-06
1.06641e-06
1.95165e-06
1.59381e-06
2.5384e-06
2.59884e-06
8.64338e-08
3.5906e-08
9.1142e-08
3.59503e-08
3.61628e-08
4.64784e-07
7.13247e-07
3.8114e-07
3.5906e-08
1.0975e-06
1.57731e-10
4.19565e-11
8.05513e-12
9.39792e-10
1.75195e-09
1.04971e-09
1.05016e-09
2.16514e-07
2.12161e-09
3.50555e-09
1.80794e-09
1.37138e-09
1.23741e-09
2.2287e-09
6.11184e-11
1.34378e-09
7.41084e-10
6.11134e-11
4.54501e-10
4.73954e-10
1.766e-10
6.64052e-10
6.6502e-10
7.22971e-10
7.53588e-10
7.53188e-10
1.09013e-09
9.81931e-10
1.5809e-06
1.40905e-06
1.58135e-06
2.00555e-07
1.43725e-06
1.45682e-06
9.06301e-07
4.23199e-07
1.34463e-06
4.91425e-07
1.57967e-06
8.22652e-07
4.21605e-07
4.44369e-07
7.45985e-09
1.03062e-08
5.07148e-13
1.21465e-09
6.12292e-13
2.11512e-09
5.07148e-13
3.08898e-06
3.09153e-06
4.82912e-06
3.02353e-07
3.81368e-09
8.64483e-06
1.23762e-05
1.25766e-05
8.96647e-06
3.10996e-06
1.00487e-05
3.19576e-06
3.10674e-06
1.07541e-05
1.62905e-05
8.00841e-06
2.27887e-05
8.46449e-06
2.56008e-05
7.44745e-06
7.20531e-06
1.57361e-05
1.92055e-05
4.30142e-20
4.34357e-20
4.30253e-20
5.11321e-20
3.86765e-20
3.54681e-20
3.55544e-20
3.54659e-20
3.92418e-20
2.69321e-27
2.69321e-27
8.08406e-21
2.69321e-27
6.11545e-26
1.08502e-23
6.12436e-26
1.36641e-23
1.08591e-23
2.02663e-24
1.80644e-24
9.26344e-24
3.19843e-25
1.40542e-25
4.55688e-24
1.25168e-24
9.4103e-16
8.43581e-15
1.3052e-12
2.0092e-14
2.81784e-16
9.573e-14
5.00643e-13
6.17019e-14
1.25604e-13
8.24705e-14
2.45752e-13
2.74483e-13
1.3575e-12
7.42063e-14
7.47099e-06
6.94515e-06
1.88121e-05
0.000118953
1.40308e-05
2.80467e-06
8.69658e-06
0.000235183
0.000466299
0.000281799
0.00154591
0.000773612
0.00246957
0.0010008
0.00262239
0.000940709
0.00010047
0.000133472
0.000100192
0.000797474
0.000193241
0.0167052
0.0166988
0.00850889
0.0167257
0.0146149
0.00862519
0.00507531
0.0148903
0.00238467
0.00214883
0.00129951
0.00115968
0.00576208
0.00372409
0.0167107
0.0116588
0.0167347
0.016711
0.0167347
0.00932418
0.020616
0.0206703
0.0127834
0.0206707
0.0205976
0.00728659
0.00186332
0.0054361
0.0151563
0.0207041
0.022287
0.0198807
0.0144702
0.0166349
0.0310425
0.00515269
0.0285859
0.0290584
0.00462843
0.00485875
0.734794
0.734794
0.62081
0.734598
0.734598
0.282499
0.734794
0.657314
0.734794
0.570014
0.597318
0.597506
0.597388
0.597506
0.597443
0.541141
0.510846
0.585479
0.597506
0.597506
9.69153e-05
8.87734e-05
9.12774e-05
7.31731e-05
7.51661e-05
8.52557e-05
0.000215111
9.41325e-05
0.000233661
0.000700704
9.29753e-05
9.46246e-05
0.000479052
0.000134757
2.20591e-05
1.15623e-05
8.45141e-06
1.42511e-05
9.75215e-06
7.03177e-07
4.95617e-06
0.341269
0.708968
0.251165
0.71302
0.708061
0.2387
0.493976
0.604457
0.707111
0.0252744
9.71393e-06
0.000497139
0.917885
0.469994
0.925311
0.41911
8.42785e-06
6.79131e-05
7.53865e-06
9.56192e-06
4.8361e-05
7.234e-06
7.10542e-06
3.65749e-05
9.66724e-06
1.08509e-06
2.85369e-06
1.49941e-06
1.08136e-06
5.68483e-06
4.01985e-08
3.55569e-07
1.17348e-06
3.82866e-07
4.67952e-07
4.03194e-06
3.94726e-07
2.32027e-07
4.28005e-06
2.56424e-07
3.53588e-06
4.13871e-09
9.10353e-10
1.31099e-09
8.75835e-10
2.63367e-09
1.90688e-10
1.47211e-10
1.91872e-10
9.54902e-08
2.15132e-07
7.8591e-08
1.7965e-10
7.09704e-07
1.22875e-06
0.00672037
0.00594871
0.00617882
0.005978
0.00594871
0.00609759
0.00737088
0.00485958
0.00208758
0.00239412
0.00208773
0.00490226
0.00490226
0.00430319
0.00882605
0.0240032
0.00621599
0.00720986
0.0249892
0.00219518
0.0024046
0.00208966
0.00490014
0.00464335
0.102216
0.0501271
0.0463135
0.00702595
0.015892
0.00100074
2.5264e-05
6.09045e-05
3.9121e-07
0.0034711
0.002819
0.00358457
0.00359853
1.72764e-06
0.000109056
0.00018976
1.65647e-06
1.72764e-06
2.34633e-06
1.08826e-06
4.58346e-07
2.2548e-07
1.23795e-06
9.19368e-08
9.4037e-08
2.00599e-05
6.69172e-06
6.91466e-05
0.000207179
0.000176959
1.60521e-05
5.34576e-05
1.81576e-05
1.36145e-05
7.43519e-06
1.55294e-05
1.29408e-05
7.44089e-06
7.78564e-06
7.35393e-08
1.01246e-07
5.74015e-07
3.28779e-07
9.27587e-08
9.27202e-08
7.98152e-08
1.65381e-05
1.63743e-05
7.02523e-06
1.65066e-05
1.47181e-05
2.97569e-06
4.2141e-06
1.50307e-06
4.1601e-06
1.97154e-06
4.17267e-06
2.84226e-06
1.62987e-06
2.53053e-06
1.1341e-07
3.38074e-10
4.52899e-09
1.38179e-09
1.56885e-10
6.01191e-10
1.39102e-09
9.27889e-10
9.73538e-10
1.0765e-09
1.3751e-09
6.16731e-11
1.42787e-09
0
3.78754e-42
0
1.60936e-09
4.17342e-10
2.35444e-10
4.86375e-10
7.98375e-14
1.6121e-09
6.34066e-10
1.96907e-16
0
7.44227e-11
8.79016e-12
2.372e-11
-7.39813e-34
-1.43578e-31
-1.08571e-26
2.53099e-26
2.31785e-20
8.28542e-13
2.55661e-12
1.70072e-20
6.72532e-23
6.6524e-23
6.65503e-23
0.194574
0.766156
0.999991
0.999991
0.999993
0.993894
0.979295
7.47469e-08
2.65535e-07
7.82931e-08
8.18193e-08
8.20343e-08
8.17532e-08
0.102044
0.00387194
0.0268689
2.60657e-06
2.27327e-05
1.7998e-05
0.239564
0.00454396
3.41083e-19
1.93493e-18
5.99833e-18
3.37175e-19
3.02166e-16
7.76262e-18
3.24216e-19
2.72106e-14
1.89896e-10
1.23603e-10
2.65845e-18
2.65787e-18
2.65816e-18
5.89851e-11
5.26086e-09
1.60679e-09
2.04125e-08
9.21256e-10
1.50056e-09
1.0284e-08
5.60494e-09
5.72381e-10
9.92466e-08
1.35682e-07
8.42509e-08
4.94105e-08
4.16102e-10
2.95026e-08
2.93476e-08
7.8643e-09
7.0817e-07
7.74507e-08
4.34902e-08
4.34902e-08
9.55104e-08
1.01184e-07
2.19656e-07
8.06721e-08
9.29053e-06
4.96241e-07
5.25466e-06
2.04524e-05
2.10897e-06
9.69331e-06
5.57421e-08
2.56744e-07
1.88462e-07
2.51526e-06
1.88904e-07
4.43296e-06
2.06631e-07
1.59784e-27
1.47039e-27
1.47039e-27
3.38561e-27
1.54577e-27
1.45396e-27
1.48162e-27
9.49532e-15
4.88951e-15
5.59342e-15
1.67006e-14
4.07427e-14
1.9156e-13
5.40906e-15
3.14626e-10
1.3847e-10
3.09547e-10
9.2319e-10
1.07569e-10
7.73364e-11
1.66955e-10
1.51416e-05
0.000286689
1.03446e-06
1.04113e-06
2.08509e-06
3.47732e-06
4.85403e-06
1.06737e-06
1.78863e-06
6.58087e-07
1.00405e-06
2.26695e-06
1.73987e-06
1.07942e-05
4.38377e-06
9.10427e-07
0.00126165
0.00131808
0.00126184
0.00265166
0.00262951
0.00265178
0.0026528
0.00108844
0.00130815
0.00165306
0.0017033
0.00106668
0.00129591
0.00101312
0.00261131
0.00261447
0.00263581
0.000230774
1.88704e-05
8.7267e-05
1.76478e-05
3.28912e-05
0.000117341
2.87786e-05
0.00100428
0.0010074
0.0020657
0.00337295
0.0165513
0.00765513
5.50286e-05
5.57723e-05
8.84606e-05
5.82553e-05
5.45594e-05
0.00010164
6.91723e-05
0.00260435
0.00541517
0.00860671
0.00860357
0.00860378
0.00535291
0.00738359
9.16764e-05
9.16858e-05
9.16764e-05
0.00011848
9.16811e-05
9.16764e-05
0.000105239
0.00110103
0.00109769
0.0872707
0.00129979
0.000864697
0.0012626
0.0012095
0.016656
0.000280413
0.0188455
0.00668031
0.00615934
9.49003e-05
0.127787
0.993813
0.993812
0.993812
0.993813
0.991658
0.993803
0.897511
0.841881
0.980691
0.968812
0.981391
0.980691
0.980691
8.30566e-08
4.18982e-08
6.01708e-08
7.85204e-07
7.09261e-08
9.32722e-08
9.32722e-08
1.03161e-05
4.76157e-06
5.0545e-06
8.36503e-06
5.78989e-07
6.74941e-06
5.99369e-06
0.000397543
0.000690165
9.56145e-05
0.000508846
0.00162368
0.000195228
6.88616e-05
0.0980322
0.001271
0.0943056
0.375564
0.37794
0.112594
0.274943
0.138792
0.105517
0.118691
0.371913
0.262111
0.371127
0.241956
0.0773262
0.13548
0.0510399
4.0335e-07
4.62412e-07
2.88423e-07
4.54558e-07
4.5991e-07
4.07875e-07
5.19657e-07
1.64352e-09
1.3215e-09
1.73788e-09
2.50869e-09
2.33787e-09
1.40237e-09
2.39023e-09
1.10809e-10
1.10643e-10
1.10643e-10
1.14069e-10
1.14069e-10
1.19843e-10
1.10809e-10
3.07134e-09
2.95119e-09
1.49196e-08
2.99954e-09
3.14405e-09
2.98661e-09
4.92367e-09
9.02724e-09
1.65482e-08
9.02891e-09
1.65171e-08
9.89776e-09
9.17876e-09
1.65224e-08
9.06803e-09
9.12823e-09
9.92143e-09
9.12823e-09
9.21255e-09
9.70756e-09
9.90208e-09
1.55132e-08
1.55112e-08
1.10755e-08
1.04946e-08
1.13618e-08
5.23819e-11
4.82592e-11
4.40694e-11
4.17779e-11
4.22883e-11
5.72232e-11
4.35928e-11
0.905676
0.912085
0.999839
0.949157
0.948698
0.570383
0.982741
2.07831e-05
1.3054e-06
1.27484e-06
1.91708e-06
3.19312e-05
1.66444e-06
1.93209e-06
1.89275e-06
8.40422e-13
3.54762e-07
8.04093e-13
3.17175e-11
3.36552e-11
2.33614e-06
3.14343e-19
-1.03901e-76
0
1.00183e-14
-2.03104e-95
1.23418e-14
-7.93744e-96
2.23649e-15
7.91274e-21
4.92138e-15
6.06308e-16
-8.22773e-101
3.30267e-16
-4.96262e-52
2.95204e-14
-1.75893e-62
1.28914e-14
0
1.36042e-15
-1.15209e-69
-1.7661e-73
-3.95179e-69
1.14353e-13
1.92848e-14
1.17062e-12
2.11607e-13
3.25718e-16
2.19427e-09
4.2768e-09
2.31761e-17
3.67961e-10
1.1826e-09
1.92694e-17
1.21617e-07
8.94142e-09
1.51831e-07
1.96257e-08
8.61464e-09
3.27994e-08
6.4927e-08
2.13931e-16
4.64803e-16
1.52584e-16
1.39892e-16
1.4333e-16
1.52571e-16
1.4333e-16
2.35956e-24
2.35956e-24
1.20682e-24
7.1371e-24
2.92361e-22
2.04677e-20
9.36761e-21
9.67921e-32
7.32538e-29
1.23201e-30
6.72037e-32
6.72037e-32
6.72037e-32
6.76709e-32
9.63249e-32
6.81381e-32
4.1408e-31
4.36331e-31
1.69122e-30
4.07343e-32
3.20426e-31
1.7862e-30
1.72082e-29
3.35987e-17
1.14931e-17
5.15344e-15
8.76372e-18
9.45748e-18
9.45748e-18
1.09644e-17
3.98113e-14
3.7534e-13
4.24163e-13
8.13192e-17
4.11012e-17
9.27438e-17
1.80115e-17
3.48943e-16
1.76843e-17
4.07208e-17
3.45295e-11
1.32127e-12
3.1515e-12
1.66423e-13
8.67226e-12
1.34861e-13
1.70132e-09
1.3847e-10
6.66219e-08
2.14716e-10
2.42517e-10
4.73949e-10
2.44713e-10
8.45924e-08
2.44713e-10
1.75014e-10
3.57085e-05
3.71538e-06
0.000519355
2.28399e-07
1.51411e-07
2.89255e-07
4.8133e-07
9.009e-07
3.39572e-07
2.28496e-07
9.18532e-09
9.16087e-09
7.75394e-09
7.53069e-09
7.582e-09
7.72949e-09
8.42422e-09
0.000753354
0.000691145
0.0029287
0.000690052
0.00136756
0.0020121
0.00190436
0.00987857
0.00414255
0.00485287
0.000993399
0.00235485
5.06795e-05
5.07127e-05
5.50576e-05
0.000112039
0.000310214
8.49678e-05
0.000253158
0.00161713
0.000707672
0.000527981
0.000674672
0.00161713
6.94e-05
6.94849e-05
6.94e-05
0.000120548
0.000338525
7.59095e-05
7.39177e-05
0.000144438
8.89363e-05
0.000262109
0.000262109
0.000261565
8.81811e-05
8.83453e-05
0.000704907
0.00068351
0.000704871
0.000706197
0.000655372
0.000704871
0.000704919
0.993813
0.98131
0.812671
0.979058
0.979097
0.976823
0.976837
0.9768
0.979075
0.961454
0.9768
0.992986
0.988849
0.992514
0.9768
0.988988
0.979779
0.979782
0.979782
0.979782
0.97978
0.979773
0.979766
0.975415
0.979102
0.93726
0.0129886
0.00709858
0.0073211
0.447471
0.152356
0.0192147
0.108853
0.0451341
0.139218
0.00705954
0.5597
0.239269
0.110121
0.157063
0.588787
0.0810901
0.0725206
1.11479e-06
2.59215e-07
3.20526e-06
3.33533e-07
2.59223e-07
2.4161e-07
2.09707e-07
3.22496e-09
2.80911e-09
3.22496e-09
5.11685e-09
3.01683e-09
6.21663e-09
5.26257e-08
3.83766e-05
1.34554e-05
1.08995e-05
0.000123274
6.10904e-05
3.0836e-05
3.06663e-05
6.4631e-05
2.83335e-08
0.000222869
5.95435e-05
3.35782e-07
0.000326183
8.53539e-07
0.000405154
0.000404786
0.000404832
0.00020025
0.000194387
0.000405154
0.000405268
0.000383711
0.000320365
0.000330271
0.000445506
0.000731472
0.000368299
0.000368299
6.21455e-08
1.35305e-07
3.66206e-07
1.45359e-07
1.34611e-07
1.72672e-07
5.89039e-07
1.75802e-09
9.02324e-10
1.47013e-08
8.67188e-10
2.00011e-09
1.76308e-09
4.40466e-09
8.63177e-10
8.56884e-10
3.67527e-13
5.94051e-11
2.68297e-14
6.75516e-10
3.75131e-10
3.23663e-10
2.86068e-10
7.29293e-13
7.10151e-12
1.16311e-12
7.13588e-13
6.43672e-12
2.90265e-12
1.0546e-12
1.27807e-12
4.48874e-13
-2.53625e-53
2.41272e-08
-3.11285e-39
3.00887e-08
-2.74134e-39
1.60342e-09
1.34351e-08
2.10627e-08
0
-1.62914e-39
-2.12697e-33
6.90521e-13
3.88215e-07
-6.81844e-28
3.86206e-08
3.40732e-08
5.00685e-10
2.2354e-05
2.23517e-05
1.60268e-05
1.90471e-05
1.11642e-05
2.05865e-05
2.23517e-05
4.28245e-13
5.84275e-13
1.12247e-12
4.10024e-13
4.28312e-13
8.62185e-12
3.28701e-12
6.96285e-13
2.40346e-12
3.55335e-34
2.19598e-30
7.93663e-28
2.32401e-34
5.06293e-31
3.77614e-34
3.55335e-34
5.58941e-30
6.39689e-29
6.19376e-31
2.46853e-30
3.17571e-30
1.85118e-30
3.66885e-31
1.26344e-30
7.23685e-31
1.46832e-30
1.55921e-31
1.77747e-31
1.45432e-31
1.5618e-31
2.98868e-26
1.46484e-25
9.83499e-26
2.09478e-25
3.48447e-26
2.0769e-24
2.83138e-22
2.81125e-26
2.50474e-25
3.13558e-26
7.8454e-21
2.03182e-18
1.01206e-20
3.64323e-21
3.09474e-21
3.15726e-21
2.78569e-15
4.12858e-17
4.87778e-14
1.07084e-17
8.86825e-16
1.51538e-17
1.22211e-17
2.04937e-17
2.63203e-17
1.45697e-17
1.85918e-11
1.88299e-11
8.11638e-11
1.62158e-09
9.14835e-11
4.74941e-11
4.51237e-11
8.3511e-08
1.82082e-07
1.29837e-07
3.60715e-08
1.49035e-07
6.64054e-08
3.58139e-08
1.71215e-08
5.08088e-08
2.5452e-07
7.28341e-09
8.47493e-09
6.36042e-09
1.80349e-08
5.03874e-08
1.15168e-08
3.11544e-07
6.62763e-09
3.76946e-09
1.50103e-08
3.78557e-09
0.00199837
0.0011152
0.00199392
0.00197994
0.000996622
0.00199918
0.00199545
2.62506e-07
3.89634e-07
4.55183e-05
0.000238307
8.37568e-05
0.000290118
0.00122686
0.00199581
0.00112831
0.000246448
8.59756e-05
8.6774e-05
0.000101404
0.000343988
0.000265746
0.000101548
9.56367e-05
0.000279298
0.000104809
5.06791e-05
5.06791e-05
5.06806e-05
0.00018167
5.06801e-05
5.06793e-05
5.06801e-05
0.000336594
5.39596e-05
0.000188588
0.000488656
0.000549859
0.000547001
0.000402537
0.979782
0.979762
0.97978
0.967386
0.967388
0.967386
0.967646
0.967388
0.9674
0.967388
0.979777
0.979776
0.979764
0.979798
0.826755
0.967812
0.972094
0.972094
0.972094
0.972086
0.971901
0.96211
0.765219
0.950988
0.967377
0.800205
0.000295371
0.000755627
0.00013339
0.000288582
0.000238014
0.000146689
0.000146278
3.10921e-05
3.09452e-05
3.15176e-05
3.24226e-05
4.14985e-05
3.29557e-05
4.14985e-05
0.0108596
0.00781381
0.00621183
3.3317e-05
0.0008834
0.000579554
0.00160707
3.07899e-05
2.72096e-05
2.97449e-05
0.00534385
0.000508349
0.0108752
0.0304517
0.0123077
0.0691825
2.1991e-05
0.0181266
0.0116475
0.0121707
0.181107
0.000107325
0.0113273
0.0150131
0.0682839
0.0881476
0.304799
0.000104812
0.0171602
1.62343e-07
8.77274e-06
9.07824e-06
4.13421e-06
1.35511e-06
3.14233e-06
1.47218e-07
1.00922e-05
6.67225e-06
1.00922e-05
4.24426e-06
4.72371e-07
5.62543e-06
3.11758e-06
1.31108e-07
1.49292e-07
4.14855e-07
1.15111e-07
8.71406e-09
2.56853e-08
4.9264e-07
1.49671e-05
2.23548e-05
1.36664e-05
4.12114e-06
1.55165e-06
4.12114e-06
2.45579e-06
5.98983e-07
1.77324e-07
8.83848e-07
4.45732e-06
3.88082e-06
2.8648e-06
2.82115e-06
4.28242e-06
4.81011e-06
4.7291e-06
4.69376e-06
4.52646e-06
1.43391e-05
3.83207e-06
4.84868e-06
1.30121e-06
4.50514e-06
1.59447e-06
1.14865e-06
3.81813e-08
2.01661e-06
1.2501e-06
4.64124e-06
1.25193e-06
3.47599e-06
5.85179e-10
2.33286e-08
6.73238e-10
6.83371e-10
5.33097e-07
2.86647e-09
2.94936e-14
3.06458e-14
2.81752e-14
3.05662e-14
2.57189e-13
1.9176e-13
2.47001e-14
1.63193e-25
1.69422e-25
7.30776e-25
6.20342e-25
2.08475e-25
2.25654e-25
1.76715e-25
2.22353e-35
5.51887e-33
6.91427e-36
7.23983e-36
6.0927e-36
6.19977e-36
5.52933e-34
6.09633e-33
5.52933e-34
4.95646e-32
4.44714e-33
5.52933e-34
6.01781e-34
2.17219e-32
2.03174e-30
5.5817e-31
1.69171e-27
9.14189e-29
2.43824e-30
1.30831e-27
1.19884e-28
1.26512e-28
4.77194e-28
6.90848e-28
2.62413e-26
3.09581e-27
3.7133e-27