/*--------------------------------*- C++ -*----------------------------------*\
| =========                 |                                                 |
| \\      /  F ield         | OpenFOAM: The Open Source CFD Toolbox           |
|  \\    /   O peration     | Version:  v2012                                 |
|   \\  /    A nd           | Website:  www.openfoam.com                      |
|    \\/     M anipulation  |                                                 |
\*---------------------------------------------------------------------------*/
FoamFile
{
    version     2.0;
    format      ascii;
    class       surfaceScalarField;
    location    "0.2";
    object      alphaPhi0.water;
}
// * * * * * * * * * * * * * * * * * * * * * * * * * * * * * * * * * * * * * //

dimensions      [0 3 -1 0 0 0 0];
oriented        oriented;


internalField   nonuniform List<scalar> 
13152
(
1.65382e-06
3.38183e-05
-2.7526e-06
-3.27195e-05
3.12107e-05
-2.85232e-05
-1.03369e-06
-5.78984e-06
7.08189e-05
-5.7715e-05
5.90354e-05
-4.07298e-06
3.53579e-05
-0.000125792
4.7536e-05
-4.07013e-05
0.000100782
-2.68641e-05
-4.92664e-05
-4.73904e-05
0.000123521
6.29986e-07
-2.79871e-05
4.93032e-07
-4.98603e-05
1.2239e-06
1.30739e-05
8.5904e-06
-4.96514e-05
1.30253e-05
5.41647e-07
-8.4677e-06
-2.58974e-05
-4.97376e-05
-1.44251e-05
-2.44067e-05
-8.55436e-06
4.73861e-05
-1.15862e-07
-1.44548e-05
1.45552e-07
-2.36169e-05
-9.05587e-07
9.44492e-06
-5.09493e-05
2.70496e-05
-4.88638e-05
4.97543e-05
4.89546e-05
-8.14703e-07
5.96008e-08
-2.54154e-05
-4.9855e-05
1.77023e-07
-0.000124922
5.52957e-07
2.66422e-05
5.02883e-05
1.90238e-08
0.000124317
5.96794e-05
2.1199e-05
4.22818e-05
-0.00012316
6.21537e-07
-1.19243e-06
6.02503e-05
2.07868e-05
3.88054e-07
-3.13001e-05
0.000122906
0.000129732
4.87574e-05
-1.18089e-06
-4.90565e-05
1.47991e-06
-2.74209e-05
-4.49315e-05
0.00012111
2.94731e-07
-2.88965e-05
-1.3465e-05
1.33629e-05
3.96872e-07
8.82982e-06
-5.11913e-05
-8.29732e-06
-2.32713e-05
-4.8524e-05
-2.30673e-05
1.92898e-07
4.86471e-05
3.16082e-07
2.61086e-05
8.63456e-08
-6.27867e-06
-1.9943e-05
-1.3152e-05
2.36016e-06
3.68973e-05
-1.06239e-05
-2.44585e-06
-2.10325e-05
-1.44579e-05
3.78453e-05
-3.01299e-06
-2.43386e-05
2.95451e-06
-3.03029e-06
-1.05488e-05
2.23218e-06
-1.72539e-06
-5.44215e-06
-6.78107e-06
-1.14646e-05
-1.56734e-29
2.28145e-29
-9.13864e-31
-6.2481e-30
4.73839e-28
-3.7428e-29
-4.52872e-28
-1.84666e-31
-7.0766e-30
7.98928e-31
7.58347e-31
-3.90131e-29
7.89881e-33
-1.23616e-31
-1.76882e-31
1.03552e-35
-6.49755e-30
-2.22116e-26
-6.04725e-26
-9.99821e-27
7.18197e-26
-8.82167e-27
-5.01487e-26
8.94206e-27
-1.54852e-25
-1.18014e-26
2.75422e-25
1.68086e-25
-7.03062e-25
9.47797e-26
-9.29387e-26
-7.17288e-26
1.25388e-25
1.78091e-26
4.10162e-22
3.83637e-22
5.71076e-22
-3.32249e-21
3.77203e-23
1.38557e-20
-1.35111e-20
3.7514e-22
6.31967e-24
4.66199e-22
2.25639e-20
-9.21054e-21
7.14386e-22
2.08016e-22
-6.99543e-22
1.22283e-20
7.62031e-24
-3.45756e-11
-2.24076e-10
6.73993e-11
1.18191e-10
-1.74039e-10
1.13571e-10
-8.45131e-11
-8.51757e-13
-6.97031e-10
-2.67144e-10
-3.18425e-09
1.67414e-09
8.51463e-11
-5.24826e-11
-3.09485e-10
7.32793e-10
-3.97288e-09
9.03002e-12
-4.22566e-11
5.14292e-11
1.47173e-10
-4.34517e-11
8.31095e-11
7.25896e-12
8.01209e-11
-2.89841e-10
6.14146e-12
-4.91942e-11
6.89546e-11
-2.5632e-11
2.33608e-10
3.72314e-11
-1.22658e-11
4.26585e-11
3.71068e-06
9.46752e-07
-6.04633e-08
-2.93382e-06
-3.27064e-06
-4.86119e-08
9.67875e-06
3.705e-06
-5.54002e-08
-1.14117e-06
2.02083e-07
6.59132e-06
-5.5005e-08
-1.08483e-06
-1.17523e-07
3.12473e-07
-2.03274e-07
-2.27899e-05
-4.66435e-05
-5.42019e-07
6.9976e-05
-1.25895e-05
1.6666e-05
-2.68619e-05
-2.98972e-05
-2.93186e-05
-5.83664e-05
2.2408e-05
5.2639e-05
-1.22284e-06
-8.40015e-05
5.19576e-05
-8.30682e-05
7.38278e-05
6.96157e-06
1.42188e-06
-8.58551e-06
2.02072e-07
-1.38421e-05
-3.38704e-06
2.41908e-05
3.24642e-06
-1.56666e-05
-5.87204e-06
-2.31322e-05
2.56173e-05
-2.73951e-05
1.29376e-05
-3.09007e-05
1.10155e-05
-7.39397e-05
1.01827e-05
8.10173e-06
1.48217e-05
-3.31061e-05
-1.14389e-07
1.53385e-06
8.76327e-06
2.04205e-06
5.94531e-06
8.21131e-06
8.14423e-06
3.29631e-06
6.95706e-06
1.80049e-05
8.58817e-155
1.20899e-21
1.73213e-23
-1.18491e-22
-1.30028e-154
-7.66046e-155
-1.20596e-154
3.05992e-23
1.15823e-21
-6.15821e-104
-2.26093e-103
-3.31819e-103
-3.77433e-104
-7.63366e-104
-1.69698e-23
4.13721e-23
3.51506e-25
4.12291e-05
-6.83148e-07
-4.09703e-05
-1.88941e-07
-4.05023e-05
-4.56425e-05
0.000127192
-1.39585e-06
-3.98191e-05
-4.1991e-05
4.39962e-05
-3.42871e-06
4.34462e-05
-0.000125257
-1.8482e-06
2.01923e-07
6.27207e-07
-1.64796e-67
-7.99048e-66
2.95993e-46
2.11126e-45
-1.0248e-65
1.17587e-66
5.39232e-66
6.95503e-65
6.4446e-65
3.03073e-29
7.69803e-31
-3.10766e-29
-1.35562e-32
3.03208e-29
9.94544e-31
1.60106e-32
9.80988e-31
2.39106e-11
3.63289e-11
-1.14931e-11
-8.74311e-11
5.5011e-11
-1.11019e-10
4.06717e-11
-4.72698e-11
1.19953e-10
-3.18105e-11
3.97159e-11
-4.86974e-11
1.19952e-10
-4.4626e-10
5.83011e-11
-1.45071e-10
4.78301e-11
-4.25531e-11
-4.75027e-12
-8.39154e-11
5.21772e-11
1.17067e-10
-1.53677e-10
-2.58668e-11
-4.71024e-11
7.01745e-11
9.63467e-11
1.44201e-10
-4.07963e-10
6.82077e-11
-6.0025e-11
5.34652e-11
-2.79259e-11
1.0297e-10
2.67219e-10
5.33479e-10
-8.72545e-11
-4.88263e-10
2.13459e-10
-1.02786e-10
1.8368e-10
1.07951e-10
6.55279e-10
2.10507e-10
-1.57215e-10
-1.76602e-10
1.32669e-10
2.62346e-10
-2.13963e-10
4.6815e-10
-4.44628e-10
-1.15076e-10
-2.49716e-10
1.5359e-11
3.21327e-10
3.07879e-11
-8.51723e-11
-6.07506e-11
-3.1279e-10
1.09009e-10
-4.46679e-11
-3.68839e-11
1.01116e-10
-3.68495e-12
-1.27405e-10
6.54234e-10
-2.92917e-10
-6.64167e-10
2.98281e-10
4.75213e-10
1.89111e-10
-4.82784e-10
4.53503e-10
4.30145e-13
1.19135e-12
-4.6083e-12
5.88129e-12
4.36853e-11
3.78739e-11
-8.39057e-11
2.61712e-11
1.69546e-11
1.61066e-11
-8.16261e-11
-5.2885e-11
7.47652e-11
-4.45228e-11
2.94045e-11
-9.19141e-11
-3.16491e-10
-1.14944e-11
3.1545e-10
1.47333e-12
2.17736e-10
3.75262e-10
-8.90944e-10
1.19859e-10
-3.20375e-11
-2.91119e-10
3.7415e-10
1.80932e-10
3.07081e-10
-2.18995e-10
-6.78057e-10
-9.0662e-11
8.86986e-10
-6.04763e-10
-2.75184e-10
9.55475e-10
-1.2492e-09
1.24465e-09
-2.83442e-10
6.79996e-11
6.26583e-10
-3.80644e-10
1.29625e-10
3.49694e-11
-2.86608e-10
1.56124e-11
1.70511e-10
-3.22025e-11
1.05145e-10
5.36796e-10
3.29016e-12
-6.48204e-13
1.65277e-11
-1.2791e-12
2.84056e-13
-2.78483e-11
1.98536e-10
-2.4733e-12
4.55907e-11
-5.24122e-13
-1.51042e-12
-1.73839e-12
2.22728e-12
7.53374e-13
-2.8573e-12
-5.86023e-11
5.94279e-11
1.47397e-11
-1.97264e-11
2.25811e-10
-2.35799e-10
-6.19444e-11
-2.23413e-11
2.16018e-11
-3.89716e-10
1.1293e-12
-7.85905e-14
-5.75558e-13
7.73166e-14
6.93134e-13
-4.86047e-13
6.32659e-13
-4.41009e-13
1.03797e-12
-1.95053e-12
7.65294e-13
-8.82315e-13
2.28658e-13
-7.21886e-13
1.88681e-12
2.22828e-13
-5.27793e-13
4.24268e-13
-4.6807e-13
2.35368e-14
6.2611e-13
-1.00246e-13
7.64228e-13
1.39592e-13
-9.69587e-13
6.88629e-13
1.92372e-14
-1.01739e-12
-2.70694e-13
-8.33051e-13
-2.10194e-13
1.34502e-12
-1.89505e-12
1.76401e-12
2.19277e-23
2.24068e-23
1.72279e-22
-2.12444e-22
-2.10787e-23
4.37359e-23
5.96363e-25
1.19699e-20
-1.19647e-20
-4.43555e-19
-1.8543e-20
4.74373e-19
-6.58806e-19
2.0349e-19
1.89058e-20
-6.77525e-19
4.07899e-22
-3.73548e-12
1.88196e-11
9.68251e-11
-1.37482e-10
4.81239e-12
-3.87221e-12
-4.56735e-12
1.65005e-11
8.60921e-12
-4.51952e-10
1.14662e-11
6.0692e-10
-1.07547e-11
-4.86731e-10
6.40319e-11
-7.69691e-11
9.56515e-11
6.83951e-11
2.2827e-10
3.82556e-10
-6.56983e-10
3.31869e-10
4.78255e-10
2.88553e-10
1.66511e-10
-4.2895e-10
4.13734e-10
5.22624e-10
6.33091e-10
-6.50204e-10
-1.99418e-11
8.66964e-10
5.89569e-10
2.83329e-10
-5.44949e-11
-3.67233e-10
9.74659e-11
-4.70588e-10
-3.56515e-11
1.12085e-09
-2.08347e-10
-3.44051e-10
6.74161e-10
1.07148e-11
-1.04832e-09
7.68706e-10
-6.69565e-10
1.42296e-09
-1.09242e-09
2.8563e-11
1.30654e-10
-5.36461e-11
-1.18803e-10
1.48722e-10
4.54273e-11
-8.99861e-11
-2.62869e-11
2.88657e-10
-1.31569e-10
5.79376e-11
1.07497e-10
-1.75957e-13
-2.71194e-10
-9.86467e-11
1.18791e-10
-1.63683e-10
1.69061e-10
2.32625e-11
-7.06402e-11
4.27164e-12
-7.26322e-12
-1.28362e-11
-7.78221e-11
6.56939e-11
2.68648e-10
-2.1544e-11
-1.23856e-10
2.24289e-10
1.50678e-10
5.12041e-11
2.97896e-11
-7.23724e-11
5.44446e-11
2.23059e-10
-1.86065e-11
2.29583e-11
-6.44965e-11
-2.28828e-10
1.58508e-10
-4.22053e-11
1.34207e-10
5.20726e-10
-8.34108e-11
1.90344e-10
5.06115e-10
1.14637e-11
2.09355e-11
3.29224e-11
1.19995e-10
4.92028e-11
-7.78415e-11
2.27464e-10
2.28498e-10
-2.38324e-10
-3.4557e-12
9.21384e-11
-8.39533e-10
2.24696e-11
8.51037e-10
-4.73572e-12
-5.41423e-10
5.84592e-12
1.2811e-13
-8.16463e-12
2.69802e-11
6.38663e-11
-1.54601e-11
7.77344e-11
-2.2458e-11
-6.95399e-06
1.2994e-06
5.23203e-06
4.22559e-07
9.67756e-06
5.37153e-07
-1.71687e-05
4.14654e-06
6.83042e-06
-3.78571e-06
7.39205e-06
1.62569e-06
8.10399e-06
-1.13525e-05
2.35286e-06
-1.90104e-05
2.08041e-05
-1.05004e-05
1.96837e-05
3.77545e-06
-1.46818e-05
6.67094e-07
-2.36802e-06
1.49323e-06
2.83857e-06
-1.96645e-06
6.00404e-06
-2.88723e-07
-8.12946e-06
-2.86735e-07
7.77146e-06
3.82231e-06
7.10207e-06
-1.12439e-05
1.37503e-05
-7.10455e-06
1.93743e-05
-1.26512e-05
4.09092e-05
-3.8805e-07
-2.29244e-07
-7.81501e-07
1.71056e-06
-2.87894e-08
-3.7723e-07
-6.77044e-07
-3.07216e-07
-2.14745e-08
2.18421e-07
9.82634e-08
-1.47347e-06
1.22901e-07
4.89901e-08
9.35945e-07
-2.16329e-07
-1.19182e-06
-4.20766e-07
1.48473e-06
1.20354e-07
-2.58663e-07
-2.05094e-07
5.43951e-06
6.1713e-06
-1.97389e-05
-3.68341e-06
-8.84736e-06
-7.01628e-08
9.39487e-06
-1.50988e-05
-2.48302e-06
6.43834e-06
-1.23085e-05
-6.96871e-07
-1.79565e-05
1.84736e-05
4.59991e-06
1.29044e-06
-1.81809e-05
4.30006e-06
-1.39377e-06
-3.39462e-06
-1.08267e-05
-1.71841e-05
5.98393e-12
2.15226e-12
-1.5029e-12
-1.62532e-11
-3.64135e-12
2.14936e-12
6.13954e-12
-7.08098e-12
6.18482e-12
-2.31582e-11
-7.19918e-13
2.51047e-11
9.56549e-12
-3.70694e-11
8.19617e-11
-7.84079e-11
8.65304e-11
1.5901e-06
-1.98882e-12
-1.48769e-06
-1.36231e-08
-1.86886e-09
-1.88491e-07
1.58494e-06
-1.45954e-09
-9.49525e-11
2.02059e-07
-1.13313e-09
-1.72557e-06
-5.8194e-10
1.17488e-08
6.08763e-10
1.13931e-09
-4.40387e-09
7.56411e-10
-6.56753e-14
-3.92641e-14
2.33827e-10
5.92427e-11
6.78016e-16
4.03116e-16
-3.43327e-16
-9.22498e-16
-2.03046e-16
-1.62295e-15
3.19824e-15
-5.10393e-15
5.16712e-15
-6.8623e-16
1.36032e-15
-9.47172e-16
2.63642e-15
-4.88285e-15
-3.48882e-15
3.41025e-15
-6.68174e-15
-1.34482e-05
-4.11474e-05
1.31346e-05
4.10479e-05
-1.93281e-05
1.89449e-05
-1.47168e-05
-3.13466e-06
-5.73977e-05
-4.0794e-05
1.37041e-06
5.77206e-05
-1.18695e-05
-4.37055e-05
2.92663e-05
-4.44189e-05
4.33579e-05
1.52254e-05
1.17646e-05
2.95441e-05
-5.67328e-05
-1.16047e-05
8.89299e-06
1.39995e-05
4.08677e-05
1.15806e-05
-3.51936e-05
2.80065e-05
-3.91927e-05
6.24236e-05
-2.55884e-05
-3.7313e-05
2.76213e-05
-2.83214e-05
-3.71037e-05
-4.14159e-05
5.39023e-05
-4.92585e-05
-7.23399e-06
1.32197e-05
2.70013e-05
-3.30033e-05
1.84175e-05
1.82991e-05
-4.40407e-05
2.11142e-05
1.04983e-05
-2.06786e-06
1.03798e-05
1.86848e-05
8.91578e-06
7.31072e-06
-1.39767e-05
-1.73266e-05
5.0132e-05
-2.13282e-05
1.26381e-05
2.75436e-06
-1.52647e-05
-4.271e-06
4.757e-06
-6.18471e-07
-5.79508e-06
1.65655e-06
-6.85463e-06
-3.46183e-06
1.50735e-05
1.32908e-06
-8.80218e-06
-6.36497e-06
-2.06916e-05
2.35948e-05
-2.46808e-05
1.25207e-05
-2.65727e-05
7.21014e-06
-6.00551e-05
-4.86033e-06
-7.30491e-06
1.37909e-05
-2.4704e-06
-6.67353e-06
4.28364e-06
-9.35278e-06
1.45262e-05
-4.10477e-05
-3.49978e-06
-2.84719e-05
-7.99768e-06
2.17881e-05
9.77787e-06
-4.17504e-05
6.06406e-06
2.05221e-05
-1.58181e-05
-1.75696e-05
-2.01619e-05
5.35324e-05
-8.50274e-06
-4.35825e-05
3.62582e-05
-2.03122e-05
-5.79836e-06
2.62764e-05
1.89769e-05
-6.55546e-05
3.94406e-05
-1.89557e-05
4.23875e-05
-6.69852e-05
6.1674e-05
-1.08261e-05
-2.17297e-05
-2.84446e-05
6.09828e-05
-1.90626e-05
-5.07034e-05
5.89195e-05
-2.51403e-05
-1.57474e-05
2.19623e-05
3.21398e-05
-7.91009e-05
5.29796e-05
-4.66559e-05
4.24298e-05
-6.09856e-05
6.69673e-05
1.13306e-09
-2.37568e-08
1.13176e-08
-1.19671e-12
-2.67956e-08
8.93406e-09
7.31617e-10
2.29138e-08
-6.94621e-08
-9.00521e-09
-3.58805e-09
3.87492e-08
-2.20025e-08
6.97513e-08
-1.38949e-10
-3.43882e-09
-6.50814e-10
-1.1285e-08
-1.82528e-08
1.04585e-09
3.7097e-09
5.90577e-09
-1.20945e-13
1.22039e-14
1.72637e-13
-6.1529e-14
2.1556e-12
6.59727e-13
-6.18382e-12
2.30805e-13
5.1833e-13
4.5433e-14
-8.61346e-13
8.67781e-13
-1.5716e-11
2.32916e-11
-6.04359e-12
5.09593e-12
-1.71712e-11
2.58901e-09
4.09817e-10
3.26882e-09
-3.06953e-09
-5.19215e-10
1.83507e-09
4.52393e-09
6.35279e-10
-6.35799e-12
1.33577e-09
-1.88778e-09
1.9086e-09
-6.85968e-10
6.87306e-09
2.26771e-10
-1.99149e-09
-6.15043e-10
-3.11089e-10
-1.82064e-10
-2.70508e-10
5.69124e-10
2.46267e-10
2.17455e-05
6.48616e-08
-2.12443e-05
-3.12066e-07
-2.74968e-05
-9.01098e-06
5.84804e-05
-2.83719e-05
1.18672e-06
9.96389e-06
2.88209e-05
-6.00618e-05
9.78066e-06
-4.48278e-11
8.16343e-07
-1.0605e-10
1.5833e-06
3.37175e-07
-5.26883e-05
-6.03123e-07
5.2957e-05
-5.28729e-05
5.2349e-05
8.62411e-07
5.17201e-05
-0.000157279
5.40846e-05
-5.25897e-05
-2.09401e-06
-5.22763e-05
0.00015932
-1.13854e-06
1.21545e-06
-2.00715e-06
1.34955e-10
1.70904e-10
-1.22504e-10
-1.83742e-10
5.84918e-11
-3.09419e-10
3.84289e-10
-1.22174e-10
3.50233e-10
1.39586e-10
7.05863e-11
-3.3287e-10
3.87359e-10
-7.56549e-10
6.99003e-11
-3.14261e-10
3.32735e-10
1.3401e-09
5.63998e-10
-9.87225e-11
-1.65732e-09
-3.88112e-10
4.03265e-10
1.22482e-09
-2.55141e-10
3.4566e-10
-7.30061e-10
-8.73071e-11
1.2216e-09
3.34401e-10
-1.05149e-09
7.63578e-10
-8.4179e-10
9.66424e-10
3.00389e-11
4.8975e-11
-1.65243e-12
-8.16338e-11
7.17667e-11
-6.42437e-10
6.25638e-10
-1.64356e-10
2.81048e-10
-1.14494e-10
1.11834e-10
8.89881e-13
1.4071e-10
-3.34038e-10
4.9643e-10
-9.68789e-10
3.92192e-10
1.38404e-08
4.8212e-09
-2.62526e-09
-1.28075e-09
-2.49116e-08
-2.33398e-08
7.2904e-08
1.07011e-08
-3.14281e-08
8.47402e-09
-2.59885e-09
-4.93424e-09
-3.62363e-08
2.27305e-08
-7.68364e-08
1.53769e-07
2.86114e-09
8.11442e-10
-9.49844e-08
-3.85781e-08
1.64904e-07
-3.29639e-08
2.03391e-07
-1.80945e-08
-2.69637e-07
9.28862e-08
-1.32871e-07
-1.40093e-07
4.77342e-07
-3.88381e-08
-2.37443e-08
-2.7614e-08
2.745e-07
-3.62641e-08
7.91615e-09
-5.76841e-08
-3.66098e-07
5.29102e-07
-4.12877e-07
-9.69169e-08
3.92176e-09
2.95917e-09
8.80388e-08
2.4573e-07
2.06314e-07
-5.26637e-07
2.22485e-07
4.05965e-08
5.16295e-08
-5.50359e-08
5.76548e-09
-3.66431e-08
1.75676e-07
4.94489e-08
1.00987e-07
2.50125e-07
4.43322e-08
2.56316e-07
-1.3221e-08
-2.0597e-07
1.50911e-07
-2.45401e-07
1.39233e-07
-2.45923e-07
6.41414e-07
-1.99953e-07
2.32968e-07
2.77885e-07
-2.69579e-07
-7.47548e-08
1.09476e-07
-9.00909e-08
1.55272e-10
-2.27953e-09
4.57082e-11
5.49122e-10
-5.51313e-09
-6.61575e-11
9.06092e-10
2.67776e-09
-6.14953e-08
1.82143e-10
-3.66178e-10
2.21077e-11
-1.64337e-10
3.33672e-10
-1.09968e-09
5.61797e-10
9.31951e-10
3.59247e-08
1.00531e-07
5.41994e-08
-1.55639e-07
2.49319e-09
1.99948e-08
2.66242e-10
3.39929e-08
6.56759e-09
1.16584e-08
1.31233e-07
-1.71061e-07
8.21387e-08
-4.88397e-08
-2.41926e-08
2.56642e-08
-2.42649e-10
-9.41572e-11
1.01757e-10
1.03026e-10
5.08588e-12
-4.90965e-09
-2.2236e-07
4.64329e-08
-7.05392e-08
-4.80552e-07
-1.30353e-13
-1.06768e-13
-6.53609e-15
1.31539e-13
1.65371e-14
-9.23582e-14
-2.48069e-13
2.92111e-14
-5.64524e-13
1.90124e-13
-3.13322e-13
-9.06688e-14
-1.73474e-13
1.79117e-13
-4.50048e-13
4.24859e-14
-1.71869e-12
-2.4484e-14
6.96615e-13
-2.97142e-12
5.65644e-13
1.83003e-13
-4.60899e-13
-1.16738e-13
-3.19598e-13
4.85144e-13
4.25613e-12
3.29821e-12
-1.57925e-11
3.52553e-13
6.42165e-13
4.33842e-13
1.36907e-12
5.01442e-13
-1.53275e-12
-1.31063e-13
-3.81995e-12
-1.24089e-13
-3.61488e-14
6.99535e-15
3.61161e-14
3.13702e-13
4.21029e-13
-1.24729e-11
1.41348e-13
-3.35327e-13
-2.82946e-15
-3.94296e-15
8.65574e-15
-6.82386e-15
1.14058e-14
2.50944e-16
-1.42289e-14
8.00481e-15
-3.03668e-14
1.86741e-14
1.05591e-13
9.72709e-14
4.3698e-14
-9.86682e-15
-6.19433e-15
-6.3233e-15
2.92379e-15
-1.23118e-14
-1.36735e-15
-5.03912e-15
-1.33062e-14
7.34904e-15
-7.60721e-15
-1.39601e-14
3.42494e-15
-2.79009e-15
4.27536e-14
3.2721e-14
1.43804e-14
-9.44576e-16
2.33317e-15
-4.90973e-16
-1.21662e-15
7.30557e-15
-1.49799e-15
-7.29107e-15
-5.86231e-15
-2.11939e-15
-1.66661e-15
1.63799e-15
-7.16649e-16
3.91788e-15
-6.13683e-15
8.17633e-15
-1.29542e-14
5.47503e-15
-5.63169e-12
-1.82134e-11
7.46917e-11
1.83069e-11
4.42862e-12
2.18907e-12
-9.88161e-12
2.55118e-10
-1.51187e-10
-3.46808e-11
-2.04034e-10
2.52342e-10
-6.28468e-12
9.21723e-12
-1.40841e-11
-1.56917e-10
-8.08196e-11
-1.42188e-12
-1.69026e-11
1.17723e-12
2.83061e-13
2.43798e-10
4.95693e-10
7.12817e-10
9.0817e-10
-2.11289e-09
4.60153e-10
1.34776e-09
-1.31285e-09
4.76628e-10
2.68368e-10
-3.68544e-10
-7.3866e-10
7.4652e-10
-1.66113e-09
4.90884e-10
-1.54216e-09
2.07004e-09
-2.29477e-09
8.88061e-12
-2.04487e-10
-2.54109e-11
4.3935e-11
-1.53556e-10
2.62889e-11
1.10639e-10
6.56865e-12
1.18894e-10
-1.0456e-10
-3.93894e-11
-4.76933e-11
2.45713e-10
-1.41916e-10
1.20602e-10
-2.87079e-10
6.16581e-11
-7.9814e-11
4.02047e-10
-4.30487e-10
-1.3022e-10
1.50283e-10
2.43161e-11
6.7584e-11
-4.90463e-10
-9.18112e-11
-5.11331e-10
7.3285e-10
-9.34735e-11
1.76999e-11
-2.02003e-10
1.05171e-10
-3.07518e-10
6.22368e-11
-2.74683e-12
-2.11113e-11
-1.05877e-11
-2.80271e-10
3.72314e-10
-5.30031e-11
4.79511e-12
-1.66645e-10
-6.32662e-11
4.26638e-10
6.45618e-11
-4.45268e-10
-4.18913e-11
-3.45509e-10
-4.10703e-10
1.21111e-09
4.66035e-11
-2.80756e-10
-2.85971e-10
3.40602e-10
2.28479e-11
4.87699e-10
-1.10184e-09
-5.08603e-11
4.19024e-12
1.48666e-11
5.77408e-10
-5.84376e-12
-7.95633e-10
2.32455e-10
-5.0561e-11
-2.59889e-10
8.84099e-10
-5.51428e-11
-6.05544e-13
6.67336e-11
1.13528e-10
-1.86352e-10
6.56814e-11
-9.00105e-13
-7.19143e-10
6.19664e-10
-1.31185e-09
1.60465e-12
-1.21358e-13
-1.59649e-12
1.85394e-13
-1.19345e-12
-7.64049e-13
3.80936e-12
-8.62632e-13
-8.78263e-14
1.2045e-12
5.46082e-13
-2.51107e-12
2.11681e-12
-1.30495e-13
-2.57144e-12
4.76863e-12
-2.60751e-12
-3.96915e-19
-1.77552e-16
2.26874e-16
5.26887e-17
-1.59044e-16
3.19073e-16
-1.30752e-18
3.96957e-17
-3.12354e-16
-4.05656e-17
-1.17027e-16
3.52233e-16
-4.59254e-17
-1.12758e-17
5.50333e-17
-1.57101e-17
9.71577e-17
-3.30405e-20
1.97305e-20
2.27656e-20
-1.02661e-22
1.09358e-19
-2.08731e-20
-2.89846e-19
3.87375e-20
9.60576e-20
-1.93768e-22
6.64443e-21
1.72021e-20
-2.86447e-22
-7.02326e-24
-1.41166e-21
-3.49132e-21
1.17906e-20
-1.65082e-21
-4.5908e-23
2.16753e-20
-3.9382e-20
5.87609e-20
1.25112e-19
-9.86694e-20
-9.39593e-20
2.77141e-19
-1.2908e-19
-4.75625e-20
4.28961e-19
-2.28766e-21
-2.95578e-22
-4.74074e-20
-7.23088e-23
1.05295e-20
-2.7919e-23
-1.05548e-19
-1.46556e-23
-2.37541e-21
-3.57312e-22
5.80585e-08
-6.31291e-10
-3.21572e-09
-6.00858e-08
-5.81158e-10
1.36651e-11
5.8694e-08
-1.3348e-10
-9.33637e-10
-6.70078e-11
-2.37963e-11
3.1648e-11
7.83755e-10
-2.19398e-09
-4.87069e-09
9.23787e-09
-8.03754e-09
-6.39967e-07
-1.44139e-06
-6.5076e-07
1.70492e-06
-4.22071e-07
-1.8396e-08
8.09547e-08
-3.57595e-06
-2.20741e-07
-3.98616e-08
-8.16318e-06
4.04036e-06
-1.27135e-08
-6.46173e-08
-8.46873e-07
-2.38671e-05
-1.09932e-06
4.37154e-06
2.04129e-06
-4.75849e-06
-2.0504e-05
-1.48801e-06
-3.54136e-08
1.87424e-06
2.08795e-07
8.20807e-08
-6.86271e-08
4.24536e-07
2.74044e-08
1.6014e-08
-4.76033e-09
4.01724e-06
-9.18516e-06
4.25553e-06
1.17694e-08
-4.24049e-08
-2.43781e-08
5.19398e-08
-6.8973e-08
-4.92018e-08
1.23826e-07
-1.05893e-07
-5.07701e-08
1.84703e-08
-1.3794e-07
4.3903e-08
-3.93753e-08
3.23043e-09
-2.4323e-08
-7.73715e-07
-1.36318e-07
-7.28356e-08
2.94055e-08
-5.55347e-08
9.44631e-08
5.10714e-08
2.21704e-07
-3.49512e-07
2.71211e-08
5.1519e-08
4.30131e-08
-8.84406e-08
6.74818e-08
-5.97737e-08
1.52615e-07
1.63643e-07
3.13999e-07
-5.64962e-07
5.88486e-08
-9.51634e-09
-1.5814e-08
8.61255e-08
-1.81092e-08
-1.63927e-06
-1.55518e-06
-4.22426e-07
3.92877e-06
-3.15834e-08
-1.84638e-06
-1.56484e-06
-1.36346e-08
4.80132e-07
-3.08861e-07
-1.7316e-06
6.04504e-07
-5.3144e-08
7.28634e-07
9.21155e-07
-1.95414e-06
2.34291e-06
-1.15677e-06
2.05069e-06
-2.96463e-06
3.9853e-06
-1.21897e-06
1.28392e-09
1.70134e-06
-6.05343e-07
6.02939e-07
1.33149e-06
-2.72052e-06
-5.95754e-08
5.66827e-07
8.67378e-07
-1.14801e-06
1.07579e-07
-4.37309e-07
1.82201e-06
8.12807e-07
1.82322e-06
-7.57466e-07
1.57669e-06
7.14512e-07
-1.84042e-06
3.31117e-06
-1.36012e-06
-3.42989e-07
-1.40953e-06
4.28012e-06
-3.24549e-07
3.78463e-08
3.18519e-07
1.45238e-07
-5.0439e-07
3.5939e-07
-3.0947e-08
4.40874e-07
-1.52226e-06
1.38878e-06
-6.23043e-07
3.09358e-06
-8.08625e-07
-6.47487e-08
5.96282e-07
2.326e-07
9.12023e-07
6.21388e-07
-1.54134e-07
7.14258e-07
6.04509e-07
-2.45386e-07
-7.12067e-07
1.94419e-06
-2.43464e-07
4.47239e-08
2.20391e-07
3.74037e-07
-6.55672e-07
9.10539e-09
3.51512e-09
-8.49593e-09
-5.11931e-07
7.55165e-08
-4.43305e-06
1.63517e-05
1.82148e-05
1.73056e-05
-5.08562e-05
8.24346e-06
3.36186e-05
3.79198e-06
9.30061e-06
3.35055e-05
3.23852e-05
1.54539e-05
5.01026e-05
1.20384e-05
1.0156e-05
2.26083e-05
1.01714e-06
3.363e-06
3.75455e-07
-1.95537e-07
-8.46898e-07
-4.23568e-06
-1.98416e-05
-1.00573e-05
-3.10426e-06
1.27183e-05
-8.40547e-06
-7.85538e-07
-1.51992e-05
-3.44317e-05
-1.0406e-05
-2.22194e-05
3.12828e-05
-1.47585e-05
-1.23875e-05
2.26311e-05
-2.14477e-05
-3.56243e-05
-3.26018e-05
-5.39458e-06
-4.19929e-05
-3.92388e-05
-2.82615e-05
-4.84735e-06
1.68572e-05
1.51395e-05
-3.61101e-05
-8.9936e-06
1.49747e-05
4.085e-05
-6.16145e-06
7.9889e-06
1.89754e-05
8.91948e-06
1.42961e-05
-2.93779e-05
6.50247e-06
1.01963e-05
1.46139e-06
-1.46606e-05
1.9612e-05
-2.45537e-05
1.56537e-05
-2.59157e-05
1.99678e-05
4.16419e-06
1.00131e-05
1.59612e-05
1.17978e-05
2.01143e-05
-2.0234e-06
-4.11169e-05
2.10084e-05
-1.97721e-05
-2.15778e-05
5.58736e-05
2.47607e-06
-2.38906e-05
-2.30567e-05
2.15741e-05
4.13305e-06
3.85509e-06
-5.0772e-05
-2.63963e-05
2.51002e-05
-6.48047e-05
-8.64444e-06
-2.17528e-05
4.84933e-06
2.55495e-05
1.08108e-06
-1.07029e-05
9.81082e-07
-2.61496e-05
5.84503e-06
-1.32622e-05
-1.34441e-05
3.15578e-05
-3.69909e-05
1.36118e-05
4.67523e-05
5.0523e-06
-7.07013e-05
3.52845e-05
1.80132e-05
5.15764e-05
-7.82506e-05
7.40461e-05
-1.19995e-05
-2.25009e-05
2.62072e-06
1.1686e-05
1.37586e-05
-7.34214e-06
-1.02427e-05
3.97057e-06
-2.44863e-05
9.79878e-07
3.74114e-05
-2.90849e-06
-1.85032e-05
1.85239e-05
-5.11756e-05
2.26196e-05
-3.26164e-05
5.22653e-05
-1.8863e-05
2.06152e-05
-4.41791e-06
2.42345e-06
-3.96858e-05
4.76199e-05
-9.7285e-05
3.6173e-05
-1.24861e-05
-1.52906e-05
-4.38253e-06
3.14169e-05
-3.6255e-06
-1.08198e-05
9.60702e-07
-1.45317e-05
1.0487e-05
-3.85516e-05
1.62017e-05
3.04223e-05
2.4902e-05
-9.5156e-05
-8.07425e-05
-1.29644e-05
-2.77098e-05
2.52655e-06
1.01809e-05
9.05501e-06
1.0863e-07
-9.70789e-06
7.8673e-07
-1.66269e-05
-5.02544e-06
3.1052e-05
1.64928e-06
-1.70277e-05
6.61283e-06
-3.26746e-05
1.68207e-05
-2.91329e-05
3.07533e-05
-3.43221e-05
6.90282e-06
-8.39611e-05
-3.0495e-05
-8.51192e-06
-4.16728e-05
2.28489e-06
-4.74363e-05
1.2261e-05
-1.04636e-05
2.25551e-05
-7.23293e-05
4.43316e-05
-0.000122245
-1.75206e-05
1.21912e-05
-2.26127e-05
9.07319e-06
3.78787e-05
8.33868e-07
-4.49657e-05
1.30938e-05
-7.53249e-06
1.87515e-05
1.20329e-05
5.04575e-05
2.63038e-05
-2.13579e-05
-1.9118e-06
5.91249e-05
-2.95754e-05
4.63987e-05
-4.71118e-05
-9.49509e-06
-1.98609e-05
-1.27977e-05
3.98341e-05
-7.4034e-06
-2.03388e-06
1.82352e-07
-1.93185e-05
-7.61592e-06
2.44337e-05
8.16706e-07
-4.60481e-05
3.9133e-05
-2.20382e-05
9.48198e-06
-1.04972e-05
3.46887e-05
4.29808e-07
6.29146e-08
-1.41796e-07
-2.26282e-07
-1.88284e-07
7.9079e-08
7.78352e-07
-9.93958e-08
8.23062e-08
2.22113e-08
5.12726e-08
-7.17001e-08
-2.18678e-08
1.79683e-07
2.06105e-07
-2.45496e-07
3.48474e-07
6.24025e-08
4.40433e-07
-2.00883e-07
-2.54764e-07
3.0773e-07
-6.00632e-08
1.85628e-07
-5.48902e-08
1.16822e-06
2.23497e-07
3.69663e-08
-2.85217e-07
9.01746e-08
3.26931e-07
-3.31978e-08
1.50267e-07
-9.62079e-08
4.00195e-07
-8.96466e-08
-4.09265e-07
1.71897e-07
-2.42504e-07
-1.97392e-07
6.49406e-07
-8.5557e-08
-3.68623e-08
-2.08153e-07
-2.45372e-07
1.75911e-07
-7.28904e-08
-3.97589e-07
1.84311e-07
-3.2195e-07
-9.77337e-08
-4.55345e-08
-2.48965e-08
-2.28154e-09
1.00548e-07
1.43809e-08
-9.69536e-09
-3.143e-09
-6.28166e-09
1.10037e-08
-1.14994e-08
1.98489e-08
-1.5774e-09
4.37867e-10
-1.26098e-08
-2.77269e-09
2.29899e-09
2.23323e-08
1.15589e-09
-2.65665e-09
2.3973e-09
-6.57031e-09
2.00477e-09
2.47984e-08
-4.1702e-08
-8.64035e-09
2.33173e-08
-5.33747e-10
-1.16539e-08
7.52778e-09
-3.49183e-08
3.89067e-08
1.60511e-07
-1.67524e-08
1.03936e-08
2.02668e-07
1.31196e-08
7.2212e-09
-4.62862e-08
1.55671e-09
1.66161e-08
-1.43159e-09
-5.22608e-09
-1.08479e-08
-1.48965e-10
-2.6597e-10
-2.95485e-10
6.97709e-10
-1.06966e-09
-4.01982e-10
1.54587e-09
-5.27298e-10
-1.28863e-10
-1.51749e-10
-1.08014e-09
9.191e-10
-3.71039e-10
-2.00855e-10
8.48875e-11
-1.44267e-09
-3.87808e-10
9.54294e-11
1.39118e-10
2.28755e-11
-2.45532e-10
-5.63139e-12
-1.13226e-11
9.22995e-11
1.21586e-10
-9.35029e-13
4.00748e-10
-1.73426e-10
-2.28914e-10
-9.31173e-11
5.93122e-10
-3.89015e-10
-5.30339e-10
-6.16539e-11
-8.50807e-11
-3.96052e-11
2.4671e-10
-6.91019e-11
-1.31009e-11
5.51144e-11
-2.55831e-11
-1.08809e-10
-9.20462e-12
-7.33169e-11
6.25554e-11
-7.71778e-12
-1.32723e-11
1.2977e-11
-2.40402e-11
-1.50046e-10
1.06213e-11
9.39551e-11
-7.0038e-10
2.07011e-11
-2.04455e-10
4.96133e-12
1.03026e-10
2.39541e-10
4.39112e-10
-6.16388e-11
5.86835e-10
4.14581e-10
-7.90619e-10
3.33831e-10
-1.72028e-10
-2.23727e-10
-1.19207e-10
1.12626e-09
-7.66407e-10
4.41371e-10
7.7056e-10
-3.45117e-11
-1.09594e-09
2.52539e-10
-4.59307e-10
5.89704e-10
-2.7706e-11
-2.68661e-10
4.2816e-11
1.2695e-12
-3.20333e-10
8.08865e-11
-2.41942e-11
-4.7012e-11
-1.64803e-09
-2.49477e-10
-5.84121e-11
2.10593e-10
-2.86517e-10
-5.75143e-11
3.01976e-10
-1.66849e-09
2.82711e-11
-2.35494e-09
-9.44377e-10
1.33476e-09
2.44974e-09
9.05963e-10
1.80158e-09
-4.41141e-09
1.29765e-08
-1.19649e-08
1.45814e-08
2.6432e-08
-2.83606e-08
-3.84775e-09
1.84889e-08
-5.01674e-08
6.32919e-08
-3.41603e-08
-3.01114e-07
-1.26352e-08
-4.27997e-09
3.15587e-07
5.72167e-07
6.1058e-07
-1.48739e-06
5.938e-07
-3.43526e-08
1.51454e-07
-1.51666e-07
-7.83683e-09
-8.76081e-08
5.42904e-07
1.83287e-07
2.71906e-07
7.08959e-07
-1.30484e-09
4.82765e-08
-4.39888e-08
6.71592e-09
2.49985e-08
-2.29307e-08
-5.01318e-09
-8.2825e-08
1.48649e-07
2.33625e-07
3.48935e-08
-3.75117e-07
1.54371e-07
1.687e-08
-1.52581e-08
4.06314e-08
-1.73339e-07
-1.71e-07
-9.05128e-08
3.39689e-07
2.13445e-09
1.0631e-08
-2.32902e-07
-1.56054e-07
2.49516e-09
-3.35543e-07
3.14097e-07
4.16803e-09
9.70094e-08
-6.55574e-07
1.85519e-07
-2.36532e-07
3.15159e-07
1.65878e-07
1.96189e-08
5.19066e-07
1.88751e-07
-1.40885e-06
4.3296e-07
-5.75915e-10
-1.15468e-07
7.37377e-07
-1.16434e-07
-1.55943e-09
1.95467e-07
6.87696e-09
6.43753e-09
-8.84917e-08
-7.55561e-08
-8.30657e-08
1.33338e-08
-1.72868e-07
-4.44852e-07
1.75806e-07
2.78049e-08
1.86047e-07
-7.83396e-07
-1.19022e-07
1.93994e-08
3.95795e-07
4.29543e-07
-1.66898e-08
1.84014e-07
8.76562e-08
6.23467e-08
-1.41995e-08
1.36137e-07
-1.84155e-07
-6.07143e-08
3.72202e-08
1.76465e-08
1.401e-07
-2.14742e-07
1.39376e-08
-2.05324e-07
8.77482e-08
-5.52275e-08
3.44029e-08
-1.27693e-07
1.12444e-07
-1.96704e-07
1.81904e-12
-1.72779e-11
-1.13362e-10
-9.48029e-12
-9.23514e-12
5.95813e-12
-5.08359e-11
-1.57324e-11
5.00085e-11
3.07569e-10
-4.50629e-10
-1.99715e-12
-2.6753e-11
-8.80105e-11
2.74765e-11
-2.63715e-10
-2.28316e-13
7.72315e-14
9.41113e-14
-3.42262e-13
3.21986e-13
-7.56712e-13
-2.81314e-13
1.28983e-14
8.90951e-14
-1.27933e-13
3.62291e-14
-3.18654e-14
-1.04648e-12
-2.1188e-12
9.0489e-13
-5.87064e-12
4.72237e-13
-1.22186e-15
-1.98737e-15
-1.35651e-15
-5.78256e-15
2.76784e-13
2.7999e-13
3.65439e-13
-8.21061e-13
-2.19637e-13
1.03461e-13
1.14933e-13
6.03288e-13
-5.25477e-13
8.57181e-14
-3.78689e-13
2.63218e-13
-2.59347e-13
2.78672e-13
-4.53656e-13
7.92516e-13
-3.04447e-13
-2.08557e-15
6.64341e-15
-6.45272e-15
6.92053e-15
5.58634e-15
-4.66281e-15
-3.39457e-15
-1.65614e-14
1.57957e-14
-1.83199e-14
-2.45371e-14
2.94306e-14
-2.96794e-14
2.58304e-13
3.3409e-14
3.57262e-13
-5.26449e-13
-4.78239e-14
2.97213e-14
-5.68905e-14
1.63675e-14
-1.66559e-13
-4.98275e-13
4.81353e-13
-1.72696e-13
-4.16366e-13
-4.90759e-14
6.79984e-14
1.346e-14
-3.25661e-14
2.47216e-13
-1.06543e-14
-2.85882e-13
-5.80533e-13
1.85164e-13
-6.56444e-14
1.65285e-13
-8.6444e-14
3.37713e-13
-4.14256e-13
3.0244e-12
-2.86446e-13
3.25037e-12
-5.09374e-12
-3.26583e-12
3.00447e-12
6.05534e-12
5.56234e-12
3.58154e-12
-1.30057e-11
-1.02116e-11
1.30063e-11
-1.13917e-13
7.91095e-12
-4.14429e-12
6.89854e-12
-4.75328e-12
4.94253e-11
-8.27832e-12
4.78292e-11
3.27033e-11
1.82965e-12
3.64965e-12
-3.78654e-11
-1.90877e-12
1.24126e-10
-2.60812e-11
5.69856e-12
1.74314e-15
-1.11649e-11
-1.7706e-11
4.18096e-11
-7.24526e-12
2.77663e-11
1.09811e-11
4.31887e-12
-1.14145e-11
2.03075e-11
1.20588e-10
5.65707e-12
1.94985e-12
1.70714e-12
-8.63096e-11
-8.44063e-11
-4.47941e-11
2.1532e-10
3.24751e-11
-2.12823e-11
-9.78586e-11
-9.41621e-11
4.19638e-11
-8.54902e-11
1.13287e-10
-4.94668e-11
7.01794e-11
1.32152e-10
-1.5633e-10
2.00455e-10
-4.07922e-10
-6.69272e-10
-7.30622e-12
-1.52936e-10
1.26918e-10
-3.66032e-10
-2.25506e-10
-5.84991e-10
-7.1171e-10
4.60801e-10
-8.00782e-12
-1.06181e-09
-5.88009e-10
-2.90124e-11
2.86286e-11
-2.59807e-14
1.21091e-13
1.79038e-10
-1.15126e-10
1.07557e-10
7.50101e-13
-2.11673e-12
1.30451e-13
7.77439e-13
2.26902e-14
-8.85087e-13
-9.63373e-13
-2.83555e-13
1.98637e-12
-2.38823e-14
-8.11099e-13
-1.28128e-12
1.31806e-12
1.86136e-14
2.58805e-13
-2.35045e-12
-9.79923e-13
1.88083e-12
9.00351e-13
-1.67284e-14
-6.96598e-13
-9.16278e-14
-1.88503e-12
-2.30932e-13
-1.64945e-12
-2.89656e-14
1.38683e-12
2.81145e-13
-2.30692e-12
6.12847e-13
-4.50968e-12
2.07092e-13
3.26495e-13
-2.14537e-13
2.68549e-13
5.90857e-13
-4.41453e-13
4.34522e-13
-1.69894e-12