/*--------------------------------*- C++ -*----------------------------------*\
| =========                 |                                                 |
| \\      /  F ield         | OpenFOAM: The Open Source CFD Toolbox           |
|  \\    /   O peration     | Version:  v2012                                 |
|   \\  /    A nd           | Website:  www.openfoam.com                      |
|    \\/     M anipulation  |                                                 |
\*---------------------------------------------------------------------------*/
FoamFile
{
    version     2.0;
    format      ascii;
    class       surfaceScalarField;
    location    "0.2";
    object      phi;
}
// * * * * * * * * * * * * * * * * * * * * * * * * * * * * * * * * * * * * * //

dimensions      [0 3 -1 0 0 0 0];
oriented        oriented;


internalField   nonuniform List<scalar> 
13152
(
1.6538e-06
3.38183e-05
-2.75257e-06
-3.27195e-05
3.12107e-05
-2.85232e-05
-1.03367e-06
-5.78986e-06
7.08189e-05
-5.7715e-05
5.90354e-05
-4.07295e-06
3.53579e-05
-0.000125792
4.7536e-05
-4.07013e-05
0.000100781
-2.68641e-05
-4.92664e-05
-4.73904e-05
0.000123521
6.29986e-07
-2.79871e-05
4.93035e-07
-4.98603e-05
1.2239e-06
1.30739e-05
8.5904e-06
-4.96514e-05
1.30253e-05
5.4165e-07
-8.4677e-06
-2.58974e-05
-4.97376e-05
-1.44251e-05
-2.44066e-05
-8.55436e-06
4.73861e-05
-1.1586e-07
-1.44548e-05
1.4555e-07
-2.36169e-05
-9.0558e-07
9.44492e-06
-5.09493e-05
2.70496e-05
-4.88638e-05
4.97543e-05
4.89546e-05
-8.14697e-07
5.96012e-08
-2.54154e-05
-4.9855e-05
1.77024e-07
-0.000124922
5.52958e-07
2.66422e-05
5.02883e-05
1.90262e-08
0.000124317
5.96795e-05
2.1199e-05
4.22818e-05
-0.00012316
6.21531e-07
-1.19243e-06
6.02504e-05
2.07869e-05
3.88042e-07
-3.13e-05
0.000122906
0.000129732
4.87574e-05
-1.18088e-06
-4.90565e-05
1.4799e-06
-2.74209e-05
-4.49315e-05
0.00012111
2.94732e-07
-2.88965e-05
-1.3465e-05
1.33629e-05
3.96869e-07
8.82982e-06
-5.11913e-05
-8.29731e-06
-2.32713e-05
-4.8524e-05
-2.30673e-05
1.92891e-07
4.86471e-05
3.16073e-07
2.63797e-05
8.74057e-08
-6.39307e-06
-2.0074e-05
-1.31675e-05
2.37945e-06
3.71677e-05
-1.06318e-05
-2.44827e-06
-2.1414e-05
-1.44911e-05
3.82846e-05
-3.04177e-06
-2.47653e-05
2.95522e-06
-3.0373e-06
-1.05497e-05
2.23387e-06
-1.72693e-06
-5.47332e-06
-6.78396e-06
-1.15524e-05
-3.05781e-06
2.76964e-05
-9.28384e-06
-1.53548e-05
4.32664e-05
-1.42594e-05
-3.20648e-05
-3.1451e-05
-4.7e-05
9.85862e-06
6.3984e-06
-3.05165e-05
1.73744e-06
-1.16266e-06
-3.27706e-05
3.05706e-06
-7.33723e-05
-9.06636e-06
-1.77309e-05
-3.27422e-06
3.00715e-05
-2.58658e-06
-9.66984e-06
3.19007e-06
-1.745e-05
-2.86752e-06
2.76225e-05
2.65649e-05
-7.16374e-05
3.51786e-05
-1.04237e-05
-1.40409e-05
4.59453e-05
2.85416e-06
1.61233e-05
2.24222e-05
2.79955e-05
-6.6541e-05
4.07682e-06
2.49613e-05
-1.29148e-05
2.28554e-05
3.64361e-06
8.15776e-06
2.95223e-05
-1.27188e-05
2.47448e-05
1.14084e-05
-1.75653e-05
6.9943e-05
1.08231e-05
-5.72138e-06
-1.28257e-05
7.5159e-06
1.10312e-05
-8.27051e-06
7.97653e-06
-5.4274e-06
-7.86307e-07
-2.031e-05
-6.63348e-06
-1.68241e-05
3.14341e-05
7.07369e-06
-6.19128e-06
3.82972e-06
2.45765e-06
-3.33043e-05
6.16895e-07
-1.42078e-05
3.51939e-06
1.00715e-05
-1.8612e-05
1.80465e-05
1.18246e-06
2.69354e-05
-5.97553e-05
2.3086e-06
-2.09535e-05
2.21643e-05
-8.49211e-06
2.08722e-05
1.21958e-05
-2.64145e-06
1.81777e-05
4.5217e-05
2.03083e-05
-1.15094e-05
-5.40158e-05
-1.68524e-05
1.38086e-05
4.82608e-05
1.90921e-05
-1.56362e-05
-3.80425e-05
2.33938e-06
5.47952e-05
-1.94866e-05
-3.41921e-05
-3.71692e-05
5.33171e-05
-6.81652e-05
-2.27944e-05
-4.66458e-05
-5.41914e-07
6.99822e-05
-1.25907e-05
1.66729e-05
-2.68766e-05
-2.99123e-05
-2.93243e-05
-5.83975e-05
2.24127e-05
5.26578e-05
-1.22817e-06
-8.4046e-05
5.19652e-05
-8.31057e-05
7.38359e-05
6.96165e-06
1.42198e-06
-8.58569e-06
2.02065e-07
-1.38422e-05
-3.38715e-06
2.4191e-05
3.24665e-06
-1.56668e-05
-5.87217e-06
-2.31324e-05
2.56174e-05
-2.73958e-05
1.29379e-05
-3.09015e-05
1.10158e-05
-7.39642e-05
1.01828e-05
8.10179e-06
1.48218e-05
-3.31063e-05
-1.14393e-07
1.53389e-06
8.76326e-06
2.04205e-06
5.94534e-06
8.21133e-06
8.14436e-06
3.29638e-06
6.957e-06
1.8005e-05
-4.50408e-05
4.45914e-05
1.04667e-06
-5.97318e-07
6.81933e-05
4.01757e-05
6.32474e-05
7.83822e-06
0.000104946
3.99368e-06
1.46627e-05
2.15194e-05
2.22469e-05
4.49942e-05
-1.46858e-05
4.47709e-05
1.02354e-06
4.24357e-05
-6.88744e-07
-4.11467e-05
-6.0021e-07
-4.06438e-05
-4.56634e-05
0.000128743
-1.39667e-06
-3.99359e-05
-4.19847e-05
4.40168e-05
-3.42874e-06
4.36388e-05
-0.000125559
-1.84844e-06
2.01878e-07
6.43657e-07
-1.34586e-05
-0.000234131
8.41408e-05
0.000163449
-0.000150139
5.48609e-05
8.18197e-05
0.000173412
0.000258362
5.47262e-05
2.69069e-06
-2.55599e-06
-2.3742e-05
0.000162609
0.000170382
5.72005e-06
0.000405003
3.92671e-05
5.35778e-05
-4.1362e-05
-5.14829e-05
5.28498e-05
-0.000128406
0.000114823
-6.48097e-05
0.000171237
-2.84199e-05
0.000103307
-0.000116249
6.51437e-05
-0.000145046
0.000110167
-0.00017343
0.000148664
-1.47548e-05
-6.15157e-06
-5.03777e-05
7.12841e-05
3.95408e-05
-4.53815e-05
-8.91415e-06
-7.63306e-05
0.00010972
3.13219e-05
4.64819e-05
-0.000123185
4.68591e-05
-2.44513e-05
4.6154e-05
-7.56255e-05
4.22582e-05
2.19287e-05
5.39251e-05
-5.31941e-06
-7.05344e-05
2.85732e-05
-3.25207e-05
2.58763e-05
1.25059e-05
6.99923e-05
7.95332e-05
-2.02078e-05
-9.18461e-05
1.54064e-05
9.00031e-05
-5.65744e-05
8.44867e-05
-8.21016e-05
-4.02645e-05
-3.30535e-05
2.81228e-06
7.05058e-05
1.01734e-05
-3.02301e-05
-2.02078e-05
-3.75608e-05
1.46807e-05
-1.69194e-05
-4.64027e-06
2.43719e-05
-7.33424e-07
-4.6416e-05
8.74317e-05
-3.22316e-05
-9.27609e-05
3.99272e-05
6.21852e-05
2.37697e-05
-5.67348e-05
5.90567e-05
1.0422e-07
2.23499e-07
-2.50495e-06
2.17723e-06
1.10652e-05
1.39324e-05
-2.48933e-05
8.4967e-06
2.79195e-06
6.00602e-06
-2.87188e-05
-1.92124e-05
2.73956e-05
-1.50153e-05
9.73523e-06
-3.52374e-05
-4.30984e-05
-2.53472e-06
4.24119e-05
3.22123e-06
2.15138e-05
3.56016e-05
-0.000100214
2.62173e-05
-7.23819e-06
-2.89943e-05
3.36655e-05
3.77407e-05
3.04469e-05
-2.38396e-05
-0.000108102
-1.05019e-05
0.000144822
-6.4309e-05
-5.10316e-05
0.000106964
-0.000140826
0.000130127
-8.14385e-05
1.6685e-05
0.000115512
-5.07585e-05
8.37291e-05
4.88561e-05
-0.000214024
1.27752e-05
8.76389e-05
-2.35349e-05
3.71796e-05
0.000101867
3.68733e-05
-1.15521e-05
9.95423e-05
-0.000113517
2.67496e-05
-4.16498e-05
0.000228831
-2.6268e-05
2.17978e-05
-0.000102911
-1.8621e-05
-9.48326e-05
5.51956e-05
5.82581e-05
-6.59272e-05
-2.25533e-05
6.98594e-05
2.89519e-05
-0.000189712
0.000103849
-5.77272e-05
-6.86754e-05
-4.03151e-05
4.37207e-05
-7.24961e-05
5.86012e-05
-1.32885e-05
-5.79192e-05
9.43753e-06
6.17702e-05
-3.76394e-05
6.71525e-05
-4.28016e-05
7.73302e-05
-0.000172889
5.22009e-05
-6.74949e-05
2.47316e-05
-8.06297e-05
0.000194601
2.48337e-05
-3.83109e-05
3.46689e-05
-4.58502e-05
2.0535e-06
5.33808e-05
-9.58417e-06
7.09057e-05
1.34757e-05
-0.000130232
6.49456e-05
8.01359e-06
-9.9523e-05
-1.9985e-05
-6.70314e-05
-4.20758e-05
0.000101677
-0.000155233
0.000146638
0.000139604
0.000134789
0.000134504
-0.000408897
-3.1205e-06
0.000131442
1.12825e-05
0.000135157
-3.48805e-06
-0.000146328
-0.000127809
0.000409294
-0.000136972
-1.28442e-05
8.42428e-06
-1.08922e-05
1.2057e-05
-4.06125e-05
2.74726e-05
4.85734e-05
-3.54335e-05
8.75666e-05
-1.23573e-05
-0.000115822
3.82169e-05
7.68223e-05
-0.000109023
1.51123e-05
0.000142484
-1.85948e-05
-0.000125862
8.47122e-05
-0.000115664
0.000138041
1.80978e-05
4.24481e-05
7.00144e-05
-0.00013056
5.09007e-05
0.000109681
5.54114e-05
3.79375e-05
-7.79812e-05
7.19583e-05
0.000115704
0.000109275
-0.000117242
-2.66008e-06
0.000167347
0.000107236
6.70307e-05
-2.30795e-05
-6.54419e-05
2.14907e-05
-0.00011633
-6.59372e-06
0.000189954
-6.07398e-05
-7.86694e-05
0.000122416
1.79548e-06
-0.000189653
7.5231e-05
-0.00012824
0.000196877
-0.000187184
1.49298e-05
5.7813e-05
-2.32174e-05
-4.95255e-05
4.61532e-05
1.40985e-05
-4.53219e-05
-1.62345e-05
0.000120201
-7.07769e-05
3.04118e-05
5.44637e-05
-8.37138e-07
-0.000115262
-4.13064e-05
5.54837e-05
-6.53609e-05
1.68352e-05
2.31634e-06
-1.95774e-05
4.25873e-07
-2.73027e-06
-5.32781e-06
-1.03383e-05
9.92438e-06
3.35896e-05
-3.02533e-06
-5.01417e-05
2.19266e-05
1.20889e-05
5.25792e-06
2.62323e-06
-1.09065e-05
5.57048e-06
2.1614e-05
-2.10907e-06
2.35174e-06
-9.82415e-06
-2.1202e-05
1.89941e-05
-1.5443e-05
1.76509e-05
5.69355e-05
-8.14518e-06
2.53864e-05
5.05432e-05
4.21486e-06
7.73778e-06
4.91476e-06
1.6951e-05
3.20714e-05
-3.24788e-05
6.23726e-05
3.64296e-05
-2.50932e-05
-3.66992e-05
2.53628e-05
-8.81599e-05
3.00447e-06
0.000121585
-4.47527e-05
-6.85003e-05
7.32646e-05
3.19359e-06
-0.000113157
3.03155e-05
6.83119e-05
-7.75034e-05
0.000110823
-0.000119063
-6.95405e-06
1.29934e-06
5.23211e-06
4.226e-07
9.67747e-06
5.37163e-07
-1.71687e-05
4.14649e-06
6.83032e-06
-3.78579e-06
7.39213e-06
1.62576e-06
8.10397e-06
-1.13526e-05
2.35287e-06
-1.90106e-05
2.08043e-05
-1.05005e-05
1.96837e-05
3.7756e-06
-1.46823e-05
6.67193e-07
-2.37924e-06
1.50181e-06
2.8571e-06
-1.97967e-06
6.04037e-06
-2.89621e-07
-8.12999e-06
-2.89861e-07
7.83204e-06
3.84051e-06
7.20574e-06
-1.13359e-05
1.386e-05
-7.16238e-06
1.95905e-05
-1.26746e-05
4.12825e-05
-4.94785e-05
-1.54169e-05
-2.41225e-05
8.90179e-05
-1.74667e-06
-2.45076e-05
-2.32242e-05
-1.47726e-05
-2.39105e-06
1.66199e-05
4.12808e-06
-3.55205e-05
9.23926e-06
4.98953e-06
6.59197e-05
-1.95343e-05
-7.0893e-05
-3.50223e-05
7.68195e-05
1.05202e-05
-2.59265e-05
-1.52628e-05
5.43991e-06
6.17184e-06
-1.97417e-05
-3.70214e-06
-8.86618e-06
-1.45562e-07
1.91504e-05
-1.57875e-05
-3.21739e-06
1.33727e-05
-1.23916e-05
-1.1267e-06
-2.03086e-05
5.28317e-05
4.73078e-06
1.29746e-06
-1.84198e-05
5.205e-06
-1.60091e-06
-3.45446e-06
-1.16491e-05
-1.79445e-05
4.66021e-05
1.71084e-05
-1.30506e-05
-5.06599e-05
-1.62768e-05
8.75754e-06
5.41214e-05
-1.46433e-05
1.54749e-05
-3.16934e-05
-3.53705e-06
4.3988e-05
6.53229e-06
-5.12763e-05
2.84847e-05
-3.65956e-05
4.04225e-05
7.28784e-05
-2.76146e-08
-7.24477e-05
-4.03099e-07
-4.58868e-05
-2.58756e-05
0.000144641
-3.70929e-05
-8.82155e-06
1.69031e-05
-2.11119e-05
-6.82388e-05
-2.21204e-05
1.31479e-05
3.82302e-05
2.59264e-05
-0.00010125
4.41877e-05
-1.4779e-05
-3.76276e-09
2.2071e-05
4.81068e-06
1.67627e-05
1.57702e-05
-1.60904e-05
-1.64425e-05
-8.96484e-06
-2.34114e-05
4.91389e-05
-3.98873e-05
4.66928e-05
-8.08297e-06
3.77071e-05
-4.57146e-05
2.15471e-05
-4.60726e-05
-3.15273e-05
4.58231e-05
-4.98676e-05
-1.41809e-05
-4.14262e-05
1.32997e-05
4.23075e-05
-1.93661e-05
1.9977e-05
-1.47918e-05
-3.18661e-06
-5.76058e-05
-4.14651e-05
1.40757e-06
6.00345e-05
-1.21333e-05
-4.41236e-05
2.96852e-05
-4.50052e-05
4.43924e-05
1.54271e-05
1.22129e-05
2.95724e-05
-5.72125e-05
-1.21369e-05
1.07077e-05
1.68564e-05
4.23835e-05
1.18917e-05
-3.66604e-05
3.54763e-05
-4.11301e-05
6.98781e-05
-2.68034e-05
-3.87792e-05
2.89223e-05
-2.90827e-05
-3.88508e-05
-4.24195e-05
5.57204e-05
-5.16264e-05
-7.2532e-06
1.32417e-05
2.70736e-05
-3.30621e-05
1.84659e-05
1.83741e-05
-4.40933e-05
2.11756e-05
1.05321e-05
-2.07189e-06
1.04145e-05
1.8731e-05
8.97598e-06
7.32628e-06
-1.52069e-05
-1.75572e-05
5.39396e-05
-2.28888e-05
1.8214e-05
2.84733e-06
-1.67601e-05
-4.29534e-06
4.75709e-06
-6.18457e-07
-5.79516e-06
1.65653e-06
-6.85453e-06
-3.46184e-06
1.50735e-05
1.32915e-06
-8.80214e-06
-6.36521e-06
-2.06918e-05
2.35952e-05
-2.46813e-05
1.25209e-05
-2.65725e-05
7.20986e-06
-6.0056e-05
-4.86038e-06
-7.30488e-06
1.3791e-05
-2.47044e-06
-6.6736e-06
4.28366e-06
-9.35272e-06
1.45263e-05
-4.10477e-05
-3.49993e-06
-2.84733e-05
-7.99808e-06
2.17892e-05
9.77847e-06
-4.17517e-05
6.06404e-06
2.05223e-05
-1.58385e-05
-1.76011e-05
-2.01673e-05
5.36068e-05
-8.51809e-06
-4.359e-05
3.62697e-05
-2.03185e-05
-5.80064e-06
2.62887e-05
1.89802e-05
-6.55874e-05
3.94569e-05
-1.89689e-05
4.23999e-05
-6.70097e-05
6.16895e-05
-1.08338e-05
-2.17716e-05
-2.8448e-05
6.10534e-05
-1.91257e-05
-5.0723e-05
5.90149e-05
-2.51529e-05
-1.57444e-05
2.1985e-05
3.23729e-05
-7.95108e-05
5.29814e-05
-4.67408e-05
4.24476e-05
-6.07977e-05
6.69811e-05
1.724e-06
-1.23905e-05
3.42298e-05
-2.35633e-05
-1.34027e-05
1.39818e-05
1.14495e-06
1.14749e-05
-3.72682e-05
-6.20652e-06
-1.55576e-05
3.57459e-05
-1.63551e-05
1.12935e-05
-2.07013e-07
-1.1716e-05
-3.63467e-06
-7.86576e-06
-8.69632e-06
1.36502e-06
2.24417e-06
2.38789e-05
-1.25405e-06
1.44386e-05
3.12901e-05
-4.44746e-05
2.33922e-05
4.52106e-05
-6.98568e-05
1.39128e-05
2.3918e-05
2.61996e-06
-3.20114e-05
4.33042e-05
-4.90234e-05
7.55613e-05
-3.17802e-05
4.49794e-05
-4.95135e-05
1.89826e-05
1.45568e-05
1.40779e-05
-4.76172e-05
-8.99107e-06
8.07258e-06
1.99011e-05
3.51082e-05
-2.95425e-05
1.34756e-05
-2.22576e-05
1.68546e-05
-1.9576e-05
5.29527e-05
3.29347e-06
-9.86212e-06
-1.5689e-05
-1.33065e-05
-2.97605e-06
-3.68371e-06
2.54854e-05
5.32049e-07
4.998e-05
1.37969e-07
-4.94621e-05
-6.55871e-07
-4.89338e-05
-4.89011e-05
0.000147815
-5.00263e-05
1.23044e-06
4.38515e-05
4.94975e-05
-0.000142811
4.61475e-05
-2.95182e-06
3.70622e-06
-6.4599e-06
3.17744e-06
3.38185e-07
-5.28495e-05
-6.05691e-07
5.3117e-05
-5.30484e-05
5.25126e-05
8.73978e-07
5.1891e-05
-0.000157789
5.4262e-05
-5.27838e-05
-2.08387e-06
-5.24226e-05
0.000159802
-1.14324e-06
1.23322e-06
-2.03603e-06
2.81354e-05
3.71728e-05
-3.87996e-05
-2.65086e-05
2.0531e-05
-6.87048e-05
7.63091e-05
-4.18143e-05
9.95181e-05
3.87709e-05
3.78147e-05
-0.000115385
8.26791e-05
-7.04169e-05
6.54349e-05
-9.63249e-05
0.0001063
9.17162e-05
4.19392e-05
-4.81492e-06
-0.00012884
-3.5909e-05
2.82226e-05
9.94025e-05
-2.97825e-05
3.58127e-05
-6.98459e-05
-7.59247e-06
0.000105661
3.23013e-05
-0.000106962
7.17052e-05
-6.91865e-05
9.99254e-05
1.23131e-05
2.1686e-05
-1.03834e-05
-2.36157e-05
2.43054e-05
-5.53147e-05
4.33224e-05
-2.34157e-05
6.94071e-05
-3.90736e-05
2.39241e-05
4.7661e-06
1.9302e-05
-8.19912e-05
4.8651e-05
-8.46637e-05
4.91596e-05
3.61489e-05
1.52619e-05
-2.94032e-05
-2.20076e-05
-3.95909e-05
-3.48624e-05
0.000110602
2.25891e-05
-4.69182e-05
1.95181e-05
-8.45829e-06
-4.0463e-05
-3.07235e-05
1.53793e-05
-0.000108693
0.000119028
1.22549e-05
1.25608e-06
-0.000156868
-2.50185e-05
0.000113323
-3.22207e-05
0.000154346
-3.85844e-05
-0.000191048
7.52862e-05
-0.000149849
-9.92911e-05
0.000403487
-3.22889e-05
-0.000156145
-0.00022638
0.000280279
-8.61886e-05
9.22563e-05
-0.000474781
-0.000267354
0.000448342
-0.000366145
-0.000100103
4.23279e-06
3.16244e-06
9.27073e-05
0.000233657
0.000217849
-0.000551609
0.000200156
3.77341e-05
5.65136e-05
-5.969e-05
6.33889e-06
-3.43735e-05
0.000183595
4.92779e-05
0.000108881
0.00021506
4.08392e-05
0.000192239
-2.49258e-05
-0.000208153
0.000132378
-0.000208718
0.000117179
-0.000215679
0.000540297
-0.000184203
0.000197012
0.000248507
-0.000640863
-4.82214e-05
8.80103e-05
-6.68887e-05
6.8939e-06
-7.06354e-05
3.4516e-06
6.02899e-05
-0.000152481
0.000122206
3.7168e-05
0.000133596
-0.000356712
3.17651e-05
-3.41966e-05
5.88315e-06
-2.07935e-05
0.000112848
-3.11117e-05
0.000132525
6.8288e-05
4.91989e-05
0.000101028
3.51232e-05
-0.00018535
5.85074e-06
4.21255e-05
1.22268e-06
8.95774e-05
1.73012e-05
2.70268e-05
0.000164481
-0.000156384
0.000137193
-6.80405e-05
-0.000129942
5.18399e-05
-5.81416e-05
-0.000111587
0.000282577
1.60295e-05
3.69676e-05
-9.36579e-06
-0.000185453
3.84342e-05
-7.61836e-05
-0.000446986
-4.72222e-05
-4.92307e-05
-4.12742e-06
0.00010058
1.28218e-05
-3.30903e-05
-2.69537e-05
1.30202e-05
-4.94291e-05
5.5164e-05
-4.12832e-05
-4.69711e-05
-6.4536e-05
0.000115573
-0.000114859
6.33437e-05
-0.000205572
-8.59768e-06
5.39168e-05
-5.89884e-05
1.36692e-05
3.29185e-05
-2.33168e-05
-1.81994e-05
-2.10596e-05
0.000107895
0.000118699
6.90973e-05
-0.000246785
6.33625e-05
6.90061e-05
4.66824e-06
4.11122e-05
8.63906e-05
-7.11872e-05
-3.34027e-05
-5.70286e-05
-4.81588e-05
-2.28167e-05
4.59162e-05
2.50593e-05
3.46464e-05
9.77299e-05
-0.000180535
9.65851e-05
-8.47553e-05
-7.25854e-06
-1.53142e-05
6.84889e-05
-1.66813e-05
3.4482e-05
8.07601e-07
-3.96585e-05
2.35367e-05
-5.18965e-05
3.60228e-05
1.70158e-05
2.88176e-05
7.39424e-05
-0.00010937
-8.20291e-05
-4.73133e-05
2.63827e-05
-0.000112216
-7.09194e-06
-4.85545e-05
-8.39782e-05
7.11469e-05
-5.50473e-05
-5.02277e-05
2.67435e-05
-2.50703e-05
0.000122726
-0.000144136
9.44218e-05
-1.01673e-05
3.81112e-05
-7.58344e-06
-2.03605e-05
8.18256e-05
-1.67835e-05
-7.52094e-05
-6.62142e-05
-2.86849e-05
-1.92577e-05
2.36668e-05
-1.19925e-05
3.90037e-05
-7.5045e-05
7.71487e-05
-0.000104359
7.21307e-05
-4.68219e-05
-3.16467e-05
4.9484e-05
2.89846e-05
2.29731e-05
5.32176e-05
-0.000123013
7.31263e-05
-8.17999e-05
-2.75121e-05
-6.01547e-05
0.000137151
-7.23809e-05
7.38533e-05
-7.09492e-06
-3.13014e-05
-2.17584e-05
-2.86672e-05
-5.08086e-05
6.25116e-06
1.82992e-05
4.80761e-05
3.05717e-05
4.2873e-05
5.45904e-05
-0.000128035
2.79836e-05
9.40756e-05
-9.14875e-05
4.53323e-05
2.55244e-05
-4.8034e-05
-5.1423e-05
0.000144789
-0.000100236
7.77259e-05
-9.30634e-05
0.000135716
-0.000138708
1.41773e-05
-5.12016e-05
-1.01003e-05
4.71246e-05
-7.98376e-05
4.21501e-05
5.18648e-05
1.37501e-05
5.04317e-05
-4.50291e-05
-1.55029e-05
-4.11134e-05
0.00013867
-2.66474e-05
2.76841e-05
-5.79265e-05
1.47192e-05
-6.55473e-06
4.60383e-05
-5.42028e-05
-3.68248e-05
3.89033e-05
1.26407e-05
6.5442e-05
-0.000108822
-2.90116e-05
-4.88922e-05
0.000116807
-3.83867e-05
2.20159e-05
-1.99357e-05
4.69911e-05
-2.27896e-05
8.44827e-06
-2.72074e-07
-6.54512e-06
-1.63108e-06
-2.7625e-05
3.8425e-05
-6.28302e-06
6.48312e-07
-1.80999e-05
-1.08069e-05
4.60089e-05
6.91242e-06
-4.72544e-05
-5.66688e-06
-4.8145e-05
-5.00209e-05
0.000144175
8.17209e-06
-4.94047e-05
-6.55307e-05
5.10953e-05
2.26075e-05
3.47312e-05
-0.000149667
-7.6026e-06
8.67698e-06
-2.01258e-05
9.26833e-05
-9.58004e-06
-0.000103594
2.04906e-05
-7.3565e-05
-4.3214e-05
0.000209462
-7.35024e-05
-9.64261e-06
0.000105353
3.81535e-05
-0.000217009
0.000114901
-1.91908e-05
-0.000135438
0.000207124
-0.000200878
0.000105297
-7.8079e-06
-0.000111862
1.43737e-05
-7.67857e-05
-4.59508e-05
0.000228033
-7.39282e-05
-1.06654e-05
0.000113849
4.28806e-05
-0.000230658
0.000139217
-3.60336e-05
-0.000156054
0.000249321
-0.000225036
-1.14524e-08
-8.60744e-06
7.26376e-06
1.35514e-06
-8.10796e-06
9.19844e-06
-1.10193e-06
7.30395e-06
-2.40194e-05
-1.51982e-05
-6.62082e-06
3.10175e-05
-6.64089e-06
-9.65927e-06
3.60017e-06
-2.93711e-06
4.24312e-06
-9.88602e-06
6.08981e-06
1.20274e-05
-8.23124e-06
1.96587e-05
-5.24039e-06
-2.43043e-05
1.20268e-05
1.37217e-05
-2.8352e-05
8.48037e-06
3.1899e-05
-1.00397e-05
-2.65435e-05
-6.85785e-06
-1.26723e-06
1.66054e-05
-1.1041e-06
-1.57934e-05
6.20394e-06
-1.25484e-05
1.69635e-05
1.15768e-05
-1.00377e-05
-2.63591e-05
2.482e-05
-1.31315e-05
-1.59739e-05
4.06822e-05
-1.09238e-05
-1.22455e-05
-2.55804e-05
-2.837e-05
3.79764e-05
-1.5032e-05
-3.69075e-05
-7.89083e-06
-3.14029e-05
-3.51683e-05
2.71929e-05
-5.32946e-06
-3.4361e-06
-1.84274e-05
-1.15283e-05
4.01941e-07
3.83193e-05
-4.06937e-06
-1.27884e-05
-5.75013e-06
-8.87772e-07
2.56853e-06
5.44526e-06
-2.39838e-05
-3.5789e-05
4.16362e-05
-4.01129e-05
-2.26587e-05
-2.48169e-05
-2.057e-05
6.80456e-05
-1.32135e-05
-3.48679e-05
2.54227e-05
-1.53283e-05
-2.27021e-05
-4.12205e-05
-4.17138e-05
6.23642e-05
-9.05632e-06
-6.70321e-05
-1.75255e-05
-3.95166e-05
-4.92839e-05
4.03819e-05
1.40896e-05
-2.23732e-05
-3.20984e-05
-1.98282e-05
-4.33754e-07
6.06438e-05
1.53188e-05
-2.10574e-05
-3.99458e-05
1.87063e-05
3.65584e-05
8.84649e-07
-6.18878e-05
4.47702e-05
-6.62587e-05
6.30427e-05
1.0317e-05
-2.83128e-05
-5.81596e-05
7.61555e-05
-4.67359e-05
-7.30833e-05
0.000130136
-4.19709e-05
-3.30779e-05
-4.38306e-05
-7.66538e-05
6.23248e-05
-4.58144e-05
-7.10995e-05
-8.66372e-06
-0.000109961
-8.7556e-05
-5.20869e-05
3.00379e-05
9.55251e-05
-7.3476e-05
4.75974e-05
5.76093e-05
-0.000157294
2.81944e-05
4.94408e-05
7.80627e-05
-6.38775e-05
1.40092e-05
-8.67685e-05
0.000214272
9.9754e-05
6.85913e-05
-0.000110736
5.90249e-05
0.000136254
-1.21615e-05
1.68753e-05
-3.9905e-05
-6.50551e-05
-3.95535e-05
-1.02387e-05
0.000114847
-1.07866e-06
-4.99673e-05
-3.96131e-05
-1.01906e-06
1.25268e-05
-6.97322e-06
-4.51667e-05
1.29936e-05
-1.48589e-06
1.61989e-05
1.934e-05
-4.25121e-05
4.92556e-05
-2.00632e-05
6.98636e-05
-0.000100491
0.000108881
-3.22478e-05
3.76193e-08
4.48084e-05
-1.25982e-05
1.52569e-05
3.2294e-05
-7.97987e-05
-1.76671e-06
1.70612e-05
1.85916e-05
-2.36316e-05
3.27329e-06
-1.00501e-05
4.57029e-05
1.58728e-05
4.66185e-05
-1.7683e-05
3.30809e-05
1.5086e-05
-3.81312e-05
7.46996e-05
-2.86819e-05
-1.57965e-05
-3.75564e-05
9.90558e-05
-1.43073e-05
1.78407e-06
1.39415e-05
2.6039e-06
-3.08527e-05
1.71636e-05
-1.43804e-06
1.08831e-05
-3.69611e-05
5.66444e-05
-2.85978e-05
9.37876e-05
-2.65246e-05
-8.91841e-06
2.43878e-05
1.10552e-05
2.99113e-05
2.03836e-05
-6.5139e-06
2.75068e-05
2.45227e-05
-1.06529e-05
-3.07341e-05
8.27636e-05
-1.69993e-05
1.08649e-05
9.28354e-06
5.81705e-06
-2.59655e-05
9.89783e-07
1.01262e-05
-2.51086e-07
-2.15223e-05
5.72205e-06
-5.12258e-05
1.80813e-05
1.97446e-05
1.83934e-05
-5.62194e-05
8.97288e-06
3.80307e-05
8.3174e-06
2.04001e-05
3.6031e-05
3.63021e-05
1.74968e-05
5.65649e-05
1.7896e-05
2.67235e-05
5.57929e-05
1.68442e-05
1.0022e-05
2.23487e-05
-5.75559e-06
-4.28224e-05
-2.18545e-05
-6.30583e-05
-1.00601e-05
-3.18994e-06
1.28026e-05
-8.33177e-06
-8.43297e-07
-1.61555e-05
-3.46276e-05
-1.10606e-05
-2.23254e-05
3.25427e-05
-1.48087e-05
-1.24074e-05
2.26757e-05
-2.14835e-05
-3.58197e-05
-3.27118e-05
-5.41732e-06
-4.21032e-05
-3.93082e-05
-2.85445e-05
-5.92752e-06
1.77119e-05
1.51686e-05
-3.63868e-05
-9.07111e-06
1.83122e-05
4.22026e-05
-6.16199e-06
7.98929e-06
1.8977e-05
8.92001e-06
1.42968e-05
-2.93788e-05
6.58447e-06
1.03248e-05
1.46624e-06
-1.4667e-05
1.97852e-05
-2.45957e-05
1.56629e-05
-2.59618e-05
1.99729e-05
4.16432e-06
1.00131e-05
1.59611e-05
1.17985e-05
3.03241e-05
-2.24821e-06
-5.77697e-05
2.96937e-05
-2.19676e-05
-3.17765e-05
8.40682e-05
2.75123e-06
-2.69671e-05
-2.59365e-05
2.41634e-05
4.5244e-06
5.07951e-06
-5.79831e-05
-4.17526e-05
3.41395e-05
-9.44427e-05
-8.64589e-06
-2.17522e-05
4.84757e-06
2.55505e-05
1.08043e-06
-1.07077e-05
9.8136e-07
-2.65371e-05
5.86528e-06
-1.32868e-05
-1.34302e-05
3.15646e-05
-3.76392e-05
1.36448e-05
4.75257e-05
5.43563e-06
-7.94984e-05
3.53541e-05
1.80369e-05
5.2508e-05
-8.47116e-05
7.44319e-05
-1.20041e-05
-2.25013e-05
2.62198e-06
1.16853e-05
1.61118e-05
-8.61468e-06
-1.22341e-05
4.737e-06
-2.99159e-05
1.16375e-06
4.48639e-05
-7.06863e-06
-3.1462e-05
2.29903e-05
-6.26582e-05
2.74338e-05
-3.87603e-05
6.29144e-05
-3.14409e-05
3.09521e-05
-6.57988e-06
4.10967e-06
-6.70125e-05
5.48741e-05
-0.000113423
4.70659e-05
-1.45744e-05
-1.75186e-05
-5.46357e-06
3.75566e-05
-4.16178e-06
-1.1471e-05
1.05837e-06
-1.7156e-05
1.48674e-05
-4.47199e-05
1.83815e-05
4.35433e-05
3.78682e-05
-0.000113007
-0.000101294
-1.62818e-05
-3.08733e-05
3.15811e-06
1.58281e-05
1.49396e-05
1.74163e-07
-1.63991e-05
1.28534e-06
-2.79616e-05
-8.66274e-06
5.15638e-05
2.05685e-06
-2.98442e-05
1.18666e-05
-5.72903e-05
2.90247e-05
-5.20054e-05
5.52092e-05
-6.01901e-05
1.02416e-05
-0.000147325
-3.71841e-05
-1.31693e-05
-5.0941e-05
2.3799e-06
-7.20509e-05
3.24869e-05
-1.73693e-05
3.88752e-05
-0.000123257
8.04761e-05
-0.000155024
-2.30668e-05
3.1492e-05
-2.69419e-05
3.60598e-05
7.75294e-05
4.10914e-06
-0.000117698
2.17458e-05
-1.72722e-05
3.15863e-05
3.65054e-05
6.27697e-05
6.64456e-05
-5.1231e-05
-4.65509e-06
0.000102687
-7.77729e-05
0.000109623
-0.000124895
-5.00287e-05
-4.94391e-05
-3.83481e-05
0.000137816
-1.39425e-05
-8.76936e-05
5.16074e-05
-5.45773e-05
-8.80432e-06
7.09735e-05
3.87478e-05
-0.000164299
8.85029e-05
-2.63337e-05
9.3504e-05
-0.00014245
0.000143659
6.76876e-05
1.70688e-05
-2.41503e-05
-6.06061e-05
-2.3503e-05
5.7572e-06
8.54334e-05
-1.80831e-05
1.16489e-05
3.46357e-05
6.67113e-06
-6.54571e-05
-2.66801e-06
4.30609e-05
3.52068e-05
-4.66188e-05
4.41877e-05
8.37123e-06
2.97844e-05
-1.6076e-05
-2.20796e-05
1.92958e-05
-2.25639e-05
1.16393e-05
-5.31648e-06
5.43967e-05
3.99475e-05
7.57962e-06
-7.0091e-05
1.54621e-05
3.61247e-05
-1.91865e-05
2.93322e-05
-2.76829e-05
1.96425e-05
-5.71501e-06
-3.13595e-05
1.74321e-05
-1.54601e-05
-1.34892e-05
4.85918e-05
-1.56187e-05
-5.55643e-06
-3.77964e-05
-3.32153e-05
5.75225e-05
-1.28419e-05
-5.63141e-05
2.21621e-05
-5.06226e-05
-1.66097e-05
-1.37622e-05
-1.40488e-05
-7.79954e-06
3.56105e-05
4.34653e-06
-4.01727e-06
-1.40914e-05
-1.58569e-05
6.15465e-06
-1.86282e-05
2.15754e-05
-6.96448e-06
2.42059e-06
-3.51402e-05
-7.24249e-06
5.19014e-06
2.36278e-05
3.71282e-06
-8.53472e-06
5.66457e-06
-1.78087e-05
3.05518e-06
7.76394e-06
-6.88712e-06
-7.15976e-06
6.28294e-06
-8.78268e-08
-1.60334e-05
2.38852e-05
-1.34006e-05
6.42563e-06
2.55943e-05
-3.38435e-06
1.19189e-05
2.01011e-05
6.63532e-06
5.07292e-06
-1.50926e-05
2.19163e-06
1.63626e-05
-2.65499e-06
-8.30549e-06
-7.62312e-06
2.78575e-05
-8.67578e-06
-4.62366e-05
2.70548e-05
-3.74783e-05
-6.22603e-05
0.000127596
-3.38663e-05
-1.22878e-05
-2.40112e-05
-5.05708e-05
2.83454e-05
-4.2743e-05
-4.35284e-05
1.40146e-05
-9.84517e-05
-4.10162e-05
3.80876e-05
6.15473e-05
5.99267e-06
-0.000105628
-3.57924e-06
-1.44528e-06
4.31121e-05
5.82619e-05
-2.93795e-07
6.64086e-05
-3.84143e-05
-2.94397e-05
-1.28777e-05
0.000122398
-7.78011e-05
-0.000110223
-2.39608e-05
-3.15387e-05
-4.73042e-05
0.000102804
-2.68925e-05
-8.87015e-05
9.16333e-05
-3.06044e-05
-2.78269e-05
-7.03578e-05
-8.31475e-05
0.000106201
-5.69794e-05
-0.00010208
7.71225e-06
-9.52961e-05
-0.000103262
2.41898e-06
1.79695e-05
-7.71233e-05
2.94442e-06
-4.69415e-05
9.93096e-07
1.99208e-05
3.06102e-05
7.4903e-05
-2.15389e-05
3.8455e-05
2.74909e-05
-4.44071e-05
0.000117119
-6.03421e-05
-7.83156e-05
-1.82105e-05
0.000173784
-6.29428e-05
3.20754e-05
5.83584e-05
-1.15744e-05
-9.57754e-05
8.74692e-05
-0.000159386
0.000101334
-1.27203e-05
-8.06163e-05
1.56701e-05
7.76665e-05
-3.95775e-05
4.21518e-05
-1.52946e-05
-8.35603e-06
-0.000111838
-8.98021e-05
-1.67393e-05
0.000148693
-2.47637e-05
-8.03331e-05
6.03775e-05
-9.34972e-05
5.93082e-05
-0.000181105
-3.34458e-05
0.000119336
9.52153e-05
0.000133463
4.44815e-05
-0.00035905
0.000146202
-4.61852e-05
7.74549e-05
0.00012139
-0.000154364
0.00010793
8.88602e-05
-0.000205586
0.000459719
-0.000130381
-0.000125602
-7.56405e-06
-5.98083e-06
0.000139147
0.000235963
0.000262024
-0.000623589
0.000259377
-3.09779e-05
7.71486e-05
-7.87722e-05
-4.35724e-06
-4.61842e-05
0.00026248
4.48891e-05
0.000138363
0.000258082
-2.18124e-05
0.000216232
-0.000208138
1.37178e-05
0.000231055
-0.000203867
-4.90006e-05
-0.000203693
0.00065098
0.000214844
0.000163085
-0.000586066
0.000197583
2.53153e-05
-6.60968e-05
1.92056e-05
-0.00010596
-0.000293183
-0.000259809
0.000658953
1.09163e-06
6.26318e-06
-0.000113315
-0.000296448
4.35678e-06
-0.000154859
0.000159245
1.87759e-06
7.13015e-05
-0.000339476
0.000226843
-0.00045199
0.000271882
0.000114206
1.6429e-05
0.000225347
0.00010895
-0.000673772
0.00022916
-1.93608e-06
-0.0003304
0.000673767
-0.00030794
-2.43963e-05
0.000245546
1.49576e-05
1.3007e-05
-0.000273511
-0.000132848
-0.000173214
2.44066e-05
-0.000142297
-0.000373587
0.000348574
4.94202e-05
0.000153243
-0.000669127
-0.000204576
4.43688e-05
0.000538684
0.000682683
-1.84367e-05
0.000166608
9.67835e-05
5.27963e-05
-1.17324e-05
0.000114174
-0.000155238
-5.12495e-05
5.56168e-05
4.8429e-05
0.000118832
-0.000181814
3.13869e-05
-0.000172323
0.000196553
-8.34522e-05
0.000163268
-0.000107438
0.000142818
-0.000165586
1.13361e-05
-5.7112e-05
-0.000134759
-4.08702e-05
-7.97104e-05
0.000131917
-4.67472e-05
-5.1235e-05
2.19519e-05
9.82581e-05
-0.000166957
0.000138636
-0.000167919
-0.000103079
0.000162004
-0.00013958
-4.08386e-05
3.35404e-05
3.93344e-05
-3.20363e-05
9.93406e-05
-1.40732e-05
-0.000126106
2.18194e-05
0.000111062
-9.78902e-05
1.01559e-05
0.000127069
-3.93802e-05
-9.05462e-05
8.69199e-05
-0.000140373
0.000118895
-1.18812e-05
-2.04719e-05
-1.59436e-05
-0.00011146
3.40687e-05
3.23764e-05
4.89124e-05
-0.000115358
-2.36532e-05
2.71809e-05
3.0541e-05
8.37379e-05
-7.50147e-05
2.346e-05
-8.01868e-05
8.39077e-05
-4.39696e-05
9.79707e-05
-7.58719e-05
0.00011564
-0.000107146
-2.35e-05
2.61066e-05
-2.64267e-05
2.382e-05
6.42425e-05
-1.56118e-05
-1.1657e-05
-4.7222e-05
4.14311e-05
-8.34696e-05
-6.31108e-05
7.52739e-05
-6.89017e-05
3.05601e-05
2.04145e-06
1.88034e-05
-5.1405e-05
-5.04223e-05
4.16188e-06
-1.52576e-05
2.68931e-05
-2.6756e-05
-4.83086e-05
7.92265e-05
-1.51205e-05
-4.46257e-05
-8.92848e-06
1.23352e-05
2.4657e-06
-5.87243e-06
3.87428e-05
-2.06088e-06
-4.56104e-05
-2.41833e-05
6.04225e-06
-1.19521e-05
2.99636e-05
-1.55458e-05
4.17692e-05
-5.57822e-05
6.18214e-05
-4.42355e-05
9.78273e-05
-2.00682e-05
-1.08312e-05
9.87273e-06
2.10267e-05
2.58019e-05
7.31994e-06
-5.319e-05
-8.91647e-06
2.38871e-05
-1.34348e-06
2.34487e-05
-1.22325e-05
2.53306e-05
-1.93542e-05
4.45345e-05
-2.81204e-05
9.18704e-05
6.07586e-05
2.21892e-05
6.19213e-05
-0.000144869
-3.82072e-06
8.96551e-05
-2.50758e-05
1.87888e-05
-4.20293e-07
-4.59228e-05
-5.89836e-05
0.000123695
-7.64016e-05
3.00585e-05
0.000112179
8.96203e-05
-0.000139878
5.70899e-05
0.000144745
2.67276e-05
-2.86214e-05
3.99463e-05
-5.01417e-05
-5.91463e-05
-3.0586e-05
0.000139874
1.54999e-05
-1.66306e-05
-4.90111e-05
-6.70198e-05
2.33734e-05
-6.40112e-05
7.55631e-05
-2.81826e-05
2.56474e-05
8.99211e-05
-0.000131294
0.000134898
-6.82039e-05
-0.000117795
-1.18528e-06
-2.54561e-05
2.10642e-05
-6.3812e-05
-4.60216e-05
-9.72293e-05
-0.000122954
7.1522e-05
-2.00876e-06
-0.000184757
-0.000119316
-8.83297e-06
7.82547e-05
-7.38407e-05
4.41904e-06
0.000130068
-3.70334e-05
0.00023012
0.000124214
-0.000209607
2.57221e-05
0.000112932
4.32069e-06
-9.1531e-05
-6.55818e-05
-2.80923e-05
0.000206607
-1.62696e-06
-5.96342e-05
-9.33388e-05
9.04381e-05
1.27376e-06
2.52301e-05
-0.000178203
-0.0001283
0.000190646
8.57353e-05
-1.09335e-06
-8.14029e-05
-3.23907e-06
-0.000123187
-2.17359e-05
-0.000108648
-1.56325e-05
0.000106401
3.1146e-05
-0.00021895
0.000113604
-1.04419e-05
2.87517e-05
2.97427e-05
-2.73484e-05
3.19159e-05
0.00011044
-3.21575e-05
4.23375e-05
-0.000111063
2.49927e-05
7.6538e-06
-1.29173e-05
-1.97291e-05