/*--------------------------------*- C++ -*----------------------------------*\
| =========                 |                                                 |
| \\      /  F ield         | OpenFOAM: The Open Source CFD Toolbox           |
|  \\    /   O peration     | Version:  v2012                                 |
|   \\  /    A nd           | Website:  www.openfoam.com                      |
|    \\/     M anipulation  |                                                 |
\*---------------------------------------------------------------------------*/
FoamFile
{
    version     2.0;
    format      ascii;
    class       volVectorField;
    location    "0.2";
    object      U;
}
// * * * * * * * * * * * * * * * * * * * * * * * * * * * * * * * * * * * * * //

dimensions      [0 1 -1 0 0 0 0];


internalField   nonuniform List<vector> 
6576
(
(0.0562541 -2.46703 -0.110939)
(-0.154583 -2.56175 0.130242)
(-0.0551597 -2.61231 0.0204631)
(0.0733388 -2.4176 -0.104245)
(-0.00774207 -2.51069 0.00833445)
(-0.132124 -2.66145 0.129816)
(-0.0279061 -2.57689 0.051158)
(0.0259158 -2.49691 0.00411685)
(0.029124 -2.08434 -0.0164918)
(0.029644 -2.43048 0.00178406)
(-0.0196311 -2.52048 -0.0269712)
(-0.0284469 -2.58869 -0.0193377)
(-0.00334705 -2.58527 0.0103736)
(0.0126694 -2.47935 -0.00017861)
(0.101391 -2.4283 0.0379605)
(0.0132143 -3.039 -0.0554003)
(0.113661 -1.43548 0.0571164)
(0.0285322 -2.86614 -0.0274044)
(0.0934715 -2.60146 0.105429)
(0.0298055 -2.46771 0.00619908)
(0.0813237 -2.29147 0.0828438)
(0.00329052 -2.54951 0.0242487)
(0.0174579 -2.44625 0.0141621)
(-0.00838173 -2.50036 -0.0204509)
(0.00326315 -2.65976 0.0328442)
(0.0899249 -2.54592 0.0922203)
(0.10678 -2.48873 0.110125)
(0.000305653 -2.43056 0.0229248)
(-0.0100268 -2.6336 -0.0522018)
(0.0114435 -1.61703 -0.0139042)
(-0.0874407 -2.624 0.101317)
(-0.04525 -2.43067 -0.0159271)
(-0.0187549 -2.5911 -0.0012057)
(0.0209321 -2.43421 0.0506395)
(0.0273336 -2.4505 0.056244)
(-0.0318051 -2.10275 0.0161945)
(0.00301636 -2.73587 0.0209034)
(-0.023406 -2.61516 0.017115)
(0.0295359 -2.47224 0.0391686)
(0.017028 -2.46566 0.029361)
(0.00379408 -2.19772 0.0485614)
(-0.0283426 -2.46507 0.0100088)
(-0.00175092 -2.34978 0.00840765)
(0.298536 0.677232 0.384887)
(0.183462 0.696416 0.250783)
(-0.0817812 0.519084 -0.0205811)
(0.0127229 0.696608 0.212653)
(0.17798 0.661751 0.37837)
(-0.0893467 0.396119 0.0346556)
(-0.0483424 0.538084 -0.0587037)
(-0.165938 0.596347 -0.0535981)
(-0.0773674 0.465976 0.0788723)
(-0.00629506 1.42465 -0.122707)
(-0.00745446 1.3967 -0.103639)
(-0.00643175 1.40967 -0.082993)
(-0.00149485 1.35515 -0.0739772)
(-0.00426056 1.35568 -0.0858018)
(-0.0240743 1.39844 -0.0446657)
(-0.00672591 1.39222 -0.0520827)
(-0.0159235 1.41458 -0.180501)
(-0.0429691 1.38005 -0.0999505)
(0.0132088 1.42064 -0.229441)
(0.00302035 1.35366 -0.161639)
(0.00265121 1.38376 -0.197806)
(-0.0122439 1.39101 -0.153384)
(-0.0280149 1.36706 -0.0979268)
(0.000700306 1.25805 -0.210704)
(-0.0185365 1.25339 -0.231101)
(0.0054952 1.27895 -0.23723)
(-0.0093104 1.31062 -0.233762)
(0.00473939 1.27586 -0.219157)
(0.00466627 1.31324 -0.230699)
(0.00356523 1.30521 -0.206475)
(-0.442869 -0.339099 0.1934)
(-0.561058 -0.153918 -0.0201863)
(0.246718 -0.842477 0.354181)
(-0.808188 -0.353381 0.496231)
(-0.468967 0.0323818 -0.288005)
(-0.352985 0.223357 -0.0542468)
(0.229407 -0.221508 0.621095)
(0.00906693 0.137278 -0.610203)
(-0.142329 0.15748 -0.949584)
(-0.121011 0.115675 -1.12307)
(0.153321 0.387276 -0.868107)
(-0.105517 0.337713 -0.451591)
(-0.611482 0.719236 -0.237719)
(-0.152427 0.379968 -1.0618)
(0.105182 1.0626 0.977913)
(0.0228135 1.05685 0.92278)
(0.00445877 1.13431 0.972511)
(0.0137052 1.05067 0.734151)
(0.121421 1.02242 0.592604)
(0.0229674 1.01982 0.577305)
(0.505494 1.34837 0.826262)
(0.0358618 0.62035 1.31302)
(-0.00612793 0.852998 1.30274)
(0.0585456 0.547664 1.44814)
(0.0113026 0.972531 1.42082)
(0.0326566 0.967299 1.5282)
(0.0407896 0.657516 1.47029)
(0.040527 0.768769 1.40407)
(0.102947 -0.0848731 1.46006)
(0.0144692 0.121544 1.17738)
(-0.00849739 0.289831 1.06658)
(0.0122066 0.179076 1.25891)
(0.0408212 0.0437311 1.48423)
(0.0386448 0.237698 1.2157)
(0.0479232 0.0938159 1.30428)
(-0.0433583 0.0932176 0.570252)
(-0.0009154 0.1285 0.446969)
(0.0757333 -0.0316194 0.376352)
(-0.0898173 0.231714 0.690545)
(0.0643597 0.0511566 0.403932)
(0.129221 0.00492457 0.363005)
(0.0332144 -1.8628 0.014656)
(0.00113647 -2.03443 0.00814317)
(0.0321641 -2.01309 0.00854302)
(-0.0190252 -2.07514 0.00552055)
(-0.0205349 -2.09778 0.0280501)
(0.00786454 -2.09621 0.00758491)
(0.0142656 -2.07446 0.0232074)
(-0.0290814 -2.35928 -0.0359043)
(0.0759191 -2.478 0.0372825)
(-0.0215813 -2.32977 -0.0488128)
(0.0202367 -2.50558 -0.0519968)
(-0.104306 -2.48542 -0.0914284)
(0.116997 -2.63533 0.0957401)
(-0.0985536 -2.50009 -0.0337562)
(0.0289919 -7.78852 -0.0397414)
(0.00985473 -7.6297 -0.0371143)
(0.0160367 -7.59099 -0.0223179)
(0.0310274 -7.54813 -0.0415502)
(0.0512873 -7.73227 -0.0816533)
(0.0122012 -7.15944 -0.0385549)
(0.0164745 -7.54454 -0.0417887)
(0.0469081 2.90159 2.29943)
(-0.0673047 3.59654 2.15874)
(0.070818 3.29592 2.11806)
(0.033844 2.01655 2.20028)
(-4.2105e-05 2.81222 2.13064)
(-0.08401 3.2927 2.05223)
(0.0775615 2.87826 2.01195)
(0.298161 1.71799 1.80865)
(0.140939 0.612555 2.23333)
(-0.159684 1.48074 2.0587)
(0.318711 -0.0440888 2.28298)
(-0.0323795 0.390591 2.01837)
(-0.162204 1.38994 2.16312)
(0.398469 1.30953 1.93273)
(-0.116496 0.956 1.41867)
(0.0122931 1.76188 1.33561)
(-0.0450696 1.39416 1.28963)
(0.145467 1.74694 1.8723)
(0.16136 1.91004 1.68859)
(-0.0684659 1.58736 1.58038)
(-0.156908 1.35675 1.70377)
(0.121555 -0.132928 1.38406)
(0.187663 -0.512042 1.00362)
(-0.00465351 -0.252245 2.00639)
(0.112407 -0.69177 1.45086)
(0.124066 -1.04068 1.29322)
(-0.0448652 -1.69804 1.76541)
(-0.0120404 -1.15 1.9548)
(-0.0224805 -1.6512 1.56868)
(-0.0269495 -1.33882 1.74015)
(0.0782565 0.110962 0.310196)
(-0.245885 -0.362956 0.100418)
(-0.113517 -0.238698 -0.0848382)
(0.217281 -0.26103 0.722575)
(0.385365 -0.65753 0.475562)
(0.143876 -0.640787 0.198965)
(0.103474 -0.538943 0.520076)
(0.156173 -1.47199 -0.0572448)
(-0.00515803 -1.92007 0.105321)
(0.00224889 -1.79515 0.621791)
(-0.325044 -2.01391 0.729537)
(-0.764385 -2.88077 1.23651)
(-0.0694867 -2.70021 0.973651)
(-0.0741521 -3.17998 1.00546)
(-0.169592 -2.80105 0.856907)
(-0.0613587 -2.45035 0.866805)
(-0.0497769 -4.1122 -0.880141)
(0.0625927 -4.06483 -1.06558)
(0.00607284 -4.23519 -0.750096)
(-0.0116415 -4.10199 -0.870953)
(0.10865 -3.9599 -0.989988)
(-0.00325997 -4.26931 -0.547961)
(-0.0434051 -4.2809 -0.529068)
(-0.0394997 -4.16462 -0.639765)
(0.00841449 -4.06897 -0.661114)
(-0.0149446 -3.59389 -1.09577)
(0.0319923 -3.91603 -1.10351)
(0.0392177 -3.64648 -1.39365)
(0.0115787 -3.9297 -1.23997)
(0.0637825 -3.99656 -1.19223)
(0.0886061 -3.81409 -1.32061)
(0.115915 -3.87785 -1.23099)
(0.0342216 -3.26388 -0.564331)
(-0.0108907 -3.22656 -0.764564)
(0.0125635 -3.36089 -0.630978)
(-0.121178 -3.70919 -0.350651)
(-0.0278644 -3.65512 -0.502814)
(-0.0190984 -3.54705 -0.692254)
(-0.0248032 -3.46707 -0.66541)
(0.037828 -2.68724 -0.316284)
(0.105591 -2.21824 -0.300181)
(0.124694 -2.54936 -0.113144)
(0.020625 -3.20214 -0.585268)
(-0.105651 -3.3062 -0.779438)
(0.0630304 -2.86302 -0.63955)
(0.195291 -2.77411 -0.424385)
(-0.0441635 -7.61181 -0.162754)
(0.0158226 -7.49224 -0.163035)
(0.0175946 -7.51407 -0.151882)
(-0.00145991 -7.79006 -0.225211)
(-0.078721 -7.89129 -0.289772)
(-0.09588 -7.87869 -0.219914)
(0.00154536 -7.46546 -0.186307)
(-0.0201514 -2.62265 -1.67421)
(-0.00274121 -2.19242 -1.55995)
(-0.0352266 -2.55537 -1.46733)
(-0.081296 -2.65641 -2.14816)
(-0.120101 -2.4245 -2.3348)
(-0.135648 -2.34285 -2.14753)
(-0.121996 -2.56568 -1.90605)
(-0.165516 -2.54903 -2.44961)
(-0.0334272 -2.74797 -2.28737)
(-0.00750409 -3.07642 -2.35854)
(-0.0840102 -2.86584 -2.09543)
(-0.0679497 -2.70682 -2.19582)
(0.0189318 -3.07897 -2.12659)
(-0.0777068 -3.32304 -1.92931)
(0.0300641 -3.77407 -1.17754)
(-0.149 -3.56915 -1.2914)
(-0.143865 -3.1971 -1.46976)
(0.124895 -3.43829 -1.59756)
(-0.00282819 -3.7285 -1.34264)
(-0.0198662 -3.68946 -1.36188)
(0.037528 -3.51709 -1.55558)
(-0.0256874 -1.7835 -0.902237)
(0.0651214 -2.77632 -0.797164)
(-0.0334596 -2.31421 -0.764177)
(0.130997 -2.40552 -1.14804)
(0.154484 -2.1701 -1.518)
(0.0539114 -2.30756 -1.11728)
(-0.0259791 -1.87788 -1.2177)
(0.0364723 -0.953159 0.0486143)
(-0.139567 -0.594251 0.304312)
(0.0288705 -0.173162 0.230403)
(0.052237 -0.893985 -0.384403)
(0.027399 -1.09505 -0.15312)
(0.0641721 -0.458562 -0.12837)
(-0.0118206 -0.766717 -0.0450391)
(-0.125866 -0.518504 0.201747)
(0.100688 -0.297161 0.0774203)
(0.0462484 1.2127 0.681212)
(-0.140744 1.28951 1.11858)
(-0.283702 1.59573 0.93778)
(0.406536 -0.449955 0.486241)
(-0.271679 0.227348 0.19134)
(0.0465095 0.593038 0.872727)
(-0.0960488 1.15263 0.831105)
(0.0290555 1.90755 1.66702)
(0.0771577 2.3787 1.52149)
(-0.0357728 2.52114 1.18948)
(0.0827822 2.10673 0.951748)
(0.0976731 1.88628 1.27674)
(0.0484121 2.15087 1.13198)
(-0.0997426 2.20902 0.836498)
(0.048124 -0.0356743 -0.735636)
(-0.143522 -0.00769645 -0.883224)
(-0.0122384 0.181776 -0.616243)
(0.0829793 -0.0097462 -0.704949)
(-0.0440111 0.0872786 -0.784155)
(0.0216488 0.370714 -0.426832)
(0.0674249 0.26808 -0.379022)
(-0.0132199 0.294847 -0.660902)
(0.0224135 0.139235 -0.501868)
(0.032298 0.592645 0.0810141)
(0.0686833 0.288703 -0.0630095)
(0.0033679 0.573679 0.0456328)
(0.0797302 0.445393 -0.149519)
(0.175447 0.729352 -0.00199)
(-0.0795607 0.665325 -0.311054)
(0.0433716 0.749468 -0.0782688)
(-0.095538 1.65526 -0.124781)
(0.221327 1.42246 -0.422707)
(-0.0715222 1.83258 0.435238)
(0.00600203 1.57247 -0.491727)
(-0.13054 1.22385 -0.481043)
(0.144284 1.54564 -0.643627)
(-0.148441 1.50277 -0.355559)
(0.0759039 1.69121 -0.471963)
(-0.200548 1.59513 -0.212239)
(0.0565577 0.382193 -0.0267487)
(0.207192 0.565246 -0.0193484)
(0.0369434 0.465333 -0.115357)
(-0.00288168 0.815123 -0.014099)
(-0.110092 1.09135 -0.0266733)
(-0.0948879 1.0187 -0.00821602)
(0.0368069 0.751266 -0.0904063)
(-0.0675999 1.05842 0.00485558)
(-0.0504556 0.965288 -0.14636)
(-0.0411912 0.664862 -0.13829)
(0.0674044 -0.98126 1.22171)
(0.0964345 -1.01765 1.00169)
(-0.00588052 -1.08559 0.621772)
(-0.0782457 -0.956298 0.927814)
(-0.113295 -0.971071 1.19446)
(-0.2491 -0.855709 0.67647)
(-0.0800677 -0.875088 0.459699)
(0.0623706 -2.72201 0.00848768)
(0.00968289 -2.7097 -0.056765)
(-0.143421 -1.92605 0.128147)
(-0.0511512 -2.60025 0.403376)
(-0.0424864 -2.66732 0.428534)
(0.161806 -1.9236 0.400275)
(-0.0271112 -1.87006 0.299088)
(-0.344361 -1.69417 0.995238)
(-0.865052 -0.965449 1.63115)
(-0.0123458 -0.935326 0.936999)
(0.0203278 -0.940918 0.902146)
(-0.00841601 -0.879411 0.966902)
(0.0108226 -0.860928 0.789945)
(-0.0262508 -0.773712 0.863546)
(0.0284864 -0.861205 0.824976)
(-0.00328586 -0.792009 0.921966)
(0.0171323 1.12068 -0.797211)
(-0.00410544 1.14839 -0.785361)
(0.0132639 1.09824 -0.864658)
(-0.0144848 1.13032 -0.787379)
(-0.0159056 1.09331 -0.803834)
(0.0162071 1.11336 -0.853115)
(0.0262505 1.16384 -0.832462)
(-0.0252406 1.08846 -0.722105)
(-0.016365 1.54442 -1.13147)
(0.00375463 1.12793 -0.790328)
(0.0271703 1.31385 -0.679368)
(-0.00558829 1.31689 -0.787546)
(-0.047265 0.982935 -0.54805)
(-0.041367 1.06108 -0.65922)
(-0.00414277 1.02857 -0.639986)
(0.00742851 1.00043 -0.596245)
(0.0221712 0.873043 -0.591482)
(-0.010229 0.84243 -0.537298)
(-0.028057 1.00223 -0.675693)
(0.0405136 0.831689 -0.565172)
(0.0179478 0.773874 -0.495469)
(0.0537819 0.983287 -0.485537)
(0.0355494 0.984485 -0.359796)
(-0.0176543 0.720322 -0.347346)
(0.0317614 0.86754 -0.47422)
(0.0825011 -0.0079697 -1.06766)
(-0.0438691 -0.111425 -0.830472)
(-0.0788142 0.00534367 -0.594793)
(-0.211289 -0.0480513 -1.19724)
(-0.0129008 0.221943 -1.30826)
(-0.147843 -0.0265138 -1.01285)
(0.0148134 0.177173 -1.07211)
(-0.0629021 0.0242324 -0.513138)
(-0.114335 0.0532023 -0.552873)
(-0.0624712 -0.0153208 -0.481639)
(-0.117564 -0.0885735 -0.718058)
(-0.0493392 0.0531567 -0.754169)
(0.0747836 0.398379 -0.64102)
(0.0734691 0.2765 -0.75364)
(0.00440172 0.321078 -0.412605)
(-0.0597288 0.108875 -0.402784)
(-0.0560039 0.593699 -1.01161)
(-0.119153 0.652281 -1.01911)
(0.0187852 0.434885 -1.07198)
(0.0322969 0.328002 -1.23823)
(0.0470479 0.346622 -1.22514)
(-0.050173 0.613996 -1.17396)
(-0.0230214 0.514606 -1.16114)
(0.0318402 1.01929 -1.14558)
(0.00382054 1.1265 -1.07282)
(0.0149856 0.954348 -1.29762)
(0.00790673 1.11737 -1.47913)
(-0.00386034 0.903992 -1.49157)
(-0.00847779 1.20297 -1.14029)
(0.0113001 1.02839 -1.25447)
(0.121234 -0.372197 0.862252)
(-0.00739917 0.0838884 0.474021)
(-0.143236 -0.194245 0.663266)
(0.174635 -0.19211 0.56445)
(0.00134683 -0.195102 0.255887)
(0.35874 -0.834186 0.974646)
(0.0824245 -0.689377 0.576819)
(-0.0204393 -0.357535 0.536917)
(0.355525 -0.603707 0.750473)
(0.0279828 -1.23577 0.82812)
(0.0109611 -1.31872 0.728397)
(-0.00122372 -1.33989 0.792557)
(-0.0198218 -1.40026 0.834513)
(-0.0286114 -1.40678 0.886691)
(0.00154012 -1.36439 0.842542)
(0.0190284 -1.37595 0.921634)
(-0.0723976 -0.913234 0.380518)
(-0.0412342 -0.82572 0.359832)
(0.0655054 -1.11487 0.530581)
(0.127285 -0.782605 0.331388)
(0.124297 -0.951986 0.4149)
(0.021296 -0.80244 0.435984)
(0.138626 -1.17676 0.647346)
(0.0504324 -1.1087 0.599444)
(-0.128662 -0.904089 0.448284)
(-0.00242273 -2.87428 -0.0776717)
(-0.0221324 -2.77114 -0.0671294)
(-0.0505939 -2.81044 -0.0708158)
(-0.0168481 -2.73573 -0.0794326)
(0.0607544 -2.51958 -0.0653937)
(0.0332199 -2.53129 -0.0953183)
(-0.0494632 -2.70429 -0.110324)
(-0.001601 -3.00394 -0.0214194)
(0.00353991 -2.97373 -0.0124444)
(-0.0022127 -2.97967 -0.0232405)
(-0.000136853 -3.01384 -0.0348073)
(-0.00552308 -3.01109 -0.0324834)
(-0.00933464 -2.99599 -0.03216)
(-0.00322694 -2.99321 -0.033589)
(-0.0280275 2.19568 -1.6422)
(-0.00729986 1.69889 -1.47702)
(0.132596 1.92235 -1.60521)
(-0.0354175 2.10232 -1.15741)
(-0.00852311 2.49238 -1.35722)
(-0.0366772 1.72626 -1.18155)
(0.0657254 2.01856 -1.35428)
(-0.0520797 2.40258 -1.36644)
(0.0128514 2.40507 -1.75217)
(0.0147096 2.22921 -2.01721)
(-0.203305 2.17306 -1.40865)
(-0.288972 2.03046 -0.995247)
(-0.163572 1.78061 -1.2601)
(0.0206984 1.85992 -1.53981)
(-0.0144635 1.55076 -0.807661)
(-0.145812 1.73425 -0.831238)
(-0.206772 1.32354 -0.824851)
(-0.227945 0.559468 0.196583)
(0.508172 2.01711 0.412074)
(0.15941 1.71253 -0.298628)
(-0.160459 1.00666 -0.222781)
(-0.384283 0.0478109 0.385195)
(-0.19406 2.16273 0.173354)
(0.280771 1.52702 1.16181)
(-0.199564 1.2317 0.560881)
(-0.294558 3.68992 -0.333394)
(0.281151 4.73805 0.0598231)
(-0.196619 2.96947 0.152007)
(0.15862 4.06618 -0.117483)
(-0.0294992 2.02672 0.494687)
(0.165137 5.99953 -1.56291)
(0.214867 7.72296 -1.93203)
(0.0442928 9.2214 -2.26212)
(0.11584 10.8475 -1.73801)
(0.0892948 8.81898 -1.33898)
(0.179393 8.5399 -1.56381)
(-0.0408743 6.72012 -1.17703)
(-0.317126 5.8694 0.0934718)
(-0.335953 10.2043 -0.558821)
(-0.764248 9.42237 0.085876)
(0.232408 11.69 -0.155284)
(-0.251431 9.2407 0.395721)
(-0.421253 12.0081 -0.72298)
(-0.959857 10.5638 0.274704)
(0.136049 11.5122 -2.07186)
(0.0465025 10.835 -2.12986)
(0.00769043 10.4043 -1.87119)
(-0.250834 11.7479 -0.564704)
(0.207071 12.0145 -1.53891)
(0.094858 11.0829 -1.606)
(-0.181543 9.90075 -0.953413)
(-0.0606353 5.32625 -0.441292)
(0.164679 6.15362 -0.793375)
(-0.540809 6.36642 -0.0449144)
(-0.0476389 6.57346 0.299276)
(0.307839 5.70476 -0.234588)
(0.209346 6.63161 -0.852026)
(-0.723257 7.04785 -0.043652)
(-0.222804 9.12163 -0.0414673)
(0.524034 8.88474 0.261953)
(0.0490088 7.54516 -0.409576)
(-0.778097 8.39679 0.373022)
(-0.375123 7.53377 0.218173)
(-0.492417 6.94131 0.0721552)
(-0.76853 7.3293 -0.0090546)
(0.360802 5.5378 -0.553921)
(-0.476461 4.88317 0.0973567)
(0.291201 6.0327 -1.0109)
(-0.794547 7.67744 0.207093)
(-0.811438 5.69154 -0.0177894)
(-0.366302 8.0208 -0.0165536)
(0.0485198 3.73969 -1.02671)
(0.131968 4.2797 -1.09594)
(-0.032167 3.41283 -1.04999)
(0.146886 4.19506 -1.30636)
(0.0518347 3.86815 -1.23664)
(-0.0784942 3.55074 -1.17514)
(0.0187507 3.87836 -1.45676)
(0.00343766 4.04136 -0.907456)
(-0.0823722 4.46805 -0.718745)
(-0.0210931 4.1284 -0.738731)
(-0.021791 4.58912 -1.3237)
(0.130911 4.41608 -1.33537)
(-0.223309 4.76815 -1.22201)
(0.0325698 4.32304 -1.14846)
(0.0267625 4.31755 -0.703427)
(0.0126363 3.85733 -0.855566)
(-0.00122523 4.66521 -1.09836)
(-0.0409434 2.91808 -1.38007)
(-0.118863 3.35034 -2.03627)
(-0.00809621 3.39168 -1.54497)
(0.0291662 2.90307 -1.23227)
(-0.0975828 2.89211 -1.35151)
(0.0300471 3.13337 -1.38764)
(-0.16613 3.15793 -1.71831)
(-0.189597 3.22027 -1.91085)
(-0.0374993 3.24261 -1.51206)
(-0.0782659 2.89167 -1.12177)
(-0.0517063 3.07364 -1.13997)
(-0.0719699 2.81471 -1.24409)
(-0.166918 2.84889 -1.37722)
(-0.189377 2.87637 -1.60196)
(-0.0183945 2.70408 -1.41953)
(-0.0862581 2.78567 -2.01892)
(-0.0799232 2.63043 -1.73492)
(-0.0805463 3.12989 -1.19684)
(0.0365611 1.97444 -1.09506)
(-0.0392864 2.21551 -1.30121)
(-0.00152399 2.02295 -1.29065)
(0.0509029 1.8803 -1.25762)
(0.0866849 1.90719 -1.58729)
(0.0778538 1.87755 -1.57919)
(0.096361 1.87511 -1.36244)
(-0.00951362 1.48132 -2.35638)
(0.0298548 1.37634 -2.28639)
(-0.0200375 1.56013 -2.34394)
(-0.0249691 1.55417 -2.4938)
(0.0269438 1.40828 -2.47179)
(-0.0300816 1.64932 -2.52392)
(0.0148857 1.41259 -2.36475)
(0.0269514 1.44067 -2.29535)
(-0.0453102 1.64865 -2.39207)
(-0.0468196 1.92217 -2.37173)
(-0.0591124 1.70544 -2.20721)
(-0.00819321 1.35294 -2.36504)
(-0.0333357 1.38005 -2.66139)
(0.0767027 1.47124 -2.80167)
(-0.110529 1.67812 -2.50726)
(0.016165 1.75226 -2.63555)
(-0.0311666 0.389093 -2.88879)
(0.019728 1.00386 -2.90065)
(-0.117634 1.23437 -2.73703)
(-0.360629 -0.0517905 -2.33304)
(-0.170306 -0.0443152 -2.6459)
(-0.118403 0.551774 -2.78797)
(-0.415272 0.680249 -2.55951)
(0.0855638 1.06175 -2.05511)
(-0.0317211 0.772853 -2.03647)
(-0.0268122 1.35372 -2.04761)
(0.0826112 0.32037 -2.18751)
(0.324305 0.385103 -2.0688)
(0.144465 0.826975 -2.18373)
(-0.0140808 0.395175 -2.31446)
(-0.0128804 -0.475447 -0.0819531)
(-0.12219 -0.735554 0.28789)
(0.0308221 -0.953854 0.147372)
(0.091727 -0.374212 -0.33106)
(0.0614767 -0.180038 -0.167375)
(-0.380282 -2.33271 0.261866)
(-0.13384 -2.72763 0.159474)
(0.00685691 -2.92279 -0.202106)
(0.114646 -2.93786 -0.455847)
(0.0556122 -2.81327 -0.632531)
(0.130058 -2.98148 -0.186276)
(-0.163505 -2.65112 -0.218729)
(-0.0228282 -3.65684 0.396218)
(0.0319001 -3.94297 0.59778)
(0.00818902 -4.31504 0.682418)
(-0.00139824 -4.07781 0.167553)
(-0.00218629 -4.25426 0.378406)
(0.031589 -3.8995 0.397796)
(-0.0285214 -3.78079 0.220605)
(0.0662869 -3.9933 0.231439)
(0.0781531 -4.18418 0.435164)
(0.0350194 -4.23065 0.578809)
(0.0468902 -4.30526 0.313842)
(0.0273687 -5.11637 0.696046)
(0.119795 -4.55136 0.505602)
(0.0421531 -4.22432 0.177624)
(-0.0423196 -0.442784 0.0168809)
(-0.00790829 -0.45276 0.0528968)
(0.00510493 -0.449743 0.0366418)
(0.0120542 -0.575692 0.199257)
(0.114202 -0.58686 0.291482)
(0.0789859 -0.490873 0.134718)
(-0.0661197 -0.550432 0.077335)
(0.00609315 -0.545875 0.340794)
(-0.00356532 -0.456603 0.261662)
(-0.000165426 -0.506279 0.269016)
(0.0173727 -0.597021 0.492132)
(0.0288303 -0.537769 0.486675)
(0.0206752 -0.552758 0.410949)
(0.0214867 -0.491622 0.354404)
(0.0144199 -0.483029 0.329265)
(0.0176273 -0.50693 0.303629)
(0.0491302 -0.767464 0.475408)
(-0.010262 -0.770235 0.528865)
(-0.00818715 -0.709339 0.615103)
(-0.000232036 -0.728738 0.502286)
(0.035684 -0.73957 0.425252)
(7.66093e-05 -0.674002 0.590211)
(-0.0022896 -0.675353 0.538361)
(0.218331 0.29446 -0.961117)
(0.10542 0.0553157 -0.754353)
(-0.0812167 -0.743008 -0.222794)
(-0.00144552 -0.0472166 -0.138223)
(-0.0533252 -0.430901 0.447143)
(0.0281471 0.672585 -0.844323)
(0.655995 1.31456 -1.44951)
(0.132161 0.746759 -1.35213)
(0.141184 0.540888 -1.2014)
(-0.114739 0.84866 -1.35917)
(0.00846228 0.46677 -1.16773)
(-0.379401 -0.197693 -0.905779)
(-0.0293372 0.705698 -1.17223)
(-0.0707096 0.560333 -0.876597)
(-0.0842513 0.580151 -1.21914)
(-0.0892902 0.482846 -1.09615)
(-0.0796094 0.763768 -1.30514)
(0.22147 0.73809 -1.1506)
(0.1383 0.601913 -1.32273)
(0.0483802 0.717651 -1.29567)
(-0.022509 0.760078 -1.21842)
(0.0363656 2.95726 -1.51277)
(-0.00219366 2.70045 -1.49277)
(-0.0185156 2.66953 -1.75549)
(0.130837 2.44843 -1.24091)
(0.0157319 1.7015 -1.34186)
(0.0411719 2.18193 -1.479)
(-0.0395151 1.87154 -1.69207)
(-0.0884222 3.1025 -1.46181)
(-0.277492 3.15314 -1.43954)
(-0.127564 4.39748 -2.7531)
(0.807525 3.30618 -0.324497)
(-0.0374034 4.18093 -0.693166)
(-0.0376882 2.18029 -0.675895)
(-0.0607264 2.59581 -0.757442)
(0.129717 2.37951 -0.335715)
(-0.727411 3.63836 0.115022)
(0.0647076 2.10502 -0.108534)
(0.257435 2.14425 -0.273311)
(-0.0650923 2.23289 0.103646)
(-0.04193 2.0919 0.00912608)
(0.0603409 2.20145 0.101872)
(-0.0183868 2.00942 -0.0549549)
(-0.0952162 2.05603 0.0423236)
(0.0146691 1.9299 -0.254363)
(-0.0653759 2.05162 -0.109757)
(0.00353022 1.52552 -0.200434)
(0.160489 1.48325 0.0549522)
(0.045349 2.17438 0.00693665)
(-0.203983 1.44424 -0.26023)
(-0.0814167 1.67585 -0.139244)
(0.095887 1.63617 -0.322144)
(-0.0792039 1.34007 -0.368222)
(-0.0484213 1.45125 -0.364203)
(-0.201668 1.33445 -0.372667)
(-0.105449 1.8329 -0.0968512)
(-0.0491303 1.81367 -0.029205)
(0.12729 1.43407 0.00289263)
(-0.113388 1.96571 0.183467)
(-0.290165 1.24255 -0.483299)
(-0.274827 2.06544 -0.287774)
(-0.237224 1.77244 -0.237153)
(0.1125 1.18609 0.387035)
(-0.276756 1.33066 -0.357848)
(-0.38124 1.48454 -0.151325)
(-0.0115027 1.48744 -0.264932)
(0.223812 1.50523 0.077785)
(0.400701 1.12306 0.0848313)
(-0.365541 1.33789 0.499963)
(0.116249 1.08932 -0.0965423)
(-0.302187 1.31905 0.119556)
(0.470594 2.0501 -0.855305)
(0.0180221 1.4845 -0.371941)
(-0.00905539 1.09175 -0.575015)
(-0.106332 1.03259 -0.537005)
(-0.0356819 1.23972 -0.65003)
(0.0663274 1.0524 -0.490506)
(-0.0394386 0.994758 -0.480941)
(0.126504 1.05043 -0.466761)
(0.0175424 1.05503 -0.485727)
(-0.159551 1.01929 0.134077)
(-0.0708134 1.208 -0.148709)
(0.206494 1.56088 -0.733959)
(0.0948324 1.00048 -0.498396)
(-0.000431269 1.1876 -0.320703)
(0.0326993 0.977208 -0.300406)
(0.0458286 0.813727 -0.116833)
(-0.0218034 0.74899 -0.169657)
(0.0427053 0.967819 -0.599813)
(0.0190733 0.963426 -0.615552)
(0.000680889 0.888468 -0.683986)
(0.0320909 0.955525 -0.619629)
(0.0197198 0.883415 -0.633327)
(0.0111687 0.800135 -0.728924)
(-0.0222956 0.796593 -0.737963)
(-0.00422542 0.734309 -0.337237)
(0.0506031 0.682447 -0.437605)
(0.0134111 0.992097 -0.372762)
(-0.000161042 0.994619 -0.5941)
(-0.00926763 1.02107 -0.522004)
(0.0171979 0.406753 -0.409036)
(-0.0436344 0.411494 -0.576764)
(0.00493296 0.490344 -0.458655)
(0.0358887 0.640483 -0.370711)
(0.0215181 0.683677 -0.404286)
(0.0216248 0.668562 -0.45443)
(0.0466178 0.547982 -0.384309)
(0.0181818 0.148752 -0.907007)
(-0.238387 -0.0334359 -0.993909)
(-0.138845 -0.115886 -0.801893)
(0.149186 0.542879 -1.68826)
(0.0337165 0.346482 -1.61532)
(-0.0362974 -0.0232419 -1.75164)
(-0.0108428 -0.192911 -1.99663)
(-0.0213392 0.00775829 -2.11239)
(0.0271462 0.237959 -1.88515)
(0.0294173 0.532697 -1.86733)
(0.0365052 0.161069 -1.27088)
(0.0962355 -0.148318 -1.65714)
(0.0337588 0.401073 -1.21369)
(0.0382616 0.210091 -1.54726)
(-0.0256034 0.0441255 -1.60786)
(0.0659154 0.253657 -1.47364)
(0.063858 0.351426 -1.33183)
(-0.000725508 0.0609589 -1.54079)
(0.0720788 0.21353 -1.48633)
(0.0572608 0.172927 -1.15227)
(0.0883205 0.00491551 -0.899641)
(-0.0141833 0.202763 -1.34047)
(-0.0137597 0.512861 -2.78885)
(-0.0226177 0.0301155 -2.07807)
(-0.0567346 -0.102548 -1.56271)
(-0.140722 0.788767 -2.9661)
(-0.265389 0.21373 -2.74724)
(0.0243489 -0.346789 -1.84576)
(-0.079845 0.26533 -2.61915)
(-0.14685 0.613446 -2.81754)
(-0.204323 0.148002 -2.61741)
(-0.13745 0.13959 -1.72574)
(0.0234131 0.26345 -1.64283)
(-0.168485 -0.105573 -1.53629)
(-0.0251551 0.325279 -1.69291)
(0.0593754 0.186617 -1.88822)
(-0.048045 0.00758974 -1.96839)
(-0.0590598 0.377352 -1.8623)
(0.0173428 0.050132 -1.60569)
(0.020048 0.00619302 -1.47496)
(0.100239 0.179657 -1.70127)
(-0.0314862 -0.099549 -3.07918)
(-0.0715404 0.121228 -2.52042)
(-0.00234144 0.251237 -2.11586)
(0.0938215 0.0183674 -3.01277)
(-0.0609184 0.264625 -2.70066)
(-0.0849299 0.292806 -2.54223)
(0.0720596 0.0206989 -2.66016)
(-0.129801 0.311089 -1.8893)
(-0.20307 0.581963 -2.19843)
(0.0288858 -0.557032 -0.95367)
(-0.0298425 0.0961259 -2.16438)
(-0.144493 0.529626 -2.74792)
(-0.202075 0.568421 -2.59859)
(-0.149256 0.319881 -2.37319)
(0.10126 1.03069 -2.30808)
(0.0272643 1.04268 -1.82473)
(0.0777319 1.15719 -2.12487)
(-0.262158 0.628851 -2.11885)
(-0.173982 0.836863 -1.93468)
(-0.138633 0.99572 -2.05863)
(-0.156791 0.739481 -2.14244)
(-0.0334848 0.738474 -2.64198)
(-0.208837 0.979901 -2.28382)
(0.058851 0.591548 -2.95172)
(-0.0498196 0.716566 -3.01898)
(0.0204688 0.607682 -3.05231)
(-0.191104 1.04005 -2.37095)
(-0.0823155 0.755248 -2.73184)
(0.0819069 1.07795 -2.0881)
(0.0065076 1.12156 -1.60103)
(-0.0613759 0.965944 -0.830051)
(-0.0485017 0.819006 -1.06548)
(-0.076112 0.890132 -0.819099)
(-0.119395 0.779883 -0.748947)
(-0.186699 0.804967 -0.43474)
(-0.0032928 1.06029 -0.401431)
(0.00215127 1.10454 -0.622222)
(0.0127951 1.05044 -0.47454)
(-0.0361737 1.35552 -0.569934)
(-0.0140146 1.24957 -0.668009)
(0.0142234 1.12111 -0.55429)
(-0.00120703 1.1975 -0.520487)
(-0.00281211 0.895572 -0.295838)
(-0.0194879 0.920456 -0.254291)
(0.00309689 0.825058 -0.389412)
(-0.0325818 1.09107 -0.235664)
(-0.0880928 0.971944 -0.315387)
(0.0224476 0.9753 -0.178673)
(0.0276541 1.03666 -0.2746)
(-0.0854322 0.65665 -0.175311)
(0.0164373 0.776437 -0.312426)
(0.00715087 0.653923 -0.116732)
(0.000513905 0.733514 -0.142934)
(0.0433523 0.68097 0.0888942)
(0.00906178 0.85338 0.0341678)
(0.15293 0.782622 0.273871)
(-0.0256939 0.59008 0.112753)
(-0.224032 0.655013 0.134428)
(0.00339906 0.127725 0.0974214)
(-0.180487 -0.0801494 0.481273)
(0.0232327 0.514944 -0.294123)
(-0.0440271 0.725442 -0.170294)
(-0.039831 0.654288 -0.338431)
(-0.234606 0.821881 -0.124037)
(-0.112178 0.649206 -0.257606)
(-0.36034 0.227824 0.456279)
(0.00969193 -0.102714 0.305758)
(-0.0409415 -2.4022 0.53643)
(-0.0921726 -2.35378 0.588998)
(-0.00290464 -1.95936 0.543027)
(-0.0752634 -2.14924 0.563812)
(-0.0907331 -2.33372 0.700817)
(-0.0327146 -1.8853 0.562033)
(0.00606002 -1.82604 0.740399)
(0.0328858 -0.753001 1.99766)
(-0.0872194 0.202801 2.31017)
(0.0158562 0.0312277 2.1362)
(0.215016 -0.51642 2.13996)
(0.172977 -0.128152 2.29845)
(0.258813 -0.271005 2.31038)
(0.243459 -0.904136 2.29978)
(-0.0435598 -1.49485 1.88559)
(0.0173384 -1.72045 2.0112)
(-0.000120758 -1.35425 1.64807)
(0.0399276 -1.91516 1.95057)
(0.0684416 -2.19952 2.02375)
(-0.00383207 -2.32747 1.78941)
(0.0849642 -1.85951 1.694)
(0.0317839 -1.50719 1.40608)
(0.0099162 -0.837346 1.14166)
(0.025427 0.478155 0.853274)
(-0.0999177 -0.689065 1.72901)
(-0.0304761 -0.0265373 1.33454)
(-0.00679211 2.98016 1.54457)
(-0.105478 3.58445 1.50312)
(-0.179163 3.37004 1.50517)
(0.01423 3.55712 2.20964)
(0.0978836 3.63035 2.29619)
(-0.0217336 3.90859 2.03815)
(-0.00918022 3.78784 1.98211)
(-0.576026 1.47932 1.9171)
(-0.0564222 0.712717 2.17373)
(-0.0731668 2.11031 2.01514)
(-0.179342 1.3287 2.75882)
(0.636303 2.11806 2.72373)
(0.146249 1.81028 2.46259)
(-0.941112 1.22008 2.74719)
(0.130247 7.33423 1.96449)
(-0.447936 7.10049 2.39959)
(-0.105703 8.08556 1.76039)
(-0.988927 7.41373 1.9381)
(-0.410334 8.47134 1.69671)
(-0.266133 8.44312 1.6639)
(-0.255664 7.702 2.23465)
(-0.196307 7.77422 0.245592)
(-0.0958538 11.7973 0.431151)
(-0.0233667 10.9874 0.373979)
(-0.153686 15.3143 0.140464)
(-0.243722 12.6209 0.0919706)
(-0.114522 13.9325 0.345011)
(0.0155718 12.6155 0.313445)
(-0.0676993 12.3207 0.783221)
(-0.578636 11.4743 0.934698)
(-0.264772 12.088 0.710171)
(-0.387288 11.236 1.07435)
(0.0558364 11.2645 0.667065)
(-0.715124 11.0982 1.19274)
(-0.309279 11.8958 0.697513)
(0.360579 12.2944 -0.17018)
(0.430643 10.2553 -0.0591061)
(-0.172108 11.918 -0.322161)
(0.0829237 13.5011 -0.0976567)
(-0.119537 12.8926 -0.00683604)
(-0.341346 12.6185 0.171292)
(-0.27612 13.2733 -0.158195)
(0.218157 13.6473 0.0039823)
(-0.0661532 12.643 0.191719)
(0.0267807 12.9246 0.0851123)
(-0.233208 12.5484 0.0727638)
(-0.205903 11.3572 0.46337)
(-0.37402 12.3733 0.531197)
(0.0187223 8.22811 0.425321)
(-0.236112 10.8978 -0.774458)
(0.101056 11.9725 -2.17207)
(-0.196009 12.1867 -0.995338)
(0.132062 12.6933 -0.439043)
(-0.394699 12.0318 -0.369927)
(0.244439 12.6407 -0.198028)
(0.225668 13.2197 -0.794376)
(-0.747121 9.20567 -0.522277)
(-0.110832 9.515 -0.632506)
(-0.43533 8.72526 0.0563486)
(0.320116 5.31128 -2.98457)
(0.0208417 2.47866 -2.58928)
(0.19418 3.27814 -1.87562)
(0.0501618 3.8774 -3.32573)
(0.233336 2.37517 -3.24125)
(0.415803 3.51123 -3.05123)
(0.263983 5.26216 -3.25267)
(-0.103487 3.41529 -2.41398)
(0.134427 2.88717 -2.58618)
(-0.0424332 2.90622 -2.35059)
(-0.253221 3.80073 -3.07064)
(-0.0870401 3.06957 -3.24379)
(-0.00302347 3.21241 -2.98767)
(-0.234685 3.91789 -2.67599)
(0.00319365 1.80714 -2.17043)
(-0.01302 2.23795 -2.33808)
(0.0772718 2.06761 -2.14465)
(0.0684226 1.76451 -2.43383)
(0.043445 1.72959 -2.76324)
(0.0306403 1.82316 -2.57746)
(0.170634 1.96608 -2.41553)
(-0.0176813 1.86683 -1.15263)
(-0.108495 2.37705 -1.26267)
(0.00574482 2.04889 -1.52468)
(-0.158847 1.48264 -2.11809)
(-0.0330084 1.37397 -1.77206)
(-0.0257306 1.41466 -2.19732)
(-0.058199 1.54979 -1.81924)
(0.103991 1.37586 -1.92908)
(0.0379029 1.44132 -2.20308)
(-0.131588 1.65083 -1.98395)
(-0.0044193 1.4837 -1.19328)
(0.0373766 1.66668 -1.34814)
(-0.0557753 1.40345 -1.29405)
(0.000325686 1.54546 -1.60354)
(-0.00516427 1.34062 -1.44167)
(-0.00274225 1.31162 -1.63227)
(0.0358797 0.894172 -1.41933)
(-0.0599072 0.865259 -1.37024)
(0.0602411 1.114 -1.38305)
(-0.033925 0.761737 -1.49164)
(0.0286572 0.851897 -1.47378)
(-0.00316681 0.828243 -1.54137)
(0.0525896 0.658309 -1.31282)
(0.0204232 0.653694 -1.48975)
(2.89597e-05 0.650601 -1.61272)
(0.0322716 0.771965 -1.52335)
(0.034399 0.815441 -1.80393)
(0.0915081 0.740586 -2.06318)
(0.123829 0.710909 -1.80876)
(0.0900966 0.74082 -2.03836)
(0.0580017 0.754934 -2.00669)