/*--------------------------------*- C++ -*----------------------------------*\
| =========                 |                                                 |
| \\      /  F ield         | OpenFOAM: The Open Source CFD Toolbox           |
|  \\    /   O peration     | Version:  v2012                                 |
|   \\  /    A nd           | Website:  www.openfoam.com                      |
|    \\/     M anipulation  |                                                 |
\*---------------------------------------------------------------------------*/
FoamFile
{
    version     2.0;
    format      ascii;
    class       surfaceScalarField;
    location    "0.5";
    object      alphaPhi0.water;
}
// * * * * * * * * * * * * * * * * * * * * * * * * * * * * * * * * * * * * * //

dimensions      [0 3 -1 0 0 0 0];
oriented        oriented;


internalField   nonuniform List<scalar> 
49400
(
-5.66096e-06
9.00827e-09
5.6161e-06
3.58541e-08
1.30573e-05
3.59812e-06
-2.23163e-05
1.28629e-05
2.03378e-07
-3.42033e-06
1.73142e-05
-8.27774e-06
2.02268e-05
-2.0049e-05
-2.07656e-05
5.09427e-05
-3.35443e-07
8.08465e-06
1.95875e-05
-4.99885e-05
-1.57238e-07
-6.18732e-07
-1.22892e-05
2.39081e-07
1.21417e-05
-9.15825e-08
2.62926e-05
1.15545e-05
-5.01364e-05
2.5913e-05
-1.31222e-05
1.5055e-06
2.37585e-05
-1.32634e-05
4.95366e-08
2.94624e-05
-3.11712e-05
5.68809e-05
-2.68251e-05
4.44937e-07
2.64132e-05
-3.30038e-08
9.19547e-06
1.56214e-05
-5.1642e-05
4.91152e-07
9.14925e-06
4.11718e-05
2.27411e-05
-4.82915e-05
1.73297e-05
5.02553e-05
7.68182e-06
-7.39682e-06
2.06149e-07
-3.70564e-06
2.05367e-05
6.2322e-06
9.11205e-06
1.98562e-05
8.85642e-06
4.6178e-07
-2.00477e-05
4.94409e-05
2.70295e-07
-7.74512e-10
3.80797e-09
-8.58602e-10
-2.10814e-09
8.52122e-09
-3.75767e-09
-5.4397e-09
-1.89185e-08
-5.03902e-08
-3.42976e-09
3.84474e-09
-1.17586e-09
1.16485e-08
-1.87291e-08
-9.81894e-08
8.41944e-08
-1.35481e-07
3.2551e-15
5.07285e-15
7.46233e-15
-2.13266e-14
6.72747e-16
2.21469e-15
-1.63384e-15
1.7804e-15
9.10674e-16
-2.40872e-15
-2.12892e-15
5.05604e-15
-9.07829e-15
7.13578e-15
-1.21156e-15
4.52976e-16
-2.74692e-15
-3.04313e-10
-1.04163e-09
5.3242e-10
3.02204e-10
-2.0282e-11
2.86217e-10
-5.16693e-10
1.06248e-09
-2.79071e-09
-3.60329e-10
-5.89858e-10
1.17804e-09
-2.68493e-10
4.91726e-10
2.45401e-10
-1.75732e-11
3.8975e-10
8.98778e-09
2.0394e-09
2.20391e-08
-3.92799e-08
-6.11755e-09
1.28505e-08
8.35629e-09
1.26648e-08
-1.80175e-08
-6.74417e-09
-1.48194e-08
3.81004e-08
-2.07614e-08
2.61396e-08
-1.38306e-09
1.9721e-09
8.0186e-11
-3.19358e-08
-2.53956e-08
-8.36203e-08
1.69815e-07
-9.70569e-09
-3.83804e-08
4.18645e-08
-6.34308e-08
4.41972e-08
7.73879e-08
7.00442e-08
-1.78237e-07
3.83554e-07
1.14271e-08
2.79068e-08
-1.60515e-08
4.43426e-07
1.2117e-10
1.67703e-10
-1.17035e-11
-6.55867e-11
2.06283e-11
-2.6952e-10
5.71497e-10
-1.04355e-10
6.26439e-10
3.0232e-13
2.31763e-11
-1.69543e-11
1.48353e-10
-3.90676e-11
2.56251e-11
4.40994e-11
2.13169e-11
1.12207e-15
-5.09737e-15
4.63761e-14
-1.52196e-17
-3.58587e-15
9.38733e-14
9.25074e-15
2.9712e-15
-8.84466e-15
-1.66367e-14
-4.30265e-14
1.97614e-13
-6.19624e-15
2.06517e-15
2.90483e-15
-4.65575e-15
3.14641e-14
-2.23586e-06
-1.08032e-05
-5.39099e-06
1.90606e-05
1.10879e-07
-2.31127e-06
-2.13585e-08
-1.32522e-05
2.48312e-06
2.52638e-06
2.47335e-06
-7.29838e-06
2.50409e-06
-1.47268e-19
-1.0178e-05
7.55735e-06
-2.10549e-05
5.49246e-17
4.9441e-19
-2.22173e-17
2.90553e-18
-5.91805e-16
-1.66174e-16
8.48535e-16
-5.46565e-16
3.02416e-18
2.95732e-17
1.64019e-17
-6.66851e-17
3.07897e-17
5.77197e-18
-3.99675e-16
2.75201e-16
-9.09894e-16
2.13464e-09
2.92102e-09
-1.36093e-09
-4.16623e-09
-2.03979e-10
1.46525e-09
7.91866e-10
3.5568e-09
-9.79281e-10
-4.23552e-09
-7.58623e-10
7.47134e-09
-7.80984e-10
-6.35587e-09
-2.73209e-09
3.46804e-09
-4.83197e-09
-6.50883e-08
7.76086e-07
3.62331e-07
-1.76843e-06
4.75579e-07
-5.00003e-07
-5.35242e-07
-1.57479e-07
7.50594e-07
-1.62487e-06
3.50219e-07
6.57701e-07
5.85981e-07
-3.95884e-06
7.97226e-07
-9.37309e-07
5.21609e-07
2.39e-07
2.33373e-08
-2.66988e-07
1.31707e-07
-1.80451e-07
-1.07639e-07
5.96011e-07
3.85392e-08
-4.26559e-08
-2.66938e-07
2.40195e-07
2.91141e-07
1.05531e-07
-3.17152e-07
-1.67959e-07
3.70158e-07
-2.61031e-07
7.3936e-06
2.01188e-07
-6.73635e-06
-8.69032e-07
-1.86542e-05
-5.09305e-06
3.11289e-05
-1.0486e-06
-1.74529e-05
-2.71878e-05
2.9224e-05
-3.12426e-06
2.41071e-05
-6.87913e-05
4.16096e-06
1.3198e-05
2.82801e-05
-8.73047e-07
1.31629e-05
2.50285e-05
-2.97903e-06
6.94024e-05
6.38059e-07
-4.02168e-07
-1.36765e-06
1.10602e-06
-8.64108e-07
-1.36074e-06
2.38882e-06
-6.68267e-07
-1.87298e-06
-4.71669e-07
1.57968e-06
-1.22382e-06
1.4509e-06
-4.03971e-06
1.92576e-07
1.53332e-07
1.01465e-06
-4.5158e-07
4.52845e-06
6.85161e-08
-4.46027e-06
3.54381e-06
-3.46622e-06
-5.78084e-07
-4.07781e-06
5.54938e-06
-3.55356e-06
4.2844e-06
4.61906e-06
4.90263e-06
-5.36236e-06
-1.28347e-06
4.55082e-06
2.15905e-06
7.06265e-06
-2.19665e-06
-2.69115e-06
-5.6793e-06
1.28369e-05
-7.16396e-06
6.75619e-06
2.73813e-06
-3.87396e-06
4.29721e-06
-6.41871e-09
4.09398e-09
6.45782e-09
-1.83727e-09
9.03495e-09
4.93727e-09
-1.97411e-08
6.34757e-09
7.38661e-09
-9.76133e-09
5.07614e-10
1.07606e-08
-5.70662e-09
-5.85825e-09
6.50444e-09
-6.809e-09
1.38149e-08
-1.22469e-08
-1.62128e-09
3.66671e-09
8.43049e-09
9.21122e-09
-3.69808e-09
-1.62044e-08
-1.15741e-08
1.12471e-08
2.29717e-08
-2.43968e-09
-2.62911e-08
2.14866e-09
3.3333e-08
6.21352e-09
-1.16727e-08
1.281e-08
1.98523e-07
6.4809e-08
-2.13167e-07
-8.47614e-08
-2.27923e-07
-1.45717e-07
5.11162e-07
-2.92944e-07
6.48135e-08
3.71429e-07
3.04963e-08
-7.24033e-07
4.00592e-07
-6.24654e-09
-1.50812e-07
3.51731e-07
-3.89411e-07
-8.98774e-07
-3.94067e-07
2.67701e-06
5.55892e-07
2.27602e-06
6.35831e-07
-3.33157e-06
3.68784e-06
-4.30388e-07
-1.27869e-06
-1.71696e-06
6.67569e-06
-5.5326e-07
8.97441e-08
5.78124e-07
-7.8682e-07
3.45573e-06
5.42255e-08
8.13311e-07
-8.96658e-08
-9.11124e-07
1.64294e-06
-8.23491e-07
-1.4621e-06
-4.34477e-07
2.73181e-06
-3.15921e-07
2.86154e-07
-3.295e-08
2.43849e-07
-1.47998e-06
2.71859e-07
-8.45624e-07
1.42971e-07
-1.74254e-11
4.58739e-09
5.94238e-09
-1.00824e-08
1.00908e-08
2.36632e-08
-3.09315e-08
1.47217e-09
7.04044e-09
4.26289e-09
-2.08958e-08
1.46313e-08
-6.00333e-09
1.56842e-08
5.27881e-10
-4.1876e-10
4.4274e-10
-2.67182e-07
-3.99444e-08
2.43524e-07
3.01698e-08
3.63817e-07
5.64637e-07
-1.19138e-06
-9.44318e-08
3.52381e-07
9.58455e-07
-1.24994e-06
-5.26768e-08
-3.38757e-07
1.51882e-06
3.90249e-07
-1.09779e-06
2.38077e-07
-5.06927e-09
-1.28741e-07
-2.08045e-07
4.36127e-07
-1.3005e-07
-1.12493e-07
2.9368e-07
-3.90934e-08
-6.96143e-08
1.85678e-08
3.50084e-08
-8.82529e-08
2.153e-07
-2.06624e-07
4.50744e-08
-1.24823e-07
1.23077e-07
1.12747e-08
-8.27048e-09
1.5146e-08
-1.42851e-08
-7.66604e-09
1.32871e-08
1.19977e-08
1.14405e-08
-2.73304e-08
3.07781e-09
-9.99963e-09
2.75748e-08
-1.86903e-08
3.76413e-08
-1.28717e-09
7.3154e-10
-1.62932e-10
-9.57964e-06
-1.45476e-05
-9.26636e-06
3.28805e-05
5.85904e-08
-1.73308e-07
-1.08416e-05
-1.45878e-05
1.84273e-08
-1.26568e-05
1.16646e-05
-1.60639e-07
9.19508e-06
-3.30314e-05
1.05282e-05
-1.61154e-05
1.28359e-05
5.26404e-09
8.69076e-10
-3.7762e-09
-1.05741e-09
-5.41852e-09
-7.74824e-09
3.0627e-08
-4.10288e-09
8.0634e-10
7.82066e-09
2.37083e-09
-1.13657e-08
1.60972e-08
-4.08145e-09
-3.55839e-09
1.58409e-08
-4.24623e-09
9.22185e-09
2.73592e-08
6.31024e-09
-4.33802e-08
7.67009e-09
1.65407e-08
-6.09284e-09
2.3791e-08
1.06685e-08
-2.39514e-08
-3.35279e-09
4.51469e-08
-9.51293e-09
-2.4974e-08
-1.35478e-08
3.41938e-08
-1.72091e-08
1.93754e-06
1.57016e-06
-4.46702e-06
-2.50589e-06
-9.59849e-07
-4.61454e-07
3.04004e-06
1.46574e-06
-1.7088e-06
-2.23781e-06
1.34481e-06
1.48589e-06
1.32262e-06
-8.32811e-06
-3.69183e-06
2.89783e-06
-5.10967e-06
2.81425e-07
-2.63128e-08
-3.59297e-07
-5.59917e-08
-2.6827e-07
-1.76761e-07
2.5945e-07
-8.98275e-08
-1.28614e-07
4.50802e-07
-4.42289e-08
-6.78332e-07
3.067e-07
2.48219e-08
-3.02306e-07
3.82228e-07
-4.86379e-07
1.01197e-06
-3.05227e-06
-2.06216e-06
3.65516e-06
-1.42963e-06
2.32138e-06
4.00963e-07
1.48207e-06
-6.05393e-06
1.00039e-05
-4.94812e-06
-7.11082e-06
-2.21422e-06
1.49815e-05
-4.9446e-06
4.75155e-06
-9.38129e-06
1.44898e-05
1.93465e-05
1.63232e-05
-5.07275e-05
5.89642e-07
-6.07418e-07
1.37503e-05
1.80476e-05
3.01759e-07
1.61255e-05
-1.16699e-06
-1.77231e-05
4.70309e-05
-2.2296e-06
2.17022e-05
6.20137e-07
-4.24444e-07
-2.18734e-05
-2.7527e-05
-2.66869e-05
7.5932e-05
-2.43722e-05
1.40473e-07
-2.68689e-05
-2.17901e-07
2.61443e-05
-7.48682e-05
-5.24092e-08
1.34485e-06
-8.89531e-07
-8.1349e-06
7.45311e-06
-2.30296e-06
-4.09419e-06
7.66046e-06
-2.059e-06
-1.31033e-06
6.75904e-07
4.4492e-06
-7.22995e-06
3.30541e-06
-4.04249e-06
-1.52146e-06
5.01788e-07
-4.8505e-06
-4.40221e-06
-1.53509e-06
8.49364e-07
3.16515e-06
1.17126e-06
-1.77929e-06
-4.79669e-06
-2.64335e-06
9.32156e-07
3.94652e-06
-8.9172e-07
-5.68236e-06
1.80393e-06
4.63639e-06
-7.26605e-06
9.99023e-06
3.68567e-07
4.41756e-07
1.30985e-06
-1.96876e-06
-2.38642e-07
8.19704e-07
8.94162e-07
8.58401e-07
-1.13086e-06
3.26043e-07
-3.62785e-06
5.20167e-06
-1.27512e-06
3.24713e-06
-6.17212e-07
4.12645e-07
-1.57266e-06
3.3146e-07
1.24441e-06
-1.14236e-07
-4.20982e-07
5.61475e-07
-7.32452e-07
4.94974e-07
-6.45348e-07
3.07522e-06
-8.1086e-07
9.72351e-07
7.29911e-08
3.95607e-07
-1.63735e-06
4.88046e-07
-7.89269e-07
9.08346e-07
1.20746e-06
-1.3556e-06
-6.53785e-06
3.44832e-06
-2.09043e-06
-3.48023e-06
3.84942e-06
-2.5135e-06
-4.51186e-07
8.24175e-08
4.12235e-06
-6.64749e-06
2.5391e-06
-2.55643e-06
-2.09044e-06
5.18977e-07
-4.44955e-06
3.43816e-06
1.49996e-06
-4.7595e-06
-1.52019e-06
-2.40252e-06
-5.67882e-06
1.07582e-05
-5.65117e-06
4.05582e-06
6.59555e-06
5.85201e-06
-1.63407e-05
6.80084e-06
-2.26473e-06
-2.50825e-06
3.62865e-06
-2.59601e-06
1.56391e-09
-7.538e-08
1.96357e-07
-5.93432e-09
-5.98946e-08
2.35e-07
3.62697e-08
5.76934e-08
-1.755e-07
-9.00886e-08
-1.10921e-07
4.57487e-07
-5.46415e-08
1.37178e-08
2.89629e-08
-2.60962e-08
1.30123e-07
-4.36241e-09
-9.44182e-09
4.49872e-09
5.22197e-09
-2.20638e-08
2.91673e-08
-1.53012e-08
1.62473e-08
-5.05767e-08
6.8287e-09
-1.84715e-08
1.33077e-08
-1.33841e-08
2.87115e-08
-1.54225e-08
2.9674e-08
-1.81959e-08
-8.54426e-10
-1.62324e-09
-1.17445e-09
3.2205e-09
1.09886e-09
-4.229e-09
9.68887e-10
-3.06397e-09
1.72645e-09
9.51033e-09
3.04883e-09
-2.17557e-08
3.95136e-09
1.07636e-08
2.71133e-09
-5.9531e-09
6.33001e-09
8.0803e-09
1.09499e-09
-4.32497e-10
-8.75968e-09
-6.97368e-09
-2.39428e-09
1.90155e-08
1.67964e-09
-2.41177e-09
-8.3912e-09
7.72472e-09
7.2101e-09
-1.50824e-10
-6.3161e-09
-1.93529e-09
8.76065e-09
-1.68436e-09
7.43696e-08
3.09808e-08
3.65837e-09
-1.10606e-07
-1.4361e-08
1.75134e-08
7.29584e-08
2.07519e-08
-3.95322e-09
-4.83521e-08
-1.32291e-09
6.9689e-08
-2.32982e-08
-2.97946e-08
-5.71523e-08
7.9572e-08
-7.37525e-08
6.1081e-08
-1.20088e-08
1.6509e-08
-6.56319e-08
-1.15697e-07
-3.55583e-08
2.12451e-07
-8.55049e-08
-4.21074e-08
-1.01997e-07
6.74497e-08
5.10342e-08
4.2565e-08
-2.10223e-07
-8.05226e-08
1.12427e-07
-1.23382e-07
1.25789e-08
3.99766e-07
-2.42988e-07
-2.45873e-08
4.12551e-07
3.46513e-08
-1.50922e-07
-1.11643e-07
7.7217e-07
-1.57649e-07
1.46858e-07
4.46963e-08
2.1733e-07
-5.91325e-07
-7.0733e-08
1.04458e-07
-1.24784e-07
9.39573e-06
7.56382e-06
3.27934e-06
-2.65127e-05
3.23802e-07
1.08366e-05
-1.75696e-06
6.97872e-06
6.00418e-07
-2.82679e-06
-2.87531e-06
9.37557e-06
-2.8542e-06
4.18287e-07
-3.08137e-06
1.17871e-05
-2.8668e-06
9.31961e-06
4.03971e-07
-8.44875e-06
-8.3412e-08
-3.77531e-06
-3.40149e-06
2.28456e-05
2.22081e-07
-4.09419e-06
-6.14333e-06
5.71697e-06
3.29814e-07
8.10321e-06
-1.17107e-05
-7.56144e-06
1.01456e-05
-6.46291e-06
1.91749e-07
6.82978e-06
-1.04059e-05
-9.40606e-07
6.40865e-06
-1.0692e-05
2.54608e-07
-6.7233e-06
2.38206e-05
8.9567e-06
5.26683e-06
8.44162e-06
4.45976e-07
-5.85343e-06
5.10347e-06
-1.1005e-05
-9.28518e-08
-4.64437e-07
3.33107e-07
3.28071e-07
-2.2786e-07
-5.60737e-08
3.54092e-07
1.32975e-07
-9.22266e-07
3.55908e-07
-1.24339e-07
-2.95192e-07
-2.18991e-08
7.47444e-07
-2.28558e-07
5.20105e-07
-2.21444e-07
-3.58442e-06
-1.02576e-06
2.0434e-06
3.84139e-06
4.17145e-06
4.98941e-06
-6.72852e-06
6.16928e-06
-2.52691e-06
1.92155e-06
-6.18991e-06
6.13973e-06
-4.84108e-06
1.01115e-05
2.172e-06
-2.65428e-06
3.6261e-06
-3.45815e-08
9.77619e-08
4.08531e-08
-2.12059e-07
4.11502e-08
-1.07359e-07
-5.88301e-08
-5.91207e-08
1.24749e-07
-1.8573e-07
6.8803e-08
6.5837e-08
5.50909e-08
-6.56679e-07
5.38127e-08
-2.11373e-07
2.04919e-08
2.12935e-09
-1.07491e-09
-5.62453e-09
2.77276e-10
-9.1806e-09
9.52709e-10
9.36871e-09
-8.47816e-10
-2.92793e-09
2.4208e-09
8.04241e-09
-1.86218e-08
1.32032e-09
6.28787e-10
-1.65845e-09
4.66093e-09
-4.90723e-10
1.75792e-12
-2.77761e-14
-4.42396e-13
-1.35137e-14
-1.17668e-12
-1.34764e-12
4.36678e-12
-3.91038e-13
3.63088e-13
4.64548e-13
5.26947e-13
-2.54275e-12
5.10637e-12
-1.49596e-11
-1.18562e-13
1.17012e-12
-1.80787e-13
1.14181e-05
-9.88182e-08
-1.13333e-05
3.76947e-08
-8.83423e-06
-8.38942e-06
2.83677e-05
-9.0611e-06
-3.26484e-07
1.32663e-05
8.68853e-06
-3.32606e-05
1.33832e-05
-6.53972e-08
-6.96717e-06
1.1901e-05
-7.79122e-06
-9.74101e-09
-2.94442e-07
-2.08752e-07
4.37361e-07
-6.99243e-08
-2.71555e-07
2.75883e-07
-5.6687e-08
-4.42037e-07
-2.56258e-07
3.4227e-07
-2.34973e-07
9.45339e-07
-1.89089e-06
-5.39446e-08
6.34185e-07
6.40223e-09
-1.98663e-06
-9.69628e-07
-1.40844e-06
4.32558e-06
1.02441e-06
-2.41735e-06
-1.07813e-06
-2.10557e-06
2.08595e-06
2.82352e-06
5.23888e-06
-1.33153e-05
4.02104e-06
-6.39138e-06
1.33806e-06
-2.45934e-06
3.86802e-06
-8.80775e-07
-2.72699e-07
6.34172e-07
4.26131e-07
2.01553e-06
3.09193e-07
-3.90533e-06
-4.51831e-07
7.08349e-07
9.64666e-07
-1.45384e-06
-2.94247e-07
-7.85913e-07
2.74987e-06
1.16242e-06
-2.60288e-06
9.2805e-07
6.16156e-06
1.95594e-05
1.07089e-05
-3.57241e-05
2.59135e-07
-1.88418e-08
6.44621e-06
1.77595e-05
2.85731e-06
3.93076e-06
-4.68975e-06
1.15484e-07
-1.80017e-06
1.04563e-05
1.56949e-06
-1.01582e-05
3.14221e-06
-8.22144e-06
7.3856e-06
-1.52772e-05
2.75659e-05
-1.60432e-05
6.42832e-06
4.19258e-07
-6.20641e-06
2.55393e-05
5.90277e-08
5.35795e-06
-1.51666e-07
-6.72748e-06
5.29145e-07
-2.78002e-06
-1.85118e-06
9.21677e-06
-3.49652e-06
8.72383e-09
3.92269e-06
2.64326e-06
-1.4437e-05
3.42343e-06
1.90916e-07
-2.37067e-06
3.51508e-06
-3.66647e-06
-6.48226e-06
-1.10243e-07
6.17669e-06
-1.30795e-07
5.94064e-06
-2.44381e-05
4.14957e-06
-4.24748e-06
4.12374e-06
-5.7802e-07
-1.62969e-07
1.60443e-07
6.1967e-07
1.8631e-07
-2.15604e-08
-7.07058e-07
-8.42655e-08
1.7849e-07
2.54945e-07
-4.27102e-08
-2.75317e-07
6.56923e-08
4.09247e-07
2.3773e-07
-2.78746e-07
4.92275e-07
1.86099e-06
-1.32939e-07
-5.73682e-06
1.68671e-06
-1.09261e-06
-4.01121e-07
1.80022e-06
-1.05438e-06
-4.10652e-07
8.49615e-06
1.21921e-06
-1.52751e-05
1.55227e-06
2.44625e-06
-1.39713e-06
1.2678e-06
-2.27618e-06
-3.66849e-07
2.56057e-07
3.08525e-07
-1.49169e-07
6.53298e-07
-1.68094e-07
-7.80848e-07
1.9733e-07
5.67253e-07
-6.16005e-07
8.39139e-08
8.74145e-07
-8.51961e-08
-6.43384e-07
7.46109e-07
-8.95035e-07
1.0379e-06
-8.07201e-08
4.57344e-08
5.4363e-08
-2.80266e-08
1.38442e-07
1.29655e-08
-2.33481e-07
3.8418e-08
1.37596e-07
-8.82428e-08
-7.09068e-09
1.52809e-07
-3.69496e-08
-8.0238e-08
8.29409e-08
-1.13169e-07
1.08051e-07
2.79262e-10
-4.07656e-09
5.34988e-10
2.66387e-09
-6.58963e-09
4.99173e-09
1.52728e-09
5.01846e-09
-1.51458e-08
2.89989e-09
-6.42225e-09
2.66087e-09
-2.92513e-09
8.11218e-09
-8.33263e-09
1.01199e-08
-1.32629e-08
-3.32713e-07
-3.44059e-07
4.8268e-07
2.78214e-07
1.1187e-07
1.82732e-07
-4.20178e-07
-1.16509e-06
9.46294e-07
3.29753e-06
-1.50104e-06
-2.94335e-06
-5.43088e-07
5.45522e-06
1.1754e-06
-2.48099e-06
8.45511e-07
-1.80576e-08
6.49958e-08
7.16026e-08
-2.88105e-08
6.97695e-08
-1.23068e-08
-6.38236e-08
2.19646e-08
1.17272e-07
-1.26547e-07
1.78086e-08
2.73347e-07
-4.8758e-09
-7.76107e-08
5.61146e-08
-3.92849e-08
9.86481e-08
-2.56356e-07
-1.26322e-07
-5.11059e-08
4.12169e-07
5.1775e-08
-1.98199e-07
-1.06458e-07
-1.11398e-07
2.97917e-08
1.58583e-07
5.05517e-08
-3.73014e-07
8.2548e-08
1.04467e-07
1.45956e-07
-2.94596e-07
1.76948e-07
-8.13889e-06
-1.25643e-05
-6.05411e-06
2.58632e-05
5.8074e-07
-9.11546e-06
-3.26305e-07
-1.46396e-05
1.28959e-07
2.49533e-05
2.50238e-05
-6.44271e-05
2.31273e-05
2.05696e-07
-3.35879e-06
1.90023e-05
1.14769e-05
-5.43039e-07
4.191e-06
-4.06485e-06
7.64915e-08
9.85888e-06
-9.87513e-06
-4.13521e-07
-2.9191e-06
1.91709e-05
1.44461e-05
3.73026e-06
-2.79857e-05
1.55182e-05
-1.47245e-06
7.62176e-06
-6.97128e-06
1.98648e-05
-3.3159e-12
2.59579e-11
1.87153e-11
-3.95008e-11
4.41762e-11
3.81062e-11
-7.31307e-11
4.47052e-11
3.07273e-11
-4.22141e-11
-8.24569e-11
2.13344e-10
-5.57019e-11
8.22531e-11
-5.99583e-12
-3.40759e-11
-1.5181e-11
-1.76697e-11
5.03524e-11
1.00212e-10
-1.33003e-10
1.2973e-10
7.1988e-11
-2.56137e-10
6.1134e-11
1.18791e-10
2.49242e-11
-1.30541e-10
2.65498e-10
-8.99769e-11
3.21379e-10
4.31235e-11
-1.44103e-10
4.33918e-11
-4.98557e-09
-1.26891e-09
6.26249e-09
1.3152e-09
1.24954e-09
1.05073e-08
-1.18662e-08
6.36118e-09
-5.36546e-09
-6.40946e-09
-5.27307e-09
1.66903e-08
-7.35092e-09
1.42285e-09
-2.40423e-09
7.25581e-09
-1.31324e-09
3.37846e-06
-4.22828e-07
8.67625e-06
-1.00207e-05
-3.01512e-06
2.48535e-06
2.91054e-06
7.77292e-06
-8.23945e-06
5.83015e-07
-7.17435e-06
7.37678e-06
-7.60139e-06
1.04486e-05
-1.26658e-06
2.62906e-06
-1.51945e-06
-2.02608e-06
-1.03728e-06
5.20287e-07
2.67457e-06
4.08211e-07
-1.97917e-07
-2.08832e-06
-1.60982e-06
1.23447e-06
4.49927e-06
-1.12638e-06
-3.60492e-06
-1.27494e-07
6.03541e-06
6.97476e-07
-1.90706e-06
1.17431e-06
-2.48321e-06
-4.5487e-06
-7.28956e-06
1.46536e-05
-2.27804e-06
-5.73686e-06
5.83381e-06
-2.74608e-06
-3.50572e-06
-3.17178e-06
9.35729e-06
-8.42032e-06
3.44514e-06
-2.22535e-06
4.93288e-07
6.8485e-08
2.8096e-06
-1.05514e-07
5.21367e-07
-8.3912e-07
1.23433e-07
6.28128e-07
-7.97259e-07
-1.19456e-07
-1.0948e-07
1.21066e-06
7.43127e-07
1.06317e-06
-2.21301e-06
1.68146e-06
-2.41685e-07
-9.78928e-07
2.31303e-06
-9.01871e-07
-4.68759e-07
-4.19434e-07
-4.99127e-07
1.38115e-06
-6.92189e-08
-6.44394e-07
2.39042e-07
4.43835e-09
-5.04314e-07
-9.38038e-07
1.11972e-06
1.55776e-07
7.55932e-07
-2.20564e-06
3.33223e-07
-2.2563e-07
9.64394e-07
-1.20573e-06
1.59832e-06
3.45428e-07
-9.14152e-07
3.41971e-06
-1.49325e-07
-4.20296e-06
1.24613e-07
4.80923e-06
-1.85327e-06
1.21831e-06
8.57952e-07
3.07679e-08
-2.91487e-06
2.68683e-06
-2.59739e-06
3.83538e-06
-3.13478e-08
-5.50356e-06
-2.9525e-07
8.33754e-06
-8.77412e-06
9.13767e-06
1.47187e-07
2.74228e-06
-1.67967e-05
1.08679e-05
-1.05272e-05
-7.73206e-07
-5.96516e-06
2.53809e-05
-1.06997e-05
1.40583e-05
-1.82803e-05
2.06841e-07
-2.64319e-07
-1.57635e-07
4.39265e-07
-9.03806e-07
3.60489e-08
1.37039e-06
-3.88996e-07
-2.13538e-07
1.53847e-06
1.76576e-07
-2.69031e-06
6.32378e-07
1.35933e-06
-8.00562e-07
1.18175e-06
-6.57848e-07
-9.23299e-09
-5.42606e-09
7.00767e-09
7.10027e-09
3.68419e-09
1.68617e-08
-3.32741e-08
-5.97015e-09
4.78537e-09
2.89708e-08
-3.61886e-08
-5.7371e-09
-6.77484e-09
2.73418e-08
1.70378e-08
-3.88359e-08
1.45622e-08
-4.03507e-07
-1.78113e-05
1.74903e-05
6.97019e-07
-1.40654e-05
1.37746e-05
-1.55285e-07
8.98021e-06
-4.08829e-05
-9.58926e-06
-8.71484e-06
3.18907e-05
-9.47038e-06
-1.8929e-07
-1.31579e-05
2.19348e-05
-1.3531e-05
8.21624e-09
3.74144e-09
-3.23093e-09
-8.56258e-09
-1.77453e-09
1.04267e-09
9.10182e-09
6.88433e-09
-4.65059e-09
-1.72226e-08
4.5302e-09
1.97577e-08
3.51121e-09
-2.55421e-08
-1.1033e-08
1.67191e-08
-1.20145e-08
-3.33151e-08
9.30002e-09
2.52189e-08
-9.87304e-09
3.6034e-08
-2.43032e-09
-8.82673e-08
2.78304e-08
3.75316e-09
-4.29771e-08
-2.29331e-08
7.64744e-08
2.87612e-09
-8.28048e-08
2.39418e-08
-3.40032e-08
2.09255e-08
3.10892e-08
2.16115e-08
4.10226e-09
-5.59528e-08
1.17017e-09
1.82162e-07
1.87215e-07
3.04734e-07
1.5425e-08
-4.49214e-07
-1.20599e-07
1.13009e-06
-6.42641e-08
-4.64518e-08
-8.12462e-08
2.92257e-07
-9.81504e-08
-1.31253e-05
3.79102e-07
1.2903e-05
-1.21879e-07
1.15098e-05
6.94985e-06
-3.15698e-05
1.18412e-05
6.16372e-08
-1.44453e-05
-1.68058e-05
4.79766e-05
-1.71894e-05
-3.96998e-07
8.43307e-06
-2.11127e-05
3.48139e-06
-1.27905e-07
1.85416e-05
-1.83083e-05
8.33001e-06
-9.17446e-06
3.98125e-08
2.98165e-05
1.62501e-05
-6.60885e-05
-1.37326e-05
1.7024e-05
1.63965e-07
-1.65805e-05
-5.79839e-07
-1.34286e-05
-5.62989e-06
3.60898e-05
-1.39717e-05
7.15427e-07
3.36128e-05
3.02083e-05
-8.03791e-05
3.45066e-05
-5.78897e-07
-1.464e-05
4.35257e-05
1.60429e-06
1.24665e-05
1.63769e-07
-1.18478e-05
-1.58496e-05
-1.24428e-05
1.38122e-05
-2.22827e-08
-2.26739e-05
4.06099e-05
-3.18837e-05
-9.35555e-06
-2.32172e-05
6.14868e-05
5.78636e-07
-3.14574e-05
3.08153e-08
5.38615e-05
-6.57493e-05
5.69555e-05
4.11531e-11
1.48551e-11
-1.42318e-11
-3.64601e-11
-1.58238e-11
-5.05089e-11
1.06439e-10
-2.28298e-11
2.10021e-11
8.54025e-12
1.96462e-11
-3.13409e-11
8.79897e-11
-1.38602e-10
5.07282e-12
1.92023e-11
6.32154e-12
1.17384e-16
2.0271e-15
-4.98677e-16
-7.74348e-18
2.62547e-15
-2.38415e-15
6.18686e-16
-1.10239e-15
6.59154e-15
5.82848e-16
5.03148e-16
-1.40825e-15
8.49197e-16
2.14102e-17
1.03032e-15
-2.46202e-15
1.10337e-15
-3.30181e-09
-1.07338e-09
3.50226e-09
7.03399e-10
2.97936e-09
2.60809e-09
-8.98349e-09
1.54794e-09
-1.32985e-09
-7.80065e-09
-5.73631e-09
2.01932e-08
-7.71614e-09
1.96048e-09
5.02749e-09
-9.11535e-09
1.85259e-09
8.89786e-09
5.42609e-09
1.06749e-09
-1.97419e-08
6.92162e-10
-6.20104e-10
4.46366e-09
2.44564e-09
1.80965e-09
-1.72115e-09
-1.1123e-09
-5.95855e-10
5.58173e-09
-3.76041e-09
4.17578e-09
-5.5195e-09
4.00296e-11
-9.3369e-12
2.9724e-10
-1.72119e-10
5.63921e-12
2.24848e-11
6.48626e-11
3.29342e-12
-4.17638e-12
5.63299e-11
-3.35105e-11
2.86389e-11
-2.36675e-10
4.55266e-10
1.90979e-11
-5.02504e-11
2.48316e-10
7.76195e-09
-3.51124e-09
2.08764e-08
-1.58744e-08
2.57321e-10
1.13858e-08
1.43395e-09
5.47497e-09
-6.05607e-09
-2.12645e-08
-9.5349e-09
5.07513e-08
-2.81602e-08
1.7383e-08
-2.71409e-09
2.4797e-09
-4.6857e-09
1.22871e-07
2.87238e-07
-1.80561e-07
-2.8373e-07
1.7185e-07
-4.02312e-07
3.17632e-07
-7.07703e-07
1.02993e-06
-2.85128e-07
9.42356e-07
-9.90612e-07
1.8931e-07
-7.89324e-07
2.12518e-07
-3.99534e-07
1.08262e-07
-3.42709e-06
-2.31161e-06
3.92161e-07
6.07397e-06
1.08499e-06
-2.6112e-07
-4.90378e-06
-1.21246e-06
1.20164e-06
3.41819e-06
-3.04812e-07
-4.52075e-06
9.37067e-07
5.1921e-06
1.78651e-06
-2.51263e-06
4.50261e-06
3.11752e-07
-6.09812e-06
-1.59646e-08
5.83252e-06
-7.84158e-06
8.32439e-06
3.49433e-07
6.2419e-06
-2.01511e-05
6.0683e-06
-6.22098e-06
1.50416e-07
-4.25454e-06
1.61907e-05
-5.05333e-06
9.1366e-06
-5.0179e-06
6.91566e-06
-6.32e-06
-3.93947e-07
-1.16896e-05
3.48348e-05
6.21806e-06
-1.75243e-05
7.07751e-06
-1.22861e-06
4.56593e-06
4.11207e-07
1.83851e-07
4.14126e-07
-9.84982e-07
-9.2592e-08
3.10418e-07
1.42727e-07
-2.80333e-07
3.42564e-07
1.42475e-06
-1.29671e-06
-2.8858e-07
-4.39836e-07
1.76429e-06
-7.40793e-07
6.06087e-07
-1.83499e-06
1.80259e-08
1.29198e-08
4.09771e-09
-3.35932e-08
-8.00472e-09
6.05729e-09
1.74759e-08
2.06661e-08
-1.3581e-08
-3.6097e-08
1.25161e-10
5.25581e-08
-1.25591e-08
-3.55182e-08
-7.5214e-09
1.03812e-08
-1.30623e-08
4.49661e-08
-4.0508e-07
-4.9858e-07
9.62845e-07
-4.89331e-07
-9.29287e-07
1.59116e-06
-5.22111e-07
-2.69849e-07
-9.71833e-07
2.28009e-06
-1.83928e-06
6.29693e-07
-2.07893e-06
-1.88768e-07
1.12589e-06
1.99151e-08
1.88415e-07
-2.46225e-07
4.80579e-07
-7.78758e-07
8.0967e-07
4.39755e-07
-1.65871e-06
7.05366e-07
-3.68407e-07
-1.12598e-06
-8.36062e-07
1.65104e-06
-5.20874e-06
1.07375e-07
-8.62875e-07
-2.37566e-07
-4.77631e-06
3.83774e-07
1.93573e-08
-4.26097e-08
-3.63856e-07
-3.64685e-07
-2.38106e-09
7.48614e-07
8.04457e-08
-5.58324e-07
-8.44882e-07
2.38917e-08
5.64207e-07
-1.59122e-07
-2.86345e-07
-2.12534e-07
2.31502e-07
-4.15529e-07
-3.83238e-07
2.84252e-07
7.62859e-08
-1.85605e-07
2.21082e-07
4.41201e-07
-1.00554e-06
4.19664e-07
1.35754e-10
-1.13707e-07
-1.55529e-08
5.48576e-07
2.56013e-08
-1.41751e-07
-1.20207e-07
5.32702e-07
-2.09412e-08
3.40207e-07
-2.37796e-09
-2.01809e-07
9.69718e-09
-3.26889e-07
-2.39924e-07
8.86985e-07
-3.10117e-07
1.73188e-07
3.70084e-07
2.58208e-07
-7.96156e-07
3.43955e-07
2.61341e-08
-1.8054e-07
2.96539e-07
-2.21685e-07
-2.14875e-09
5.35276e-10
4.25196e-09
-4.28426e-09
1.32865e-09
1.00999e-09
-5.63198e-09
2.40695e-10
1.38442e-09
1.05981e-09
-1.76434e-09
7.94864e-10
-1.60335e-09
3.78791e-09
1.14855e-09
-1.94391e-09
3.03523e-09
-5.47357e-09
7.2252e-10
7.14219e-09
-7.77785e-10
5.87914e-09
8.37648e-09
-2.06493e-08
7.65492e-09
2.07607e-10
-9.5176e-09
-6.70442e-09
1.85667e-08
-1.38413e-08
-2.11455e-10
1.20635e-08
-1.59822e-08
1.33974e-08
-1.23537e-05
3.20861e-07
1.19184e-05
1.60172e-07
1.15243e-05
7.19012e-06
-3.10472e-05
1.14681e-05
3.96148e-07
-1.73858e-05
-1.68975e-05
4.62371e-05
-1.82078e-05
1.81186e-08
8.59794e-06
-1.96053e-05
3.18542e-06
3.86192e-07
1.77656e-05
-1.76967e-05
9.38359e-06
-8.16515e-06
5.21115e-08
3.03411e-05
1.81512e-05
-6.68385e-05
-7.92926e-06
-5.37179e-08
9.1232e-08
3.05915e-08
-5.53018e-08
1.1681e-07
-1.29213e-07
-3.82823e-08
-1.45512e-08
2.21889e-07
-7.33964e-08
5.71106e-08
5.50907e-08
9.78547e-09
-1.52748e-07
9.3779e-08
-2.14004e-07
1.35621e-07
-2.21861e-08
-2.26501e-09
5.17912e-08
-3.89162e-08
3.24112e-08
9.85586e-08
-1.23022e-07
1.44939e-07
-9.83863e-08
-5.58833e-08
-1.45792e-07
2.36438e-07
-9.85792e-08
-4.31265e-08
-6.4954e-09
2.53432e-09
-2.2017e-08
-1.00072e-08
-1.50698e-07
1.2623e-08
6.6235e-08
-5.85888e-08
-7.04346e-08
7.61448e-08
4.09914e-08
-3.73299e-07
2.60506e-08
4.05611e-08
-1.14934e-07
7.0454e-08
1.36504e-08
-1.73649e-08
3.31243e-08
4.05361e-08
-9.77426e-14
-5.15756e-16
2.6365e-13
1.98739e-14
-1.03468e-15
1.77452e-12
-1.34749e-12
9.13208e-16
1.63069e-15
-2.9753e-14
2.19118e-12
1.94729e-13
1.05808e-14
2.24875e-13
5.23791e-17
9.93406e-17
1.77041e-17
-9.33825e-19
-3.19257e-15
5.64732e-15
3.14513e-15
-3.4818e-15
2.59589e-14
-1.86108e-17
1.04966e-14
1.73224e-15
5.09776e-17
-1.61811e-18
8.84432e-14
1.80952e-13
8.37954e-19
1.585e-18
1.5989e-14
4.43312e-15
2.55518e-14
-1.23665e-05
-9.99495e-06
-1.02702e-05
3.26426e-05
-2.45662e-07
-1.27896e-05
6.69363e-07
-9.82484e-06
-4.40474e-07
9.65526e-06
7.46748e-06
-2.69451e-05
1.0252e-05
-1.04968e-06
5.51261e-06
-1.08342e-05
5.49742e-06
-1.06803e-08
9.96309e-10
1.00112e-08
-4.3432e-10
8.90638e-09
6.82701e-09
-2.64779e-08
1.03306e-09
8.69425e-09
7.16542e-09
-7.51643e-09
1.25686e-10
-7.75947e-09
1.93148e-08
4.62803e-09
-8.30041e-09
4.6083e-09
2.7183e-11
-5.04485e-12
-3.13668e-11
6.40974e-12
-4.35728e-11
-6.04469e-12
8.65781e-11
-2.47174e-11
-2.57514e-11
-5.95739e-12
2.41827e-11
-5.19901e-11
8.58039e-11
-9.14991e-11
-3.57407e-11
1.06097e-10
-4.42145e-11
4.54495e-14
3.98889e-13
-7.33331e-12
3.51374e-12
-4.91261e-14
8.04498e-13
-1.39849e-12
-3.8473e-13
8.40791e-14
-5.24152e-12
6.81834e-13
4.00936e-12
1.35401e-11
-1.9514e-11
-5.04697e-13
1.70431e-13
1.00956e-12
3.6809e-14
7.01964e-15
-2.82384e-14
-2.0294e-14
-3.08411e-14
-5.80214e-15
6.82715e-14
1.3705e-14
-3.64077e-14
-7.46638e-14
4.41554e-14
3.34582e-14
1.85592e-14
-1.55005e-13
-6.20259e-14
9.49954e-14
-7.9302e-14
-1.09954e-11
-1.38598e-10
2.36566e-11
7.86484e-11
-1.06733e-10
1.0307e-10
-1.64962e-11
2.36724e-10
-4.9657e-10
9.32635e-11
-2.10393e-10
1.12942e-10
-1.12569e-10
2.57338e-10
-1.10292e-10
8.58413e-11
-1.20772e-10
-6.94344e-08
1.42949e-07
3.25517e-07
-3.84298e-07
8.034e-08
2.08777e-07
-3.33398e-07
1.02123e-07
4.60906e-08
2.539e-10
-1.10156e-07
1.50579e-07
-1.53036e-07
1.32998e-07
2.96926e-08
1.54452e-08
1.24206e-07
1.47144e-07
1.87173e-06
3.54281e-06
-4.06413e-06
1.24782e-06
2.70911e-06
-4.04326e-06
1.27994e-06
1.46428e-06
8.96369e-08
-2.98843e-06
3.95166e-06
-2.5769e-06
3.90857e-06
-5.40418e-07
1.14131e-06
-3.57984e-07
-7.16045e-06
-1.89396e-06
2.60892e-06
6.39401e-06
3.46225e-06
1.10833e-06
-1.14076e-05
-1.05002e-06
1.4126e-06
2.32893e-06
-2.10358e-06
-1.37986e-06
-2.55158e-07
3.16436e-06
3.39614e-06
-4.18714e-06
5.18498e-06
-8.28261e-08
-8.38268e-07
1.36671e-06
-8.0436e-07
-2.6521e-06
-6.20868e-07
3.22591e-06
-2.34485e-06
3.72564e-07
-2.14166e-06
2.67562e-07
2.78286e-06
-6.58903e-07
-3.48959e-06
-9.31141e-08
-1.26815e-06
-2.48775e-06
-8.03832e-06
6.70943e-08
7.9565e-06
5.73758e-08
1.70029e-05
5.11944e-06
-3.02714e-05
1.71298e-05
9.59823e-08
-2.74204e-05
-2.52292e-05
6.94296e-05
-2.73247e-05
-3.40161e-07
-4.62053e-06
-1.25953e-05
-2.69521e-05
8.5487e-06
8.90753e-08
-8.85733e-06
2.32815e-07
-1.48036e-05
-5.04178e-06
2.84121e-05
-1.45205e-05
-1.30937e-07
5.58227e-06
-3.14845e-05
1.70625e-05
-3.01922e-05
3.07525e-05
2.83872e-05
-7.43313e-05
-3.56442e-07
1.20714e-05
2.43556e-05
-7.21185e-05
-2.95914e-07
6.17709e-07
1.38151e-07
9.21393e-07
1.14261e-07
-1.37113e-06
1.80128e-06
-2.37527e-06
3.45341e-07
-1.03352e-06
3.76633e-06
-2.87046e-06
2.28397e-06
7.07123e-07
1.88833e-06
-5.36018e-06
2.05737e-06
-2.53764e-06
3.31373e-06
-9.86535e-06
-1.20784e-05
-7.15765e-06
2.93062e-05
1.68917e-07
-9.0871e-06
-5.24853e-07
-1.22883e-05
2.71642e-07
1.70169e-05
1.08944e-05
-4.02817e-05
1.64503e-05
7.89131e-07
9.27174e-06
-8.07224e-06
1.84862e-05
1.51657e-05
1.82144e-05
1.17784e-05
-4.51581e-05
-2.52481e-08
1.52086e-05
-1.71587e-08
1.82457e-05
-5.61771e-08
-1.08158e-05
-1.06648e-05
3.68466e-05
-1.0662e-05
-4.68014e-08
1.129e-05
-1.00561e-05
1.88711e-05
2.03762e-07
3.57758e-07
8.82319e-08
-6.62042e-07
1.46254e-08
-2.33532e-08
1.90929e-07
3.05882e-07
5.20967e-08
1.93044e-07
-1.48021e-07
-8.21188e-08
-1.03673e-07
4.74308e-07
-1.86934e-07
3.80123e-07
-2.56262e-07
4.23522e-07
-9.70762e-08
-1.11309e-06
3.48684e-07
-3.04868e-07
4.84223e-07
2.93839e-07
2.21443e-07
-4.09644e-07
1.49832e-06
-2.07055e-06
-3.77539e-06
-2.6925e-07
1.06286e-06
-1.88302e-06
1.19148e-06
-3.76754e-06
-7.41974e-06
-1.67693e-05
-4.76436e-06
2.89639e-05
2.77296e-07
-7.32525e-06
-3.63809e-07
-1.62277e-05
-2.27485e-07
-4.67554e-06
-2.46221e-05
2.4541e-05
-2.56355e-05
1.36454e-05
2.55533e-05
-6.73844e-05
-1.09424e-06
1.32606e-05
5.28893e-08
-2.57779e-05
-4.57928e-07
6.49625e-07
-3.49631e-07
-3.90184e-07
8.43723e-07
1.05034e-07
-2.53052e-06
3.03137e-06
-5.86318e-07