/*--------------------------------*- C++ -*----------------------------------*\
| =========                 |                                                 |
| \\      /  F ield         | OpenFOAM: The Open Source CFD Toolbox           |
|  \\    /   O peration     | Version:  v2012                                 |
|   \\  /    A nd           | Website:  www.openfoam.com                      |
|    \\/     M anipulation  |                                                 |
\*---------------------------------------------------------------------------*/
FoamFile
{
    version     2.0;
    format      ascii;
    class       surfaceScalarField;
    location    "0.5";
    object      phi;
}
// * * * * * * * * * * * * * * * * * * * * * * * * * * * * * * * * * * * * * //

dimensions      [0 3 -1 0 0 0 0];
oriented        oriented;


internalField   nonuniform List<scalar> 
49400
(
-5.66096e-06
9.00645e-09
5.6161e-06
3.58515e-08
1.30573e-05
3.59812e-06
-2.23163e-05
1.28629e-05
2.03376e-07
-3.42033e-06
1.73142e-05
-8.27773e-06
2.02268e-05
-2.0049e-05
-2.07657e-05
5.09427e-05
-3.3548e-07
8.08464e-06
1.95875e-05
-4.99885e-05
-1.57236e-07
-6.18751e-07
-1.22892e-05
2.39085e-07
1.21417e-05
-9.15839e-08
2.62926e-05
1.15546e-05
-5.01364e-05
2.5913e-05
-1.31222e-05
1.50552e-06
2.37584e-05
-1.32634e-05
4.95402e-08
2.94624e-05
-3.11712e-05
5.68809e-05
-2.68251e-05
4.44965e-07
2.64133e-05
-3.31088e-08
9.19548e-06
1.56215e-05
-5.16421e-05
4.91182e-07
9.14926e-06
4.11719e-05
2.27411e-05
-4.82915e-05
1.73297e-05
5.02554e-05
7.68182e-06
-7.39682e-06
2.06179e-07
-3.70566e-06
2.05367e-05
6.23221e-06
9.11206e-06
1.98563e-05
8.85645e-06
4.61786e-07
-2.00478e-05
4.9441e-05
2.70258e-07
-1.12442e-05
4.53205e-05
-1.0778e-05
-2.32984e-05
8.89057e-05
-2.33669e-05
-7.6783e-05
-3.77801e-05
-7.68645e-05
-2.26594e-05
2.54439e-05
-1.35625e-05
3.61015e-05
-8.21278e-05
-7.34656e-05
6.11295e-05
-0.000114229
5.68351e-06
8.86756e-06
1.20964e-05
-2.66475e-05
3.37413e-06
1.11233e-05
-8.8139e-06
8.45001e-06
3.79167e-06
-5.53747e-06
-1.0469e-05
2.44565e-05
-1.25239e-05
1.07781e-05
-1.70135e-06
2.3556e-06
-2.12888e-06
-1.74844e-06
-3.17874e-06
3.14373e-06
1.78345e-06
-5.56538e-08
9.17774e-07
-2.61056e-06
3.31142e-06
-6.54581e-06
-1.48804e-06
-2.90646e-06
7.53823e-06
-9.01552e-07
1.19696e-06
5.97784e-07
-5.81561e-07
1.00274e-06
5.90456e-06
1.36528e-06
1.00765e-05
-1.73463e-05
-6.03649e-06
7.20716e-06
4.73389e-06
1.26506e-05
-1.73218e-05
-2.62298e-06
-1.02241e-05
2.00542e-05
-1.19043e-05
1.40153e-05
-5.96558e-07
4.48949e-07
1.49666e-07
-4.02359e-06
-2.50952e-06
-5.18955e-06
1.17227e-05
-2.318e-06
-7.03597e-06
5.33038e-06
-1.59541e-05
1.11266e-05
6.04493e-06
1.24707e-05
-2.55516e-05
1.1274e-05
1.01292e-07
4.17476e-06
-7.65815e-06
1.02592e-05
2.22021e-06
3.57309e-06
-2.76757e-06
-3.02572e-06
7.82524e-07
-5.0522e-06
6.48988e-06
-5.41735e-06
9.77296e-06
3.76366e-08
8.68834e-06
-1.14935e-05
6.51162e-06
-9.4997e-06
7.47218e-07
7.12207e-07
4.01821e-06
1.56447e-07
-7.51207e-06
7.40695e-06
-5.13333e-08
-6.15509e-06
5.74177e-06
5.69767e-07
6.7831e-06
-2.04503e-05
-7.31165e-06
-5.68113e-06
1.87346e-05
-8.85777e-06
2.11589e-06
3.8728e-06
-5.94747e-06
5.59863e-06
-7.89947e-06
-1.23851e-05
-8.76384e-06
2.90484e-05
5.20703e-07
-7.34344e-06
-1.07673e-06
-1.44084e-05
2.54403e-06
7.58322e-06
3.65082e-06
-1.85775e-05
9.23145e-06
-2.72496e-06
-1.21425e-05
1.26101e-05
-2.29e-05
8.99132e-06
7.34701e-08
-9.54847e-06
4.8368e-07
-1.18234e-05
-7.41926e-06
2.8234e-05
-1.17912e-05
4.12731e-08
1.26443e-05
6.95964e-06
-2.91524e-05
1.1034e-05
2.09395e-06
-8.73585e-06
1.23506e-05
-1.35674e-05
3.6196e-06
4.18199e-06
-1.35997e-06
-6.44162e-06
-2.9803e-07
2.20533e-06
1.7123e-06
4.67589e-06
-7.91926e-07
-5.41592e-06
-6.10277e-07
1.07021e-05
-8.77464e-07
-5.33038e-06
-3.19039e-06
4.78544e-06
-5.42783e-06
-7.40753e-07
2.48027e-06
5.41715e-07
-2.28123e-06
4.64863e-06
-1.72197e-06
-3.66741e-06
-5.72002e-07
7.7009e-06
-1.9574e-06
9.38809e-07
1.5603e-06
7.45923e-07
-4.98455e-06
1.47624e-06
-2.45229e-06
1.84305e-06
1.17075e-05
1.1032e-06
-1.51926e-05
2.38191e-06
-8.24977e-06
-5.09414e-06
2.50514e-05
1.71787e-06
-8.86445e-06
-1.28972e-05
9.65426e-06
4.9608e-06
6.82128e-06
-2.85829e-05
-1.33991e-05
1.79592e-05
-2.17704e-05
9.75492e-06
2.57992e-07
-8.86689e-06
-1.14601e-06
-2.43947e-05
-6.64223e-06
4.07918e-05
-1.35841e-06
-2.27783e-05
-3.56011e-05
3.83285e-05
-4.0859e-06
3.15388e-05
-8.99182e-05
5.6361e-06
1.70358e-05
3.73224e-05
-1.55435e-06
1.74442e-05
4.13569e-05
-5.58888e-06
9.9593e-05
6.82653e-06
-7.68897e-06
-1.98999e-05
2.07623e-05
-1.70977e-05
-2.60887e-05
5.00129e-05
-8.35023e-06
-1.64364e-05
-1.41619e-05
3.41124e-05
-2.83007e-05
2.7972e-05
-5.85704e-05
3.82204e-06
4.20165e-06
1.18942e-05
-1.13973e-05
7.30594e-05
9.31039e-07
-6.25932e-05
9.53802e-05
-0.000102576
-3.31394e-05
-5.78063e-05
4.54293e-05
-4.49811e-05
5.83644e-06
6.51288e-06
6.26601e-06
-1.86153e-05
-1.50988e-06
4.92749e-06
2.41883e-06
7.6712e-06
-2.6682e-06
-2.95476e-06
-6.36234e-06
1.42446e-05
-7.97618e-06
7.44025e-06
3.12849e-06
-4.83865e-06
4.43735e-06
-2.22321e-06
1.83417e-06
2.02104e-06
-1.63201e-06
2.59641e-06
1.57538e-06
-6.39499e-06
1.92581e-06
2.50477e-06
-3.59323e-06
2.90004e-07
5.32427e-06
-1.75983e-06
-3.46541e-06
2.01043e-06
-2.19488e-06
4.22624e-06
-7.18153e-06
-2.67059e-06
1.29984e-06
8.55227e-06
3.67557e-06
-2.57323e-06
-8.28387e-06
-4.06825e-06
5.07323e-06
9.76405e-06
-1.44461e-06
-1.23877e-05
8.32781e-07
1.40045e-05
4.4656e-06
-8.48344e-06
6.59823e-06
1.34746e-05
3.33075e-06
-1.25222e-05
-4.28313e-06
-8.50588e-06
-5.53995e-06
2.75204e-05
-6.46882e-06
1.29369e-06
7.4829e-06
3.92882e-06
-1.78805e-05
8.85618e-06
-7.95833e-08
-7.84887e-06
1.11651e-05
-1.64422e-05
-7.09162e-06
-8.23076e-07
6.57457e-06
1.34012e-06
8.39126e-06
8.38765e-06
-2.38705e-05
9.01237e-06
-1.44419e-06
-7.06516e-06
-5.00278e-06
1.86425e-05
-9.82726e-06
4.10221e-06
7.1824e-06
-8.622e-06
1.1192e-05
2.24762e-07
1.15465e-05
-1.13389e-06
-1.06374e-05
1.43895e-05
-1.02697e-05
-3.89497e-06
-7.34225e-06
3.32782e-05
-1.21443e-05
1.17325e-05
-7.2215e-07
6.97083e-06
-2.97525e-05
1.0428e-05
-1.37269e-05
1.48183e-05
-9.36113e-09
3.85574e-06
9.74149e-06
-1.35879e-05
5.85709e-06
1.04241e-05
-1.62905e-05
3.42761e-06
6.28523e-06
2.60001e-06
-1.13752e-05
1.22028e-05
-9.07753e-06
1.79628e-05
2.47394e-07
-1.19847e-06
9.11354e-07
-1.14487e-05
-1.2508e-06
1.12151e-05
1.48441e-06
9.69219e-06
6.25431e-06
-2.73952e-05
-1.07226e-06
9.51364e-06
1.48801e-05
-1.33581e-05
-2.59429e-06
-7.75233e-06
3.21461e-05
1.03491e-05
-1.74528e-05
1.38118e-05
-2.47671e-07
-5.57503e-06
-1.31312e-05
1.89539e-05
-5.60039e-06
-1.45833e-05
1.99361e-05
-5.38693e-06
-5.78849e-06
1.39179e-06
6.31861e-06
-1.30973e-05
1.08596e-05
-1.52563e-05
5.80432e-06
-1.4069e-05
3.5328e-06
3.65208e-06
-4.0284e-06
7.79154e-06
-7.41522e-06
-6.15846e-06
5.03043e-06
4.78011e-06
1.07501e-05
-2.0937e-05
1.29528e-06
-9.64932e-06
1.33845e-05
-8.20336e-06
1.42788e-05
-1.21886e-06
8.07033e-07
-1.18048e-07
-1.24564e-05
-1.53775e-05
-9.69732e-06
3.75312e-05
8.36018e-08
-2.52467e-07
-1.22875e-05
-1.53122e-05
1.8372e-08
-1.49395e-05
1.54506e-05
-7.6361e-07
9.52019e-06
-3.67472e-05
1.15025e-05
-1.72945e-05
1.72558e-05
5.53579e-06
1.14949e-06
-5.87368e-06
-8.11603e-07
-6.33787e-06
-5.74977e-06
1.76234e-05
-8.37295e-06
3.18458e-06
5.99043e-06
3.99405e-06
-1.58582e-05
7.16906e-06
-1.99023e-06
-5.22772e-06
6.647e-06
-9.60661e-06
3.82624e-06
6.75845e-06
2.72752e-06
-1.33122e-05
1.83012e-06
3.96926e-06
-1.97314e-06
4.68384e-06
3.90473e-06
-8.27339e-06
-1.25591e-06
1.34986e-05
-4.95649e-06
-5.29004e-06
-7.07195e-06
1.04999e-05
-9.30092e-06
8.53094e-06
4.18421e-06
-6.59089e-06
-6.12427e-06
-3.31545e-06
-1.62411e-06
1.34705e-05
4.94912e-06
-4.08035e-06
-8.22576e-06
3.36166e-06
9.81321e-06
2.19586e-06
-1.4502e-05
-5.40242e-06
7.13997e-06
-9.79744e-06
7.31488e-06
-4.81574e-07
-6.3974e-06
-4.35899e-07
-9.17212e-06
-3.08521e-06
1.95722e-05
-1.39776e-06
-8.25593e-06
7.37218e-06
-7.31909e-07
-1.30377e-05
6.67112e-06
2.65168e-07
-6.09393e-06
9.67983e-06
-8.2236e-06
3.05511e-06
-9.27826e-06
-2.87905e-06
9.1022e-06
-1.67061e-05
8.50182e-06
1.12594e-05
3.28383e-06
-2.92682e-05
1.44086e-05
-7.41444e-06
-9.87317e-06
-2.92372e-06
2.64345e-05
-1.00699e-05
1.5648e-05
-1.42005e-05
3.12731e-05
3.1623e-05
3.55872e-05
-9.84834e-05
1.33158e-06
-1.35611e-06
3.12976e-05
3.23001e-05
6.54464e-07
3.63481e-05
-2.11694e-06
-3.38724e-05
0.000101518
-3.68919e-06
2.72588e-05
7.94126e-07
-5.34018e-07
-2.75189e-05
-3.35606e-05
-3.35549e-05
9.43743e-05
-3.31163e-05
3.4981e-07
-3.38008e-05
-2.88065e-07
3.33693e-05
-9.4689e-05
-3.50564e-08
7.14692e-06
-3.39059e-06
-1.40409e-05
1.02846e-05
-8.80996e-06
-1.29273e-05
2.88841e-05
-7.29559e-06
-4.90496e-06
2.67592e-06
9.75517e-06
-1.97267e-05
1.12952e-05
-1.35243e-05
-2.96674e-06
1.3347e-06
-7.25247e-06
-1.94303e-05
-8.2714e-06
1.68273e-06
2.6019e-05
6.05509e-06
-4.98342e-06
-2.0502e-05
-7.19952e-06
4.98321e-06
1.24117e-05
-2.36085e-06
-1.72504e-05
3.87067e-06
1.24332e-05
-1.97775e-05
1.79866e-05
1.23536e-05
7.59397e-06
1.59151e-05
-3.58626e-05
-5.81724e-06
6.77475e-06
1.13961e-05
1.89713e-05
-1.71946e-05
4.13131e-06
-1.87556e-05
2.13991e-05
-1.72596e-05
3.2787e-05
-4.0221e-06
5.73382e-06
-6.86267e-06
2.76052e-06
1.06577e-05
-1.54788e-06
-1.18703e-05
1.27097e-05
-1.20442e-05
2.09497e-06
-8.64324e-06
3.20106e-05
-1.95959e-05
1.68634e-05
1.18469e-06
1.07735e-05
-4.22398e-05
1.46378e-05
-1.59085e-05
2.2858e-05
5.32492e-06
-3.92394e-06
-1.31526e-05
1.17516e-05
-7.98549e-06
-1.19313e-05
2.52417e-05
-6.08863e-06
-5.82079e-06
1.45409e-07
8.0832e-06
-1.43172e-05
1.15955e-05
-1.72709e-05
-4.12481e-06
3.78904e-06
-9.19417e-06
6.38057e-06
2.7112e-06
-7.08937e-06
-2.0024e-06
-4.52503e-06
-7.56019e-06
1.84658e-05
-8.66984e-06
6.85601e-06
8.39291e-06
8.32702e-06
-2.38093e-05
8.91479e-06
-2.52429e-06
-3.17821e-06
4.53282e-06
-3.52102e-06
1.26261e-07
-1.1667e-05
1.23019e-05
-7.61155e-07
-1.27253e-05
1.10934e-05
1.75818e-06
1.45158e-05
-3.89081e-05
-1.23524e-05
-9.56377e-06
3.30096e-05
-1.79945e-05
7.40023e-06
6.27272e-06
-9.75144e-06
9.01088e-06
-1.93081e-06
-6.05139e-06
1.49305e-06
6.48915e-06
-8.50073e-06
1.27954e-05
-6.2255e-06
8.50109e-06
-2.30532e-05
8.73806e-06
-9.65649e-06
2.41148e-06
-3.56113e-06
1.87883e-05
-1.20798e-05
2.1314e-05
-1.32351e-05
-2.40666e-06
-1.46858e-06
-1.55004e-06
5.42528e-06
1.17479e-06
-4.09386e-06
5.12403e-07
-1.81453e-06
1.52074e-06
4.15902e-06
1.56527e-06
-7.53882e-06
2.74752e-06
2.93224e-06
2.84606e-06
-5.37465e-06
4.04354e-06
3.4463e-06
8.56311e-07
-5.72976e-07
-3.72963e-06
-2.67929e-06
-1.57881e-06
7.7044e-06
6.453e-07
-2.46829e-06
-4.52544e-06
2.80865e-06
2.36209e-06
-2.97254e-07
-6.69648e-06
-2.01473e-06
3.24457e-06
-2.88496e-06
5.84848e-06
2.56815e-06
2.87701e-07
-8.70432e-06
-2.89212e-06
2.35642e-06
6.38417e-06
4.21055e-06
-4.53452e-06
-1.32285e-05
-2.85948e-07
1.7725e-05
-3.90711e-06
-1.38559e-05
-6.04058e-06
8.11105e-06
-9.65999e-06
1.40878e-05
-2.71133e-06
3.74257e-06
-1.5119e-05
-2.63891e-05
-8.28806e-06
4.87649e-05
-1.95709e-05
-9.52954e-06
-2.35504e-05
1.56059e-05
1.16871e-05
9.69073e-06
-4.83602e-05
-1.85302e-05
2.58481e-05
-2.84104e-05
4.72858e-07
1.65087e-05
-1.54287e-05
-1.55283e-06
1.53723e-05
1.29466e-06
-1.61941e-05
-1.00994e-05
4.19804e-05
-2.3929e-05
1.89697e-05
6.25398e-06
1.4593e-05
-5.47161e-05
-1.09835e-05
1.98538e-05
-1.18193e-05
1.77939e-05
1.39633e-05
1.47309e-05
-4.64882e-05
4.14954e-07
1.97065e-05
-2.32749e-06
1.34714e-05
9.06876e-07
-1.43725e-05
-1.04147e-05
3.82585e-05
-1.68655e-05
3.39993e-06
-1.13629e-05
2.06548e-05
-1.34975e-05
1.27483e-05
5.6514e-07
-1.31364e-05
-1.77086e-07
-1.3548e-05
-7.03752e-06
3.33339e-05
8.51789e-07
-1.38347e-05
-2.05317e-05
1.8949e-05
2.43448e-06
1.34669e-05
-4.78333e-05
-1.14694e-05
2.33808e-05
-1.11388e-05
4.89491e-07
1.74341e-05
-1.64237e-05
-1.49988e-06
1.25754e-05
-1.24808e-05
3.94954e-07
-1.23649e-05
4.23744e-05
1.24553e-05
8.39773e-06
1.22821e-05
5.6814e-07
-7.62148e-06
7.53867e-06
-1.56475e-05
-3.49692e-06
-2.23586e-05
1.39913e-05
1.18643e-05
-1.22866e-05
-4.52057e-06
1.33103e-05
7.79557e-06
-4.24408e-05
2.25042e-05
-9.6377e-06
-1.7387e-05
-1.3596e-06
3.71741e-05
-1.61516e-05
2.87833e-05
-1.79937e-05
-5.12294e-06
-1.46671e-06
2.31252e-06
4.27713e-06
5.42271e-06
6.14578e-06
-1.66914e-05
6.90018e-06
-2.94418e-06
2.1687e-06
-6.88072e-06
7.02453e-06
-5.4041e-06
1.18499e-05
2.4575e-06
-3.19244e-06
3.95358e-06
-1.6043e-06
3.08701e-06
1.40572e-06
-2.88843e-06
3.68024e-06
-3.01316e-06
-2.27138e-06
-1.90067e-06
8.66791e-06
-3.73258e-06
2.28476e-06
2.85354e-06
7.25221e-07
-7.34622e-06
1.65594e-06
-3.94388e-06
2.04003e-06
2.40644e-06
-3.80393e-07
-2.21126e-06
1.85215e-07
-3.48208e-06
9.4147e-07
4.94706e-06
-8.59894e-07
-3.00258e-06
1.82651e-06
2.72107e-06
-6.75884e-06
1.20927e-06
8.02458e-07
-2.04341e-06
4.19416e-06
-1.82239e-07
3.69578e-06
-3.0089e-07
-3.38482e-06
-1.00705e-08
-4.43643e-06
-4.44431e-06
1.25765e-05
-6.50923e-06
1.77191e-06
1.90664e-06
4.22782e-06
-9.51928e-06
4.43043e-06
-2.53387e-06
-1.34287e-06
1.32899e-06
-3.62428e-06
1.18042e-05
-2.17699e-07
-1.16254e-05
3.88987e-08
-1.42585e-05
-9.75056e-06
3.58133e-05
-1.3971e-05
-5.0518e-07
1.36269e-05
9.65312e-06
-3.49054e-05
1.37284e-05
-6.26078e-08
-8.32744e-06
1.23053e-05
-1.26454e-05
-1.49957e-06
-4.28238e-06
-4.23276e-06
1.00147e-05
-8.93497e-07
-3.836e-06
3.22993e-06
-1.06047e-06
-4.11541e-06
-2.97292e-06
5.52279e-06
-3.61033e-06
5.8203e-06
-1.29086e-05
-8.09303e-07
2.7936e-06
4.80726e-07
-4.83309e-06
-3.50176e-06
-5.79077e-06
1.41256e-05
2.5953e-06
-4.76249e-06
-2.66591e-06
-8.76568e-06
7.85923e-06
3.68028e-06
8.93047e-06
-1.73732e-05
1.06354e-05
-9.62102e-06
5.08789e-06
-4.9231e-06
9.93251e-06
-1.75392e-05
-4.27892e-06
1.20441e-05
9.774e-06
1.02638e-05
3.33617e-06
-3.11392e-05
-3.78752e-06
9.7724e-06
1.72191e-05
-1.87301e-05
-2.27644e-06
-6.40164e-06
3.33931e-05
1.48141e-05
-3.02081e-05
2.04566e-05
1.17339e-05
4.06354e-05
2.39747e-05
-7.63439e-05
4.34226e-07
-6.46821e-08
1.13643e-05
3.54351e-05
5.63453e-06
1.58124e-05
-1.65496e-05
6.72518e-07
-6.03154e-06
3.32082e-05
1.27682e-05
-4.69149e-05
1.75971e-05
-2.89228e-05
3.56595e-05
-7.39713e-05
8.04835e-05
-9.69115e-05
1.71396e-05
1.13003e-06
-3.5022e-05
8.53699e-05
1.76753e-06
1.5263e-05
-9.30798e-07
-1.58142e-05
1.48201e-06
-1.72697e-05
-1.01215e-05
4.26543e-05
-1.8272e-05
7.14247e-08
2.23908e-05
1.58468e-05
-5.40517e-05
2.08036e-05
3.06914e-06
-1.35455e-05
2.42276e-05
-1.59707e-05
-2.43308e-05
-5.45672e-07
2.51159e-05
-2.39462e-07
2.53468e-05
-6.56483e-05
2.48726e-05
-2.93846e-05
1.99589e-05
-2.52703e-05
-4.92148e-06
9.08706e-06
2.11047e-05
9.27149e-06
-1.38549e-06
-3.31563e-05
-4.47203e-06
8.82204e-06
1.2689e-05
-1.9044e-06
-1.52567e-05
1.97965e-06
1.95314e-05
1.29135e-05
-1.62034e-05
2.39802e-05
6.87087e-06
-3.38665e-06
-6.81625e-06
3.33203e-06
-1.00944e-05
-2.47255e-06
1.94378e-05
-7.69294e-06
-5.78806e-06
9.99062e-06
1.44898e-06
-1.82558e-05
6.75877e-06
6.56388e-06
-7.04757e-06
1.13338e-05
-1.32915e-05
-5.31218e-06
3.95702e-06
4.88419e-06
-3.52903e-06
1.12979e-05
-2.30954e-06
-1.43006e-05
2.08035e-06
1.31746e-05
-9.71366e-06
1.13591e-06
1.34619e-05
-3.01326e-06
-1.02294e-05
8.10384e-06
-1.34266e-05
1.13201e-05
-9.26222e-06
6.21877e-06
8.78749e-06
-5.74404e-06
1.66891e-05
1.25304e-06
-2.72043e-05
6.89325e-06
1.60146e-05
-2.13521e-05
-1.30241e-06
3.1442e-05
-8.69876e-06
-1.83974e-05
1.43516e-05
-2.17973e-05
1.99424e-05
2.42152e-07
-3.18262e-06
4.73485e-07
2.46698e-06
-5.28759e-06
4.35413e-06
1.17561e-06
2.44546e-06
-1.09157e-05
2.53482e-06
-3.54549e-06
1.48415e-06
-2.66945e-06
7.67125e-06
-3.48534e-06
5.17002e-06
-4.58537e-06
-6.47363e-06
-3.31364e-06
3.25215e-06
6.53512e-06
4.33177e-06
1.54292e-06
-1.23483e-05
-3.16311e-06
4.18123e-06
8.86013e-06
-3.9638e-06
-8.05944e-06
-1.38315e-06
1.44245e-05
4.26361e-06
-6.6845e-06
6.13262e-06
-5.98575e-06
4.76486e-06
5.20155e-06
-3.98066e-06
1.43373e-05
-1.57959e-06
-1.87435e-05
1.18428e-06
1.79179e-05
-9.07097e-06
1.6777e-06
1.25948e-05
-1.09481e-06
-1.19568e-05
5.31307e-06
-7.98747e-06
8.17505e-06
-3.74021e-05
-1.89558e-05
-7.98323e-06
6.43412e-05
5.35426e-06
-2.50012e-05
-1.77551e-05
-1.77083e-05
4.10667e-06
2.6984e-05
7.87057e-06
-5.25628e-05
1.77919e-05
1.32988e-05
2.86329e-05
-4.57635e-05
3.84415e-05
-1.52994e-05
-2.26388e-05
-1.10369e-05
4.89752e-05
1.16319e-06
-1.58673e-05
-5.95377e-07
-2.17075e-05
2.31873e-07
3.80959e-05
3.80439e-05
-9.78472e-05
3.78962e-05
4.31564e-07
-5.85033e-06
3.27096e-05
1.63263e-05
-7.32302e-07
1.7579e-05
-1.90747e-05
2.22798e-06
1.42912e-05
-1.45077e-05
-5.15754e-07
-8.16809e-06
4.00383e-05
2.1468e-05
1.09266e-05
-4.69023e-05
2.28255e-05
-1.87318e-06
2.27317e-05
-3.08799e-05
3.73891e-05
-1.71159e-07
1.3945e-06
1.24979e-06
-2.47313e-06
1.42167e-06
6.54142e-07
-2.24698e-06
1.56489e-06
1.25128e-06
-7.06603e-07
-1.21352e-06
3.48502e-06
-1.89621e-06
2.44089e-06
-1.0734e-07
-4.52044e-07
-7.53762e-07
-3.23193e-07
1.31753e-06
2.81552e-06
-3.80985e-06
1.79731e-06
7.4099e-07
-2.86149e-06
9.21733e-07
2.1931e-06
9.07452e-07
-1.95117e-06
1.96545e-06
-2.04702e-06
5.14757e-06
8.24753e-07
-2.03494e-06
1.59325e-06
-2.5796e-06
-1.04985e-06
2.99528e-06
6.34167e-07
1.46669e-06
6.66779e-06
-1.07141e-05
6.10698e-06
-5.69013e-06
-2.24571e-06
-5.77324e-06
1.10142e-05
-3.96791e-06
2.35637e-06
-2.91111e-06
5.61099e-06
-2.57737e-06
5.2099e-06
-7.75514e-07
1.12706e-05
-1.5705e-05
-5.17467e-06
4.786e-06
5.59857e-06
9.89032e-06
-1.58405e-05
7.7495e-07
-9.93946e-06
1.39505e-05
-1.04006e-05
1.67742e-05
-1.64353e-06
2.9747e-06
-2.15385e-06
-1.20952e-05
-5.80686e-06
4.46036e-06
1.34417e-05
7.56717e-06
-2.78369e-06
-1.68786e-05
-5.19851e-06
6.95882e-06
1.33322e-05
-5.50429e-06
-1.30264e-05
-6.31608e-07
2.09226e-05
7.65839e-06
-1.59464e-05
1.14871e-05
-3.28184e-06
-6.859e-06
-1.01088e-05
2.02496e-05
-3.57525e-06
-9.6511e-06
9.94452e-06
-3.57356e-06
-6.86069e-06
-4.52527e-06
1.30367e-05
-1.2085e-05
1.09053e-05
-2.22913e-05
9.80125e-07
2.74109e-07
3.90806e-06
-2.24122e-06
1.6355e-05
-1.54964e-05
1.38265e-06
1.3208e-05
-1.35059e-05
-1.94329e-06
-9.65856e-06
3.92215e-05
1.4731e-05
1.10235e-05
-3.92604e-05
1.6838e-05
-4.0503e-06
-1.4938e-05
2.21175e-05
-1.94109e-05
-1.18414e-05
-1.06867e-05
-1.0738e-05
3.32661e-05
-1.76512e-06
-1.60537e-05
5.97743e-06
1.14975e-07
-1.25668e-05
-1.62015e-05
1.55508e-05
7.65648e-07
1.72049e-05
-4.59731e-05
6.70634e-06
-5.55519e-06
1.15191e-05
-3.8988e-06
8.29567e-06
1.73142e-06
-6.12829e-06
1.19128e-05
-3.7311e-07
-1.54385e-05
6.49326e-07
1.95591e-05
-1.0232e-05
8.53731e-06
3.42614e-06
1.89321e-07
-1.65496e-05
8.3208e-06
-8.50459e-06
1.75074e-05
-6.2794e-08
-1.03901e-05
-9.29168e-07
1.13821e-05
-1.31292e-05
1.28757e-05
1.9067e-07
3.7515e-06
-2.72708e-05
1.64947e-05
-1.54912e-05
-1.93266e-06
-8.32022e-06
3.6197e-05
-1.51219e-05
1.96774e-05
-2.68616e-05
1.88935e-06
-2.92773e-06
-2.2136e-06
3.25198e-06
-8.57643e-06
3.03331e-07
1.01625e-05
-3.18067e-06
-8.32349e-06
8.78661e-06
2.25711e-06
-1.32573e-05
4.18656e-06
7.85203e-06
-7.14497e-06
1.16349e-05
-8.06853e-06
-1.15112e-05
-3.3025e-06
6.56361e-06
8.25007e-06
5.05931e-06
6.19014e-06
-2.27606e-05
-1.62461e-06
3.38142e-06
1.06988e-05
-1.07645e-05
-1.55889e-06
-3.46176e-06
1.7542e-05
1.00767e-05
-1.4651e-05
1.31785e-05
-4.41932e-07
-1.92872e-05
1.90047e-05
7.24429e-07
-1.51421e-05
1.53528e-05
-6.52613e-07
1.08282e-05
-4.52575e-05
-1.93647e-05
-1.09512e-05
4.56686e-05
-1.89664e-05
-1.05088e-06
-1.58472e-05
2.39008e-05
-2.39854e-05
5.48456e-06
2.03155e-06
-2.25202e-06
-5.26408e-06
-1.44478e-06
6.35211e-07
6.29413e-06
4.67527e-06
-4.0885e-06
-1.33432e-05
2.98428e-06
1.50341e-05
2.40186e-06
-1.98335e-05
-7.57132e-06
1.11908e-05
-7.42148e-06
-5.99325e-06
2.84967e-06
8.17378e-06
-5.0302e-06
4.42512e-06
-5.29498e-07
-9.88887e-06
6.49598e-06
7.78817e-07
-5.73308e-06
-4.06336e-06
1.62924e-05
3.72444e-07
-5.32671e-06
5.03436e-06
-5.19141e-06
9.14477e-06
1.10909e-05
8.02531e-06
1.91743e-06
-2.10337e-05
-5.77535e-09
6.91098e-06
4.1857e-06
7.65711e-06
3.62426e-07
-1.08266e-05
-3.82275e-06
2.23065e-05
-6.34022e-06
-4.12398e-06
-7.97473e-06
1.1063e-05
-1.23975e-05
-1.81798e-05
5.25641e-07
1.79172e-05
-2.63032e-07
1.59702e-05
9.74379e-06
-4.38937e-05
1.64024e-05
9.33969e-08
-2.97961e-05
-2.40741e-05
7.17874e-05
-2.94779e-05
-5.81225e-07
1.26514e-05
-3.23854e-05
4.9796e-06
-5.06046e-07
2.59336e-05
-2.53342e-05
2.09888e-05
-2.22319e-05
7.37039e-07
5.1902e-05
2.84426e-05
-9.76705e-05
-2.61747e-05
2.35238e-05
2.29202e-07
-2.29486e-05
-8.04413e-07
-1.85442e-05
-7.78453e-06
4.98526e-05
-1.93057e-05
9.90675e-07
4.67504e-05
4.20178e-05
-0.000111717
4.67711e-05
-8.25057e-07
-2.04251e-05
5.94117e-05
2.287e-06
2.513e-05
4.32256e-07
-2.45716e-05
-2.28647e-05
-2.69785e-05
2.74973e-05
-8.65238e-08
-4.92631e-05
6.40443e-05
-4.94205e-05
-1.65999e-05
-3.22521e-05
9.82726e-05
8.69044e-07
-5.04525e-05
1.62916e-07
8.24021e-05
-0.000100145
9.91251e-05
2.65605e-06
1.44486e-06
-2.46553e-06
-1.63538e-06
-1.01993e-06
-3.0662e-06
6.74218e-06
-2.96208e-06
3.38702e-06
6.22722e-07
3.97682e-06
-7.06507e-06
3.85582e-06
-4.86848e-06
2.85016e-07
5.04607e-07
1.29976e-06
4.13256e-07
7.01494e-06
-7.34919e-06
-7.90037e-08
8.42496e-06
-9.74421e-06
1.73251e-06
-6.57499e-06
2.20149e-05
8.62235e-06
7.33979e-06
-2.33113e-05
8.34594e-06
1.97404e-07
4.26876e-06
-6.67318e-06
6.03972e-06
-8.12137e-06
-2.52812e-06
8.88469e-06
1.7648e-06
7.51153e-06
4.8272e-06
-2.04601e-05
9.32878e-06
-4.34537e-06
-1.16278e-05
-9.06937e-06
2.95819e-05
-1.31071e-05
3.24407e-06
9.49062e-06
-1.77705e-05
9.75002e-06
6.51397e-06
9.40278e-06
1.36221e-06
-1.7279e-05
1.8727e-06
-2.99251e-06
7.63378e-06
6.93011e-06
1.56567e-05
-4.65355e-06
-1.39956e-05
-1.08862e-06
2.43791e-05
-1.02111e-05
1.60526e-05
-1.35024e-05
1.19559e-06
-6.42988e-06
6.63304e-06
-1.39875e-06
-6.13617e-06
2.13847e-06
5.19328e-06
6.01756e-06
-1.85836e-05
4.78918e-06
-9.95512e-06
7.30441e-06
-6.61201e-06
1.65945e-05
3.10847e-06
-7.04603e-06
3.1295e-06
1.77275e-06
-1.70061e-06
2.29816e-06
-2.3703e-06
-1.3495e-06
2.71752e-06
4.04733e-07
5.16615e-06
-8.21626e-06
-2.03733e-06
-3.44616e-06
8.20101e-06
-2.63021e-06
9.97614e-07
-2.25902e-07
1.94589e-06
-5.57954e-07
1.80911e-06
4.25054e-06
-1.44631e-06
-4.61334e-06
2.6319e-06
-5.61828e-06
4.79549e-06
-6.27313e-06
1.31556e-05
-2.87962e-06
5.38769e-06
-3.95438e-06
2.91034e-06
-1.04033e-05
1.38924e-06
-4.09718e-06
5.03806e-07
-8.01721e-06
-4.22738e-06
7.85654e-07
1.14589e-05
2.66159e-06
-6.85811e-07
-9.99299e-06
-3.76858e-06
2.20279e-06
7.92366e-06
-1.2135e-06
-1.04787e-05
2.33579e-06
7.79066e-06
5.42677e-06
-7.32608e-06
8.54821e-06
4.96461e-07
-9.68817e-06
-1.72147e-08
9.20892e-06
-1.4017e-05
1.32307e-05
1.28274e-06
9.23134e-06
-3.29365e-05
9.2686e-06
-9.51727e-06
2.31452e-07
-6.31656e-06
2.47941e-05
-7.68215e-06
1.45963e-05
-7.96808e-06
1.04457e-05
-9.6308e-06
-5.83425e-07
-1.6814e-05
5.20538e-05
1.01245e-05
-2.77233e-05
1.16183e-05
-2.0773e-06
9.40062e-06
2.07969e-05
1.32489e-05
8.33948e-06
-4.23853e-05
-3.53837e-06
1.59434e-05
8.39189e-06
-2.11367e-06
1.18242e-05
1.36004e-05
-1.28905e-05
-2.82353e-06
-7.88151e-06
3.33061e-05
-1.0795e-05
1.88569e-05
-1.5346e-05
1.17659e-05
6.65198e-06
2.54933e-06
-2.09672e-05
-2.8355e-06
3.03334e-06
1.1568e-05
6.44806e-06
-2.63159e-06
-1.02053e-05
1.00476e-07
1.65529e-05
-4.2966e-06
-8.54033e-06
-5.80952e-06
8.94333e-06
-7.55679e-06
3.08796e-07
-3.79186e-06
-8.72785e-06
1.22109e-05
-3.32056e-06
-6.76323e-06
1.03926e-05
-2.40123e-06
-4.71119e-06
-4.31062e-06
8.80452e-06
-6.89513e-06
1.1259e-05
-2.02809e-05
-1.90492e-06
3.94621e-06
6.26278e-07
8.56719e-07
-1.05093e-06
2.11442e-06
-1.92021e-06
2.4848e-06
1.5072e-06
-3.13528e-06
2.92661e-06
-1.49274e-06
-6.63207e-06
-3.97771e-06
1.27242e-05
-8.73485e-06
1.82568e-07
-1.62122e-06
-8.49297e-07
-7.42946e-06
6.62236e-06
1.90766e-06
-8.502e-07
-7.67982e-06
-3.69811e-06
-7.71216e-08
1.03976e-05
7.83412e-07
-2.57386e-06
-3.93937e-06
1.82303e-07
4.54048e-06
-2.99097e-06
-3.52226e-06
-3.9452e-06
4.05038e-06
-7.78637e-06
-1.46435e-06
2.05911e-06
4.25625e-07
-1.02039e-06
8.73837e-07
1.64933e-06
-3.98752e-06
3.1992e-06
-2.66246e-07
-3.55944e-06
-5.84956e-07
7.34359e-06
1.0397e-06
-4.86538e-06
-1.95203e-06
3.0164e-06
-4.86705e-07
1.00741e-05
-3.03276e-07
-1.00802e-05
3.09284e-07
-1.13144e-05
-9.23057e-06
3.06191e-05
-1.33685e-05
1.7509e-06
1.12073e-05
9.77709e-06
-3.10646e-05
1.08838e-05
6.3285e-07
-6.70899e-06
8.3622e-06
-1.03004e-05
-6.8475e-06
1.67742e-06
1.20393e-05
-6.86918e-06
8.09997e-06
9.62937e-06
-2.45768e-05
1.42046e-06
8.35693e-06
7.84549e-06
-1.22757e-05
5.85063e-06
-9.82818e-06
2.60306e-05
4.31119e-06
-6.95748e-06
6.52226e-06
-7.20637e-06
7.28043e-07
7.06315e-06
-5.84827e-07
9.33892e-06
5.91067e-06
-2.2456e-05
9.38363e-06
6.83332e-07
-8.44711e-06
-4.70524e-06
2.02155e-05
-8.8674e-06
-1.6454e-07
7.26058e-06
-1.02173e-05
1.1939e-05
-1.66913e-05
4.2633e-07
1.60406e-05
2.24372e-07
1.55492e-05
9.854e-06
-4.20945e-05
1.54463e-05
5.2921e-07
-2.60132e-05
-2.09985e-05
6.30523e-05
-2.58298e-05
4.09046e-08
1.1219e-05
-2.71948e-05
5.66687e-06
5.29274e-07
2.41066e-05
-2.41066e-05
1.81012e-05
-1.80471e-05
4.75167e-07
4.78747e-05
2.83661e-05
-9.45672e-05
-1.68759e-05
-8.36426e-06
1.3975e-05
4.5783e-06
-1.01891e-05
3.54542e-05
-1.81566e-05
-2.56619e-05
-2.49698e-06
5.19262e-05
-1.28657e-05
9.19892e-06
8.24504e-06
2.20423e-06
-2.5259e-05
2.28011e-05
-3.87535e-05
2.95031e-05
-8.77944e-07
-4.8173e-08
1.94891e-06
-1.02279e-06
1.89429e-06
2.0474e-06
-4.81964e-06
5.01458e-06
-3.16846e-06
-2.90845e-06
-5.26981e-06
1.01272e-05
-2.24747e-06
-1.68377e-06
-2.00172e-07
1.04892e-10
-4.55406e-07
-2.0424e-07
-1.82346e-06
1.73819e-07
1.85388e-06
-8.33058e-07
-1.12265e-06
1.75146e-06
4.44059e-07
-3.10058e-06
2.01723e-06
6.17978e-07
-2.46139e-06
2.34719e-06
1.52393e-06
-6.56884e-07
1.88142e-06
4.05153e-07
-4.00185e-07
-3.63756e-06
3.6274e-06
4.1035e-07
-5.97086e-06
7.47794e-06
-1.90727e-06
6.23487e-06
8.62649e-06
-1.72293e-06
1.28283e-05
5.81843e-06
8.26788e-07
1.2722e-05
1.62141e-06
2.66948e-06
6.16284e-07
-4.90717e-06
-5.7527e-07
1.33711e-06
8.59567e-07
-3.94776e-07
2.48899e-06
-2.70781e-06
3.20605e-06
8.38868e-07
5.83729e-06
-7.92882e-06
6.2693e-06
1.19643e-05
5.1697e-06
7.828e-06
4.03342e-06
1.99584e-06
1.27003e-05
-1.24652e-05
-1.01666e-05
-1.03604e-05
3.29922e-05
-2.52513e-07
-1.28885e-05
6.75848e-07
-9.97338e-06
-4.45726e-07
9.81391e-06
7.52826e-06
-2.73156e-05
1.05697e-05
-1.20147e-06
5.55736e-06
-1.09176e-05
5.7666e-06
-1.63008e-05
1.49232e-06
1.60303e-05
-1.22185e-06
1.31183e-05
1.05706e-05
-3.99897e-05
1.57004e-06
1.30406e-05
1.48281e-05
-1.67446e-05
3.48653e-06
-1.19339e-05
3.98026e-05
1.15488e-05
-1.77228e-05
1.56452e-05
3.86528e-06
-1.82339e-06
-2.88388e-06
8.41999e-07
-6.63504e-06
-1.07791e-06
1.15782e-05
-4.14799e-06
-4.31044e-06
-7.37874e-07
2.82387e-06
-4.96988e-06
5.03502e-06
-4.9309e-06
-2.13943e-06
6.09655e-06
-3.46355e-06
1.14902e-08
5.62055e-07
-5.53299e-06
4.95944e-06
-8.83964e-07
1.55658e-06
-6.6113e-07
-8.19073e-07
4.97173e-07
-2.39198e-06
9.00797e-07
3.04777e-06
6.50581e-06
-9.55892e-06
-2.39394e-07
3.21119e-07
7.33428e-07
1.0433e-05
3.69822e-06
-1.02099e-05
-3.92139e-06
-8.01758e-06
-3.11906e-06
2.15697e-05
6.02267e-06
-1.0342e-05
-2.14416e-05
1.20175e-05
1.54467e-05
4.74034e-06
-3.65239e-05
-1.32824e-05
2.21808e-05
-1.87519e-05
-1.01142e-06
-8.87637e-06
2.03785e-06
7.84993e-06
-1.02736e-05
1.3964e-05
-4.70186e-06
1.10549e-05
-3.02048e-05
9.6811e-06
-1.58963e-05
8.25308e-06
-9.85604e-06
2.73871e-05
-9.60018e-06
1.37081e-05
-1.44416e-05
-1.1099e-06
2.68038e-06
3.94661e-06
-5.5171e-06
1.96009e-06
6.95034e-06
-1.00203e-05
3.30043e-06
1.34005e-06
3.06272e-08
-3.51545e-06
6.78525e-06
-3.32217e-06
4.69284e-06
6.40824e-07
2.79406e-06
1.26527e-06
2.7751e-07
3.59534e-06
7.43812e-06
-1.1311e-05
4.05564e-06
7.65167e-06
-1.14298e-05
3.50686e-06
4.14411e-06
3.22023e-07
-7.30843e-06
1.04933e-05
-7.60747e-06
1.20736e-05
-1.17677e-06
1.52e-06
-1.34611e-06
-9.46283e-06
-3.4431e-06
3.53198e-06
9.37395e-06
4.32244e-06
1.39593e-06
-1.51812e-05
-1.72496e-06
2.6043e-06
3.73083e-06
-3.09139e-06
-2.3644e-06
-5.83039e-07
6.91817e-06
3.89698e-06
-5.59244e-06
6.84592e-06
-1.10938e-07
-1.17001e-06
2.39631e-06
-1.11536e-06
-3.13442e-06
-8.10237e-07
3.83372e-06
-4.86402e-06
5.59593e-07
-4.53583e-06
4.46015e-07
6.48612e-06
-1.05167e-06
-4.59951e-06
-2.20114e-07
-1.6418e-06
-4.63812e-06
-1.06258e-05
8.56237e-08
1.04603e-05
7.98411e-08
2.24695e-05
7.10114e-06
-4.01964e-05
2.24273e-05
1.27832e-07
-3.76872e-05
-3.31702e-05
9.32846e-05
-3.71831e-05
-3.7623e-07
-6.25053e-06
-1.64594e-05
-3.63325e-05
1.0645e-05
1.09774e-07
-1.10432e-05
2.88405e-07
-1.85223e-05
-6.57996e-06
3.57473e-05
-1.81964e-05
-2.16154e-07
7.06466e-06
-3.93982e-05
2.12904e-05
-3.78091e-05
3.82938e-05
3.75544e-05
-9.5149e-05
-4.70832e-07
1.59915e-05
3.76909e-05
-9.38787e-05
-3.88046e-07
9.70331e-07
3.65321e-07
2.43752e-06
3.00488e-07
-3.10332e-06
3.3754e-06
-4.51946e-06
1.50938e-06
-1.80065e-06
7.61356e-06
-4.76811e-06
3.93739e-06
1.1312e-06
3.72176e-06
-1.15932e-05
3.64418e-06
-4.44188e-06
5.78092e-06
-1.36823e-05
-1.34579e-05
-8.10617e-06
3.52464e-05
4.12156e-07
-1.31384e-05
-9.56105e-07
-1.33441e-05
2.9831e-07
1.85741e-05
1.27479e-05
-4.46661e-05
1.80195e-05
8.52899e-07
1.01991e-05
-1.05896e-05
2.01124e-05
1.65045e-05
1.98391e-05
1.28448e-05
-4.91885e-05
-2.87077e-08
1.66059e-05
-7.26145e-08
1.98727e-05
-6.22757e-08
-1.99777e-05
-1.29592e-05
4.95428e-05
-1.97904e-05
-2.59983e-07
1.38947e-05
-2.08403e-05
2.08083e-05
1.30301e-05
1.5971e-05
6.38547e-06
-3.53866e-05
1.06018e-06
-1.82763e-06
1.37975e-05
1.60391e-05
9.92099e-07
1.43676e-05
-1.01543e-05
-6.04097e-06
-7.49076e-06
3.56559e-05
-1.0852e-05
1.94004e-05
-1.46209e-05
3.1846e-06
-2.25718e-06
-2.68929e-06
1.76187e-06
-3.98073e-06
1.9677e-06
5.19763e-06
7.90495e-07
-7.02841e-06
4.88988e-06
-2.73241e-06
-4.84676e-06
-6.6267e-07
7.31442e-06
-3.19326e-06
4.49829e-06
-5.13518e-06
-9.87341e-06
-2.24054e-05
-6.40917e-06
3.86879e-05
3.71796e-07
-9.75879e-06
-4.86416e-07
-2.17206e-05
-3.13003e-07
-6.26142e-06
-3.73135e-05
3.71658e-05
-3.42007e-05
1.81805e-05
3.63378e-05
-9.22591e-05
-1.28875e-06
1.76287e-05
6.5352e-08
-3.82505e-05
-1.01938e-06
9.32014e-07
-6.8316e-07
-1.35105e-06
1.10219e-06
3.78821e-07
-3.11544e-06
3.66863e-06
-1.71273e-06
1.4084e-06