/*--------------------------------*- C++ -*----------------------------------*\
| =========                 |                                                 |
| \\      /  F ield         | OpenFOAM: The Open Source CFD Toolbox           |
|  \\    /   O peration     | Version:  v2012                                 |
|   \\  /    A nd           | Website:  www.openfoam.com                      |
|    \\/     M anipulation  |                                                 |
\*---------------------------------------------------------------------------*/
FoamFile
{
    version     2.0;
    format      ascii;
    class       volVectorField;
    location    "0.5";
    object      U;
}
// * * * * * * * * * * * * * * * * * * * * * * * * * * * * * * * * * * * * * //

dimensions      [0 1 -1 0 0 0 0];


internalField   nonuniform List<vector> 
24700
(
(0.0185792 -1.74955 0.0190355)
(-0.00739057 -1.69571 0.0106737)
(-0.00542554 -1.64407 0.00260179)
(0.0726271 -1.4445 -0.0170872)
(0.0319774 -1.55904 -0.038003)
(0.0795943 -1.51184 -0.0558372)
(0.0571574 -1.56306 -0.0480457)
(-0.01057 -1.48965 0.00486374)
(0.0802634 -0.896042 -0.0189974)
(0.0254468 -1.39605 -0.0228135)
(-0.00258146 -1.46774 -0.0221576)
(-0.00358308 -1.49896 0.00437766)
(4.51304e-06 -1.48508 -0.0206799)
(0.00427315 -1.47098 -0.0191542)
(0.00598506 -1.48445 0.00356409)
(-0.0016539 -1.49523 0.000571914)
(-0.00207528 -1.48955 -0.0163575)
(-0.00464964 -1.57124 0.0184688)
(0.0329029 -1.54403 0.0213318)
(0.00213537 -1.67371 0.0958151)
(0.0435066 -1.45258 0.00406467)
(0.008871 -1.49766 -0.000298404)
(0.0253568 -1.44569 0.00775363)
(0.00451457 -1.57596 0.052952)
(0.0517191 -1.43852 -0.00187831)
(0.00774856 -1.51485 -0.0054202)
(0.0455769 -1.20917 -0.00199001)
(-0.0114608 -1.50157 0.0100063)
(-0.0269736 -1.50461 -0.0304715)
(0.119767 3.38227 -1.78299)
(0.0651115 3.57933 -1.70718)
(-0.183737 3.34437 -1.72438)
(-0.086869 3.73817 -1.82048)
(-0.144525 3.93698 -1.6977)
(-0.118844 3.15938 -1.39789)
(-0.262188 3.38859 -1.57859)
(-0.0146793 1.41802 -0.547569)
(0.00915026 1.29902 -0.478294)
(-0.00330023 1.42966 -0.607702)
(0.0124484 1.34724 -0.514125)
(-0.00959415 1.44251 -0.564939)
(0.0235758 1.25829 -0.410873)
(-0.01994 1.45331 -0.501618)
(0.0371927 0.415894 -0.341054)
(-0.000959946 0.135376 -0.0811661)
(0.0998688 0.286114 -0.327289)
(-0.109542 0.354073 -0.241251)
(-0.106053 0.324528 -0.0633735)
(-0.099932 0.137533 0.0616687)
(-0.0430624 0.282871 -0.210734)
(0.0280954 0.651185 -0.936114)
(0.0236083 1.09843 -0.830362)
(-0.0749692 0.980982 -1.11345)
(-0.0710309 1.10836 -0.781674)
(-0.00215052 1.06171 -0.745798)
(-0.0662832 0.795143 -0.842382)
(-0.04759 0.940851 -0.973775)
(-0.0889567 -0.810621 -0.123276)
(0.0437561 -0.58055 1.39979)
(0.300192 -1.13857 -0.879906)
(0.207877 -1.20264 -0.580865)
(-0.0951498 -1.04611 -0.0249161)
(0.213748 -1.80192 -1.03754)
(-0.116859 -1.30453 -0.50765)
(-0.000935208 -0.357535 0.428194)
(-0.00844093 -0.330846 0.379005)
(-0.0777121 -0.364119 0.482561)
(-0.029528 -0.554098 0.6909)
(0.0286501 -0.632046 0.452644)
(0.0274601 -0.501303 0.385853)
(-0.0562718 -0.498269 0.642162)
(0.00982356 -1.03937 0.0429488)
(-0.000577115 -0.880869 0.025276)
(-0.0254056 -1.06485 0.0266024)
(0.000725005 -0.997018 0.0655286)
(-0.0181165 -1.21596 0.102898)
(-0.0412779 -1.22554 0.0370209)
(0.0130932 -1.02645 0.037324)
(0.0115409 -1.52203 -0.0893503)
(-0.0141264 -1.37855 -0.0257981)
(0.00147732 -1.53321 -0.0809464)
(-0.0349001 -1.53762 -0.0675987)
(0.0101589 -1.32993 -0.0988611)
(-0.0057812 -1.52752 -0.106714)
(-0.0138391 -1.53653 -0.094551)
(-0.00192054 -1.39913 -0.047289)
(0.00171616 -1.39075 -0.006703)
(-0.0288978 -1.41601 0.0169723)
(-0.0357938 -1.50638 -0.0868473)
(0.0225378 -1.53777 -0.0806814)
(-0.00803102 -1.46069 -0.0355511)
(-0.0516311 -1.45011 -0.00533692)
(0.166118 -0.133636 0.232847)
(-0.00565946 -0.112863 0.444699)
(0.0537586 -0.050159 0.667068)
(-0.125667 -0.197235 0.545275)
(-0.0935877 -0.32814 0.316977)
(0.0673547 -0.212755 0.407712)
(0.128402 -0.251257 0.197668)
(0.00471177 -0.0612441 -0.390891)
(-0.0188613 -0.191725 -0.333119)
(-0.0150256 -0.297034 -0.380513)
(-0.0150194 -0.071449 -0.226625)
(0.0282122 -0.0220144 -0.31258)
(0.0364737 -0.0724787 -0.280046)
(0.0782872 -0.147309 -0.312039)
(0.0857405 -0.0784713 1.90342)
(-0.0141583 0.0737937 1.44083)
(0.0156463 0.359506 1.00568)
(0.116569 0.435845 1.12517)
(0.276952 0.263413 1.31237)
(0.167858 0.295394 1.6269)
(0.249595 0.168585 2.13537)
(-0.0296766 2.42752 -0.11336)
(-0.0442621 2.68749 0.0740188)
(0.00891811 2.76982 0.172254)
(-0.0214475 2.49996 0.127345)
(0.035826 2.40634 0.010399)
(0.0405977 2.29556 -0.0122786)
(-0.0420826 2.43828 0.108032)
(0.0456572 2.11709 -0.00464357)
(0.027881 2.55157 0.130076)
(-0.0300739 2.64556 0.0950925)
(-0.0947794 3.08078 1.24877)
(-0.0392391 3.06928 1.56342)
(0.020539 2.76108 1.15815)
(0.0390386 3.61599 1.40157)
(-0.0465683 3.03102 0.705691)
(-0.0489654 3.69775 1.55272)
(-0.0713727 3.25301 0.941031)
(0.192991 3.28408 1.01389)
(-0.143777 4.35529 0.821962)
(0.0214455 3.34598 1.15154)
(0.0806046 2.84539 1.19631)
(-0.138498 3.11405 0.944981)
(0.0451883 0.958596 -0.0640271)
(0.000897396 0.876123 -0.292102)
(-0.0147867 0.888807 -0.208666)
(-0.00161446 0.775201 -0.382027)
(0.0050555 0.741285 -0.407479)
(0.00585187 0.780288 -0.39455)
(-0.0139097 0.762925 -0.35263)
(0.00384069 -0.436209 0.221384)
(0.0325194 -0.3717 -0.0336157)
(0.101063 -0.335067 0.0808253)
(-0.0234262 -0.303605 0.20247)
(-0.0961438 -0.265179 0.120838)
(0.0634853 -0.328565 0.111421)
(0.0924798 -0.253208 0.194999)
(0.00362061 0.506111 0.453342)
(-0.0579536 0.403284 0.623472)
(0.00507894 0.734789 0.423966)
(-0.0583399 0.622603 0.665823)
(0.0338728 0.721918 0.59053)
(-0.21283 0.420949 0.512371)
(-0.0708316 0.540767 0.512621)
(-0.321094 -1.61339 -0.192813)
(-0.087836 -1.50703 -0.166429)
(0.0312752 -1.304 -0.0899132)
(0.0120788 -0.970739 -0.0194636)
(0.124939 -0.966838 0.0465397)
(0.0173944 -1.08645 0.0455928)
(-0.292867 -1.27899 -0.0229176)
(-0.0135258 -1.07016 -0.128138)
(0.0115059 -1.2128 -0.154211)
(-0.0180478 -0.972825 -0.091024)
(-0.0157641 -1.13378 -0.15121)
(0.0286045 -1.26903 -0.229724)
(0.0547197 -1.36062 -0.173813)
(-0.0152964 -1.07933 -0.0562708)
(-0.0129446 -1.83027 0.0496716)
(0.144623 -1.59458 -0.2679)
(0.0396653 -1.78173 -0.211656)
(-0.100562 -1.68572 0.00927844)
(-0.00231117 -1.62367 -0.0394682)
(0.0737093 -1.69685 -0.325771)
(-0.0838344 -1.85603 -0.291072)
(0.0706642 -0.762071 -0.812464)
(0.0281987 -0.917905 -0.909925)
(0.0110185 -0.591031 -1.06599)
(-0.103022 -0.773615 -0.990034)
(-0.0426519 -0.534405 -0.990033)
(-0.0512686 -0.782345 -0.868499)
(-0.00456682 -0.584869 -0.854087)
(0.0311162 -1.64846 -0.0761766)
(0.00738314 -1.65605 0.0146104)
(-0.0103661 -1.51187 -0.262788)
(0.0116665 -1.65216 -0.12328)
(0.00912266 -1.63085 -0.166684)
(0.023358 -1.66251 -0.056834)
(0.046209 -1.67282 -0.0847641)
(0.0429075 1.08732 -0.946126)
(-0.00243003 1.01679 -0.848283)
(-0.00226189 0.970473 -0.910319)
(-0.0398539 0.942229 -0.855307)
(2.22177e-05 1.07858 -1.05365)
(-0.0209906 0.9757 -0.907287)
(0.032658 1.11343 -1.03037)
(-0.0671977 -0.39081 0.952562)
(-0.00642162 -0.712744 0.863676)
(0.0347689 -0.591742 1.12771)
(0.0831133 -0.680245 0.880767)
(-0.0338197 -0.568398 0.797027)
(-0.0776432 -0.373018 0.862821)
(0.0504566 -0.649898 1.04582)
(-0.000520043 -2.01987 0.0282772)
(-0.00262184 -2.00113 0.0380221)
(0.00693168 -2.02127 0.0126551)
(0.000913251 -2.00313 0.0502982)
(-0.00423787 -1.98028 0.0347495)
(0.000982606 -1.99931 0.0227769)
(-0.00470362 -2.00249 0.040957)
(-0.0223438 0.90662 0.153026)
(0.0229623 0.902403 0.20618)
(0.045185 0.902421 0.14811)
(-0.00815466 0.923583 0.0116369)
(0.037253 0.871493 0.134524)
(0.0941415 0.788692 0.210788)
(0.0498468 0.89306 0.122067)
(0.0861322 0.751094 0.14451)
(-0.00662297 0.677898 0.310719)
(0.0388113 0.65699 0.202708)
(-0.0598472 0.760482 0.296027)
(-0.00571111 0.813633 0.270173)
(0.0699672 0.780927 0.306765)
(0.151786 0.927171 0.319214)
(-0.254959 -0.200007 0.833209)
(-0.145137 -0.394195 0.744419)
(-0.0174658 -0.58241 0.696383)
(0.182219 -0.46846 0.683571)
(0.0714621 -0.214356 0.773409)
(-0.106275 -0.383589 0.772282)
(-0.178346 -0.228738 0.868579)
(-0.0772437 -1.15278 0.0731594)
(0.148575 -0.868765 0.166935)
(0.236162 -0.524067 0.476607)
(-0.0982324 -0.688598 0.345361)
(-0.0341337 -0.97643 0.0206697)
(0.0349637 -0.854687 0.0947808)
(0.00404345 -0.555553 0.476932)
(0.0125934 1.47163 0.55028)
(-0.0905644 1.6532 0.638275)
(0.0148044 1.58725 0.636082)
(0.0611578 1.36463 0.545301)
(0.0356357 1.39694 0.551021)
(0.00846816 1.48727 0.533413)
(0.0577652 1.42994 0.515991)
(-0.0253942 2.65529 -0.186301)
(-0.28602 2.0947 -0.0635973)
(0.035062 2.52335 0.0406362)
(0.0263222 3.06474 -0.0213725)
(0.000406232 2.73228 0.0749773)
(0.178124 2.61669 0.027863)
(-0.00552224 -0.0224723 -1.71388)
(0.0735485 0.0229378 -2.5564)
(0.122861 0.109782 -2.70558)
(-0.0251816 -0.0585733 -2.82619)
(-0.0238221 -0.0293256 -2.54501)
(0.0256108 0.0256247 -2.71166)
(0.0609275 -0.544037 -1.54313)
(0.0402444 -0.687201 -1.49942)
(-0.0381899 -0.625615 -1.40761)
(0.0455564 -0.583548 -1.237)
(-0.011542 -0.840975 -1.06949)
(0.1224 -0.840656 -1.2428)
(0.161182 -0.57106 -1.40006)
(-0.00171249 -0.975075 -1.27814)
(-0.0597717 -0.985918 -1.24542)
(-0.0143618 -0.795757 -1.31524)
(-0.0444413 -0.858431 -1.06307)
(0.0157297 -0.85015 -1.07102)
(-0.0564746 -0.948527 -1.16326)
(-0.0286621 -1.00031 -1.11128)
(0.0544003 -0.943955 -1.98644)
(0.010849 -0.917171 -1.80839)
(0.0700733 -0.977245 -1.8502)
(0.0196082 -1.06323 -1.47819)
(0.0593596 -1.06364 -1.55538)
(0.109917 -1.09116 -1.65222)
(0.0366795 -1.06186 -1.5408)
(-0.0201728 -0.499327 -1.76888)
(0.267297 0.0246361 -1.59978)
(-0.00362113 -0.18685 -1.65754)
(-0.0231911 0.141154 -2.24577)
(0.210108 0.214929 -2.35444)
(0.283309 0.0160414 -2.01274)
(0.0237085 0.226117 -2.22082)
(-0.0509121 -0.643224 -1.098)
(0.00347099 -0.712583 -1.22098)
(0.00838 -0.864499 -1.18399)
(-0.0488695 -0.997393 -0.853672)
(0.0431329 -1.06999 -0.928661)
(-0.00446596 -0.940256 -0.956757)
(-0.0909689 -0.838204 -0.871594)
(0.00488869 -1.07813 -0.410584)
(-0.0514153 -1.1049 -0.380878)
(0.0178339 -1.15059 -0.38744)
(0.0294819 -1.21033 -0.0333123)
(-0.0626381 -1.11296 -0.0797758)
(-0.090658 -1.14889 -0.103664)
(0.00615204 -1.2528 -0.107309)
(-0.0130049 -1.68232 -0.0414063)
(-0.00688263 -1.70242 0.051773)
(-0.0563832 -2.08573 -0.41549)
(0.0476887 -1.69669 0.0146867)
(0.0757802 -1.95414 -0.31947)
(0.0215869 -2.23023 -0.456101)
(0.023581 -1.73459 -0.0208751)
(-0.0286693 -1.01871 0.164078)
(-0.0562036 -1.13988 0.268961)
(0.0476496 -1.1653 0.295669)
(0.103089 -1.45809 0.200997)
(-0.0152362 -1.3039 0.110525)
(0.0156078 -1.27492 0.213039)
(0.159691 -1.40564 0.23628)
(-0.0595424 -0.347332 -0.0205606)
(-0.139442 -0.430198 -0.0917397)
(-0.00277786 -0.275665 0.156317)
(0.0580034 -0.390423 0.149315)
(0.0823723 -0.354174 0.129171)
(-0.0582136 -0.457003 0.0384721)
(-0.000527731 -0.382064 0.0671182)
(0.0322503 -0.179897 0.283203)
(-0.000909225 -0.0729081 0.407843)
(-0.00629272 -0.121346 0.407537)
(-0.0107447 -0.134516 0.433704)
(-0.0236755 -0.272468 0.344451)
(0.00364529 -0.078752 0.421175)
(0.0339395 -0.199422 0.21567)
(0.0452859 -0.502199 0.230747)
(0.0560652 -0.522875 0.367303)
(0.0131124 -0.571781 0.569575)
(-0.117345 -1.10412 0.840379)
(-0.0241903 -1.05919 0.76759)
(-0.146114 -0.795242 0.51036)
(-0.13639 -0.679216 0.339686)
(0.00582999 2.12722 -0.575505)
(-0.0163634 2.41585 -0.557525)
(0.0731706 2.86568 -0.51742)
(-0.0356752 2.40942 -0.630039)
(0.152102 2.63662 -0.585999)
(0.0705873 2.49389 -0.631332)
(0.237935 2.70047 -0.595702)
(0.0238476 2.49764 -0.110292)
(0.0174729 2.4911 -0.151913)
(0.00558721 2.45948 -0.129936)
(-0.0493554 2.67825 -0.296497)
(0.0305153 2.7075 -0.235593)
(-0.0670642 2.5496 -0.24028)
(0.0267717 2.60068 -0.177957)
(-0.00513479 2.3683 -0.172754)
(-0.0047323 2.3326 -0.12249)
(-0.00215255 2.19943 -0.0358235)
(0.00662563 2.23126 -0.100347)
(0.00290563 2.32976 -0.220808)
(-0.0171079 2.33572 -0.158601)
(-0.0278759 2.40127 -0.200106)
(0.0539472 2.09983 0.0230359)
(0.016374 2.12316 -0.00549721)
(-0.0052665 2.27474 -0.0958488)
(-0.0251282 2.13713 -0.095146)
(-0.0118535 2.1664 -0.103406)
(-0.00733707 2.1071 -0.0536087)
(0.0185899 2.17652 -0.0496346)
(-0.00682537 2.14851 0.0731075)
(0.00114632 2.08379 0.107759)
(-0.0141432 2.12735 0.0887277)
(0.00273258 2.12199 0.01254)
(-0.00221165 2.14322 0.0373158)
(-0.0109559 2.14626 0.0403611)
(0.00900901 2.12095 0.0197329)
(0.0616176 2.16322 0.645757)
(0.00962216 1.89221 0.621904)
(-0.0545741 2.17631 0.549298)
(-0.217521 2.45477 1.23269)
(-0.0997613 2.18522 1.10108)
(-0.223266 2.37358 1.04978)
(-0.282626 2.51093 1.05312)
(0.0024542 0.823503 -0.289084)
(-0.0739775 0.83891 -0.109103)
(-0.00323426 0.791359 -0.231916)
(-0.00259901 0.604643 -0.385376)
(-0.00259953 0.64871 -0.332795)
(-0.0620394 0.664439 -0.406836)
(-0.0118001 0.638062 -0.33259)
(-0.0233179 0.203624 -0.482542)
(-0.0979727 0.0294198 -0.43266)
(0.0271506 0.0325954 -0.431104)
(0.0631479 0.126791 -0.340585)
(-0.00739255 0.210243 -0.399201)
(-0.033402 0.141012 -0.425265)
(0.0565449 0.0422605 -0.356151)
(-0.0143771 -0.381824 0.0467852)
(0.0501126 -0.265769 0.179236)
(0.0630543 -0.246427 0.182599)
(0.0131031 -0.351581 -0.211272)
(-0.00484691 -0.266142 0.0398177)
(0.0790112 -0.165525 0.227266)
(0.169185 -0.256431 0.0277186)
(0.00335627 0.0272007 0.592971)
(-0.0331729 -0.0449598 0.642909)
(-0.0913011 -0.140015 0.671376)
(0.000583669 -0.261649 0.550678)
(0.0602199 -0.161378 0.494965)
(0.0205669 -0.145015 0.578643)
(-0.056846 -0.225859 0.632857)
(-0.000458053 -1.91516 0.0427282)
(-0.00385235 -1.94977 0.0248154)
(-0.00446115 -1.98517 0.0338825)
(0.00503935 -1.9022 0.0255486)
(-0.00140998 -1.89084 0.0124585)
(0.00820085 -1.92573 0.0180346)
(0.019265 -1.95605 0.0457077)
(-0.00190056 -0.284677 0.747807)
(-0.0737073 -0.325884 0.653449)
(0.00184792 -0.2164 0.853385)
(0.0207695 -0.218306 0.654239)
(0.0222701 -0.19116 0.711699)
(-0.00999655 -0.217682 0.63766)
(0.00313404 -0.219918 0.663475)
(-0.0166495 0.399022 0.832815)
(0.015147 0.38873 0.772558)
(-0.00275762 0.456448 0.877563)
(0.0386198 0.549866 0.891012)
(-0.00591892 0.464887 0.843122)
(0.0308087 0.555295 0.913797)
(0.00845736 0.497881 0.886674)
(0.143912 1.5429 0.463189)
(-0.0205783 1.68008 0.368972)
(0.0138385 1.62248 0.415216)
(-0.372379 2.10554 0.115944)
(-0.162433 1.90413 0.28685)
(-0.378222 1.83212 0.152131)
(-0.137587 1.63943 0.257909)
(-0.0255718 2.02967 0.17515)
(-0.0526161 1.50227 0.224157)
(-0.0935877 1.78436 0.187373)
(0.0760324 3.06771 -0.0365428)
(-0.0744074 2.26059 0.120306)
(0.11136 2.77117 0.0717531)
(-0.106423 2.47171 0.165991)
(-0.105134 2.25781 0.187399)
(0.0673131 2.56224 0.110206)
(0.0522534 2.16905 0.0215788)
(-0.0331592 2.33489 0.0663155)
(-0.0466185 2.46638 0.0825973)
(-0.0414308 2.69594 0.125052)
(0.0513724 2.81777 0.109441)
(0.113293 2.90199 -0.0449539)
(-0.0134499 2.90502 -0.000335594)
(-0.0369751 2.74678 0.146248)
(0.0136133 2.89318 0.115485)
(0.0629005 3.02125 -0.0490526)
(0.0816761 2.5413 0.0212057)
(0.109244 2.80339 -0.0575117)
(-0.119152 1.93748 0.0096202)
(-0.00197562 2.69175 0.107172)
(0.0651512 2.7312 0.0742667)
(0.0570971 1.96561 -1.08896)
(0.0477745 1.74675 -1.42064)
(-0.0201361 1.64706 -0.728167)
(-0.128655 1.14422 -1.17144)
(-0.0813738 1.329 -0.963222)
(-0.276045 1.35314 -1.12581)
(-0.201264 1.66597 -0.980318)
(0.00374972 -1.10265 0.366229)
(-0.0223414 -0.995384 0.430608)
(-0.269072 -0.79934 0.148602)
(-0.0416323 -0.974508 0.197034)
(0.112867 -1.10283 0.290476)
(-0.0618234 -1.01209 0.304705)
(-0.309076 -0.799146 0.129438)
(-0.014335 0.816945 -0.635291)
(-0.0666615 0.734928 -0.672186)
(-0.0368742 0.765124 -0.694062)
(0.0206975 0.707425 -0.541306)
(0.00419044 0.710057 -0.531016)
(-0.0844983 0.671359 -0.609892)
(-0.067796 0.675477 -0.613614)
(0.0056011 1.37086 -0.946681)
(0.0545056 1.66046 -0.978079)
(0.0240575 1.52582 -0.977377)
(-0.0042441 1.61326 -1.02431)
(0.0378802 1.73704 -1.00494)
(0.0744031 2.14576 -1.29335)
(0.0546712 2.02719 -1.27454)
(0.00629162 -0.448336 0.0517878)
(0.0113321 -0.632642 -0.0796082)
(0.0142725 -0.612652 -0.0699034)
(0.0169835 -0.423732 0.0667288)
(-0.0304888 -0.400594 0.0897986)
(-0.0037081 -0.606119 -0.0605405)
(0.0246451 -0.577845 -0.0798047)
(0.0769935 -0.593029 -0.336887)
(-0.00595196 -0.667985 -0.201041)
(-0.0163644 -0.630118 -0.550664)
(-0.0224363 -0.738883 -0.365149)
(-0.0212378 -0.718801 -0.398862)
(-0.0100456 -0.70729 -0.296047)
(0.014429 -0.699227 -0.308915)
(0.00905383 -0.955039 0.64696)
(-0.0459617 -0.920615 0.979297)
(-0.021298 -0.92649 0.888373)
(0.0338089 -0.713796 0.684421)
(0.024286 -0.621136 0.700124)
(-0.0157159 -0.584805 0.563784)
(-0.0237251 -0.641894 0.739361)
(0.0431698 3.44045 -0.958044)
(0.113048 4.03678 -0.995578)
(-0.0439902 2.42001 -0.907265)
(-0.108216 2.82877 -0.765358)
(-0.125772 2.40365 -0.806643)
(0.0381142 3.60677 -0.985769)
(-0.0748613 3.20499 -0.954966)
(-0.112033 2.65709 0.00460435)
(0.00158252 3.058 0.0792329)
(-0.189621 1.80778 0.0316745)
(-0.114228 2.59709 0.1195)
(-0.127185 2.50989 0.0584385)
(-0.0817837 2.71347 0.0650714)
(-0.0820056 2.93079 0.121743)
(0.00367828 2.30623 -0.12855)
(-0.00586239 2.34325 -0.0911216)
(-0.00523727 2.32695 -0.128089)
(-0.00776186 2.42483 -0.0799568)
(-0.00210693 2.46882 -0.104463)
(-0.0111558 2.37347 -0.0902424)
(-0.00618149 2.42745 -0.11779)
(-0.0264573 -0.13816 -0.0942336)
(-0.0538774 -0.093163 -0.0963735)
(-0.0238522 -0.210102 -0.190846)
(0.0584081 -0.177754 -0.099854)
(0.0573915 -0.249942 -0.11355)
(-0.00400083 -0.0945972 -0.0403778)
(-0.0079694 -0.179719 -0.0542613)
(0.0158839 -0.181986 -0.213028)
(-0.053685 -0.101324 -0.11064)
(-0.00417108 -0.240185 -0.339324)
(-0.0272218 -0.148734 -0.239335)
(0.00957052 -0.205328 -0.309252)
(-0.0900733 -0.0135723 -0.109403)
(-0.0122143 -0.135228 -0.191627)
(0.00453936 0.355939 0.112984)
(0.00250048 0.449779 0.234653)
(0.015113 0.538765 0.2292)
(-0.0488854 0.590085 0.160539)
(-0.0397384 0.595115 0.161155)
(-0.0379076 0.564297 0.234537)
(-0.0458283 0.726409 0.228812)
(0.0111158 0.859208 0.846487)
(-0.00472806 0.756251 0.848585)
(-0.00319902 0.865203 0.81035)
(0.0338764 0.749006 0.92653)
(0.0243432 0.742283 0.887815)
(0.0363887 0.810376 0.904884)
(0.0132086 0.783868 0.863545)
(0.0579612 1.09287 0.765525)
(-0.209369 0.987499 0.725494)
(-0.00323116 1.11959 0.808216)
(-0.191187 1.05553 0.573928)
(-0.0088693 1.04543 0.590892)
(-0.410322 0.841462 0.568126)
(-0.00573058 0.986067 0.593151)
(-0.0161666 1.20423 0.636768)
(-0.0151233 1.13524 0.586608)
(-0.00807797 1.03084 0.610544)
(0.00206846 1.26482 0.595545)
(-0.0474863 1.11077 0.5546)
(-0.106452 1.08413 0.570413)
(-0.0211418 1.27038 0.624203)
(-0.204921 2.09467 -0.139116)
(0.0527959 2.14602 -0.273533)
(-0.0556112 2.12565 -0.218926)
(-0.00598899 2.13339 -0.212941)
(-0.00224153 1.94842 -0.246512)
(-0.0631501 1.90392 -0.199345)
(-0.229053 1.98512 -0.124299)
(0.0673554 1.97002 -0.140573)
(-0.0654783 2.23226 -0.307343)
(-0.019806 1.66869 0.0638905)
(0.0557282 1.89694 0.0536494)
(-0.0426967 2.36841 -0.16136)
(-0.0735 2.42187 -0.343447)
(0.0596678 2.11328 -0.102349)
(-0.0210522 -0.277525 -1.58975)
(-0.0455342 -0.910315 -0.738003)
(0.00616189 -0.682955 -1.09798)
(-0.140645 -0.0302185 -1.41596)
(-0.178598 -0.163326 -0.876841)
(-0.164804 -0.753461 -0.584598)
(-0.146276 -0.576301 -0.973379)
(-0.0171073 0.129526 -1.856)
(-0.0165556 -0.0163545 -1.75739)
(0.0764185 -0.00625239 -1.56497)
(0.1375 -0.0856967 -1.89405)
(0.0663395 0.0102388 -1.91861)
(0.143166 -0.0564402 -1.78927)
(0.245911 -0.131861 -1.69534)
(-0.0864705 0.108472 0.933368)
(0.0983294 -0.604361 0.42777)
(0.211888 -0.805459 0.298738)
(0.153539 -0.819034 0.362474)
(-0.0319782 -0.586827 0.495352)
(0.175799 -0.824131 0.363291)
(0.254417 -0.832425 0.419298)
(-0.0428836 -0.82791 -0.491054)
(0.0851064 -1.27434 -0.23094)
(-0.0243006 -0.213206 -0.5914)
(0.0256825 -1.46471 -0.0622485)
(-0.04718 -1.10848 -0.191036)
(0.130274 -1.53837 -0.0977429)
(0.0713526 -1.27851 -0.269944)
(0.0154848 -2.44555 0.0441154)
(0.00460528 -2.48003 0.0737175)
(-0.0032972 -2.43018 0.0438991)
(-0.0036497 -2.45524 0.0530201)
(-0.044002 -2.42322 0.0400802)
(0.00529329 -2.44562 0.0397575)
(-0.0170047 -2.43983 0.0386084)
(0.0536267 0.524645 0.330539)
(-0.121202 0.390389 0.247167)
(-0.0196715 0.520254 0.45323)
(0.0819068 0.807145 0.775677)
(0.237842 1.09973 0.69015)
(0.137308 0.700843 0.573778)
(0.413193 0.879725 0.541578)
(-0.011397 0.235101 1.06346)
(0.0282086 -0.262467 0.555163)
(-0.0372141 0.430054 1.05992)
(0.0507255 0.0589127 0.799165)
(0.137849 -0.318795 0.300557)
(0.119465 -0.515985 0.35008)
(0.0134275 0.00420826 0.836729)
(-0.0147756 -1.26031 0.610565)
(-0.0230055 -1.05482 0.233364)
(-0.0378929 -1.25114 -0.122971)
(0.0804267 -1.15451 0.0513414)
(0.159986 -1.14489 0.293974)
(0.0837859 -1.03593 0.21967)
(0.0903273 -1.11879 0.45092)
(-0.0569117 2.1125 -0.0129999)
(-0.0161672 2.62141 -0.0378175)
(-0.000462721 2.6925 -0.0255187)
(-0.0244912 2.69104 -0.00498791)
(0.0265518 2.54221 0.028593)
(-0.0434025 2.64866 -0.0189934)
(-0.0284463 2.74753 -0.0300917)
(0.0316961 2.75972 -0.0236329)
(-0.134566 2.70595 -0.0871229)
(-0.0259864 2.76121 -0.0383112)
(-0.0079464 2.61563 -0.0275346)
(-0.0516086 2.59581 -0.00028847)
(-0.22694 1.57657 0.0839797)
(-0.103413 2.63657 0.058008)
(0.0935822 3.1529 -0.0614323)
(-0.048987 2.66037 -0.0266251)
(-0.0932997 2.41213 0.114736)
(-0.0578732 2.7484 0.086237)
(0.00733007 2.99676 -0.078334)
(-0.0328929 2.63106 0.0669255)
(-0.138683 2.62617 0.134579)
(-0.0404102 2.62753 -0.0107541)
(-0.0655211 2.69312 0.0223311)
(-0.0806459 2.68912 0.0729327)
(0.0605519 2.63644 0.0442188)
(0.150993 2.62193 0.0163555)
(-0.0407284 2.71401 0.0901311)
(0.0139244 2.66218 0.0429597)
(-0.054645 2.6275 0.0357134)
(-0.00908341 -0.416089 -0.25304)
(0.0206876 -0.392742 -0.221399)
(0.0181478 -0.424629 -0.192706)
(0.0056971 -0.357578 -0.201202)
(0.00540591 -0.312449 -0.248819)
(0.029317 -0.333321 -0.215954)
(0.0214591 -0.368849 -0.174704)
(0.00541052 -1.10459 0.0314541)
(-0.00251244 -1.33679 0.103989)
(-0.00579056 -1.17428 0.0734163)
(0.0162782 -1.22582 0.0334701)
(-0.0058445 -1.18191 0.0323182)
(0.0168625 -1.32519 0.0481571)
(-0.0162656 -1.16453 0.0402029)
(-0.00990221 1.58721 0.480066)
(-0.00671165 1.33304 0.0857344)
(-0.0433049 1.29499 0.242845)
(-0.0371369 1.62237 0.263255)
(0.0278893 1.64637 0.129483)
(-0.027968 1.54181 0.0199876)
(-0.0594728 1.46296 0.138883)
(-0.00409864 1.11369 0.350618)
(-0.0118571 1.22312 0.493295)
(-0.0263161 1.20661 0.306107)
(0.146623 1.09163 0.806029)
(0.0823015 1.20353 0.704149)
(0.118481 1.21289 0.508271)
(0.191746 1.1215 0.639988)
(-0.00556885 -0.95255 -0.0597657)
(-0.0149762 -0.823569 -0.291106)
(0.0450175 -1.16212 0.0243845)
(0.0513868 -1.08472 -0.320993)
(0.0485048 -0.892259 -0.321889)
(-0.00363579 -1.22196 -0.128753)
(0.1019 -0.948567 -0.0880237)
(-0.0202651 0.377091 0.126286)
(-0.0432151 0.207552 0.43636)
(0.170555 0.47839 0.257423)
(0.0499103 0.170223 0.385242)
(0.00725049 0.0499546 0.307135)
(0.174396 0.414624 0.275701)
(0.0104636 0.235223 0.15866)
(0.0228875 0.317253 0.708222)
(-0.0409647 0.285136 0.561614)
(-0.0214975 0.289401 0.675243)
(-0.00386435 0.244419 0.763248)
(-0.0679394 0.268466 0.623759)
(-0.148821 0.163664 0.436246)
(-0.0783431 0.233447 0.682892)
(0.0262432 0.450349 0.596678)
(0.0428772 0.552419 0.501517)
(0.00151833 0.375324 0.688786)
(0.0109928 0.493105 0.557461)
(-0.0261024 0.417839 0.627092)
(0.0514705 0.534869 0.461186)
(0.0172943 0.468291 0.556275)
(0.0132525 1.63832 0.0467541)
(0.00280165 1.78786 0.0661587)
(0.0161289 1.77003 0.0215992)
(-0.017003 1.48637 -0.0413174)
(-0.00842605 1.66948 0.00568267)
(0.0101699 1.76127 0.0281628)
(0.00114343 1.63102 -0.0253285)
(-0.0125815 0.648307 0.0126669)
(-0.00451563 1.39777 0.00332652)
(-0.0396892 1.17954 -0.0128394)
(-0.0688987 1.12359 -0.0314076)
(-0.00860136 1.53309 -0.00202735)
(-0.000306668 2.31199 0.3689)
(-0.128497 2.41411 0.422274)
(0.0190085 1.95927 0.345571)
(0.115498 1.6859 0.0982866)
(-0.0122528 1.79104 0.101642)
(-0.133877 2.10728 0.228584)
(0.0367787 1.89505 0.195382)
(-0.00409779 -1.06018 -0.454762)
(0.0846888 -0.938369 -0.582255)
(0.00297184 -1.00728 -0.546416)
(-0.0869499 -0.941846 -0.616312)
(-0.08971 -1.05286 -0.592454)
(0.052087 -0.823476 -0.594397)
(0.00172568 -1.03338 -0.453939)
(-0.108997 -0.586469 -0.537508)
(-0.0338957 -0.521128 -0.403834)
(0.00874777 -0.447804 -0.369897)
(0.0427788 -0.942801 -0.317924)
(-0.0250151 -1.09474 -0.500009)
(-0.0443329 -1.04367 -0.327114)
(-0.121433 -1.19464 -0.7102)
(-0.0620364 0.218212 -0.260221)
(0.140238 -0.169098 0.0913759)
(-0.0774496 -0.233604 0.122897)
(-0.120004 -0.0509064 -0.728245)
(-0.173599 -0.126553 -1.15669)
(-0.0751723 -0.122941 -0.294072)
(-0.138578 -0.0960419 -0.904271)
(0.0689964 0.702287 0.460018)
(0.00785924 0.665073 0.16616)
(-0.0531498 0.579052 0.192124)
(-0.0262389 0.0526528 0.259363)
(-0.00378232 0.112234 0.584352)
(0.0686735 0.295929 0.30328)
(0.0511629 0.370435 0.578504)
(0.02003 0.0243186 0.175286)
(0.0969521 0.0216388 0.266137)
(-0.00605115 0.649105 0.230214)
(-0.00594375 0.439109 -0.110028)
(0.0681281 -0.0456428 -0.374649)
(0.0826354 0.160489 -0.0368076)
(0.0629846 0.180951 -0.207382)
(0.00989358 -1.62607 -0.013818)
(-0.097618 -1.79103 -0.112032)
(-0.116206 -1.66967 -0.156313)
(0.0207246 -1.62464 0.023462)
(0.0298421 -1.19327 0.0581153)
(-0.0463293 -1.5056 -0.0698526)
(-0.0452098 -1.71434 -0.0936523)
(0.0506494 0.368544 1.34378)
(0.0480066 0.408282 1.33349)
(0.0136318 0.238444 1.29987)
(-0.0489253 0.31612 1.26612)
(0.000111572 0.267287 1.28285)
(0.0177425 0.3771 1.30238)
(0.0615048 0.347017 1.34801)
(0.00331881 0.0980678 1.11983)
(-0.0262499 -0.0651393 1.09006)
(0.0250632 0.0394179 1.10261)
(-0.0158415 0.0456034 1.09943)
(-0.0566007 -0.00778336 1.0911)
(-0.0605029 -0.0796821 1.06979)
(-0.0161728 -0.0267552 1.08752)
(-0.0148123 1.9839 -0.0099381)
(-0.0377653 2.58415 -0.0344147)
(-0.0383189 2.59005 -0.0148901)
(-0.0226594 2.56843 -0.0115008)
(-0.00371109 2.45054 -0.013216)
(-0.0303684 2.5617 -0.0338167)
(-0.0472782 2.63171 -0.0261399)
(0.000396204 2.58891 -0.048449)
(0.0217733 2.44777 -0.0192173)
(0.0044934 2.54705 -0.0338212)
(-0.0217264 2.54839 -0.0307851)
(-0.0104411 2.45479 -0.015124)
(0.0846761 1.73529 -1.08839)
(-0.00714049 3.60868 -1.39255)
(0.0532228 2.79797 -1.2682)
(-0.00641853 0.981974 -0.54062)
(0.157187 1.28054 -0.568627)
(-0.0915839 2.80055 -1.24678)
(-0.0399295 2.13025 -1.0324)
(-0.0054723 0.104915 0.0721896)
(-0.0346984 0.263324 0.0367646)
(-0.0550738 0.514593 -0.177073)
(-0.0239483 0.476351 -0.0275181)
(0.0311931 0.131007 0.208337)
(0.0118733 0.289126 -0.20311)
(-0.0821023 0.656529 -0.293223)
(0.0534307 0.0499747 -0.273957)
(0.0184254 -0.0890611 -0.0206283)
(0.014625 0.0656527 -0.15429)
(-0.129723 -0.214585 -0.158667)
(-0.15452 -0.115545 -0.0644773)
(-0.121531 -0.286503 0.108741)
(-0.118085 -0.114398 -0.0101104)
(-0.00173786 -0.252018 -0.0692879)
(-0.0370924 -0.336239 -0.0286368)
(-0.00818932 -0.323985 0.000501545)
(0.0321391 -0.362848 -0.0832425)
(0.0303901 -0.316911 -0.0368712)
(0.020114 -0.355453 -0.0196999)
(-0.0236923 -0.329805 0.0253678)
(0.00335969 -0.275123 -0.0665964)
(-0.00286178 -0.291529 -0.0790588)
(0.0137447 -0.345638 -0.0731351)
(-0.0284297 -0.345642 0.0225822)
(-0.0059328 -0.339016 -0.00760515)
(0.0340834 -0.345319 -0.0945989)
(-0.00399646 -0.341232 -0.000478522)
(0.0225785 -0.315762 -0.0488476)
(0.023591 -0.354526 -0.0491678)
(-0.000284055 -1.65533 -0.0234452)
(-5.37861e-05 -1.64383 -0.00760302)
(-0.00156878 -1.65611 -0.0369377)
(-0.00305042 -1.62397 -0.0221936)
(-2.8927e-06 -1.65116 -0.0333247)
(-0.00496025 -1.62898 -0.0170998)
(-0.00129477 -1.65047 -0.0286909)
(-0.0538897 2.15301 -0.0661042)
(0.0387478 2.2063 0.0614563)
(-0.0016925 2.17496 -0.274243)
(0.0304481 2.22232 -0.231924)
(-0.0422731 2.19315 -0.255738)
(0.0288779 2.21174 -0.0193374)
(-0.0704436 2.1655 -0.0782485)
(-0.0235281 0.242984 0.455188)
(0.0541686 0.283124 0.569349)
(-0.0258427 0.186991 0.588734)
(-0.131583 -0.578358 0.25339)
(0.145464 -0.181424 0.322355)
(0.144442 -0.044037 0.444626)
(-0.122339 -0.1789 0.358546)
(-0.000362538 -0.537875 -0.260517)
(-0.0503273 0.242587 0.26427)
(0.00830745 -0.0693618 -0.111826)
(0.0476557 -0.123462 0.136974)
(0.108221 -0.506618 -0.183142)
(0.0506921 -0.0978794 -0.0759131)
(0.144993 -0.758026 -0.316904)
(-0.226107 -1.2252 -0.176093)
(-0.0894199 -1.34553 -0.346647)
(0.0184515 -1.53418 -0.705925)
(0.135911 -1.84616 -0.695476)
(0.0383893 -1.8643 -0.557627)
(-0.0014674 -1.67306 -0.450495)
(-0.146188 -1.51396 -0.334337)
(-0.00197028 -0.022959 -1.16916)
(-0.0292686 -0.213293 -1.7202)
(0.0901706 -0.465567 -1.69925)
(0.0975359 -0.380083 -1.46222)
(0.0296096 -0.18672 -1.32313)
(0.0722043 -0.267941 -1.69654)
(0.172269 -0.457443 -1.70703)
(-0.0762107 0.282335 0.396769)
(0.111584 0.357868 0.53772)
(-0.0410375 0.363087 0.238469)
(0.182645 0.285092 0.297532)
(0.0211082 0.207215 0.230904)
(0.281864 0.336552 0.560856)
(0.0302703 0.245396 0.389846)
(0.0175349 0.61127 0.611874)
(-0.0255682 0.609432 0.622311)
(-0.00221206 0.578251 0.635667)
(-0.00265371 0.580203 0.657162)
(0.0158077 0.562951 0.644302)
(-0.00351719 0.581059 0.609519)
(0.0315853 0.592292 0.615858)
(0.0438303 0.904878 0.47641)
(0.0342356 0.899184 0.384199)
(0.0117986 0.634358 0.47335)
(-0.0482727 0.421882 0.137158)
(-0.0144718 0.394147 0.220073)
(-0.0177167 0.607919 0.208801)
(0.0129986 0.61685 0.267208)
(-0.0159805 0.16187 0.554657)
(-0.00149919 -0.107218 -0.381827)
(0.152795 -0.110504 -0.631349)
(0.13798 -0.134506 0.421827)
(0.100882 -0.248454 0.328717)
(-0.0455611 -0.0704616 0.164084)
(0.0807521 -0.0409753 -0.43806)
(0.0126384 0.0213244 -2.91671)
(-0.108305 -0.0457725 -2.815)
(-0.0262044 -0.0772542 -2.65939)
(-0.025063 -0.0637358 -2.47569)
(-0.0727798 -0.0637837 -2.50604)
(-0.115646 -0.00497625 -2.46079)
(-0.168632 -0.102415 -2.61372)
(0.0226601 0.0114574 -3.02205)
(-0.139193 -0.0536873 -2.45918)
(-0.167792 -0.0343528 -1.52424)
(0.0111813 0.0197423 -2.91711)
(-0.119614 -0.103227 -2.68523)
(0.020242 0.011078 -2.53119)
(-0.104773 -0.0706878 -2.36844)
(-0.149373 -0.0824093 -2.46376)
(-0.149341 -0.0415617 -1.58447)
(-0.201666 -0.105771 -2.36561)
(0.0183145 0.0588466 0.468227)
(-0.0150517 0.0768637 0.504457)