/*--------------------------------*- C++ -*----------------------------------*\
| =========                 |                                                 |
| \\      /  F ield         | OpenFOAM: The Open Source CFD Toolbox           |
|  \\    /   O peration     | Version:  v2012                                 |
|   \\  /    A nd           | Website:  www.openfoam.com                      |
|    \\/     M anipulation  |                                                 |
\*---------------------------------------------------------------------------*/
FoamFile
{
    version     2.0;
    format      ascii;
    class       volScalarField;
    location    "0.4";
    object      alpha.water;
}
// * * * * * * * * * * * * * * * * * * * * * * * * * * * * * * * * * * * * * //

dimensions      [0 0 0 0 0 0 0];


internalField   nonuniform List<scalar> 
6576
(
1
1
1
1
1
1
1
1
1
1
1
1
1
1
1
1
1
1
1
1
1
1
1
1
1
1
1
1
1
1
1
1
1
1
1
1
1
1
1
1
1
1
1
0.129414
0.477317
0.812477
0.82352
0.82027
0.637148
0.803714
0.823302
0.8113
2.18592e-05
2.18592e-05
3.5825e-05
4.09499e-05
2.17214e-05
4.3436e-05
8.00629e-05
9.571e-06
9.36589e-06
9.70931e-06
4.59355e-06
1.48475e-06
8.48876e-06
1.95516e-05
2.56719e-05
1.38348e-05
3.01644e-05
1.50623e-05
5.60888e-05
3.16511e-06
6.47758e-07
3.52106e-08
7.62409e-09
2.69017e-08
8.8781e-10
4.96016e-09
1.52607e-08
1.92975e-09
1.18337e-05
2.39792e-06
3.20301e-07
1.97695e-08
5.868e-06
1.50705e-06
5.71215e-08
0.00987543
0.017062
0.0196661
0.0122155
0.00948842
0.00535485
0.0094012
0.0432756
0.0202483
0.0990655
0.0194893
0.0297121
0.0607606
0.0339256
0.570226
0.414918
0.412376
0.413844
0.569524
0.412464
0.477233
0.611584
0.611584
0.550181
0.611584
0.55016
0.549775
6.24358e-09
4.94121e-127
1.52988e-09
9.90678e-14
3.1895e-15
4.29125e-10
5.39183e-10
0.61626
0.90901
0.96014
0.961434
0.904637
0.983234
0.906657
1.70295e-65
1.5627e-66
2.44097e-267
1.02131e-45
2.82358e-34
9.94338e-48
1.67032e-33
0.000223343
0.000217572
0.000223343
0.000178532
0.000208355
0.000267674
0.000139014
6.53527e-06
1.04151e-05
6.53529e-06
6.01033e-06
8.19648e-06
1.15062e-05
7.78569e-06
1.18272e-05
1.727e-05
1.7269e-05
1.727e-05
1.7269e-05
1.72697e-05
1.64165e-05
1.24612e-06
5.81442e-07
4.02915e-07
2.97383e-06
1.6398e-06
4.02943e-07
6.61227e-07
4.02943e-07
9.31792e-07
2.41319e-06
2.59446e-06
1.76284e-06
6.15591e-07
1.17193e-06
2.59947e-06
2.59947e-06
2.26686e-06
2.01552e-06
2.26686e-06
1.48162e-06
2.09151e-06
2.26686e-06
1.56389e-06
2.09181e-06
9.62807e-07
2.25542e-08
1.58377e-08
2.48226e-08
2.05227e-08
2.00872e-08
1.1958e-07
7.89793e-08
8.98362e-08
1.80277e-07
8.0377e-09
2.15999e-08
4.07066e-09
1.47626e-08
1.07915e-08
7.63194e-09
7.81449e-09
4.55433e-10
2.34689e-10
7.90801e-11
2.76541e-10
3.95593e-10
3.87774e-10
1.40909e-10
1.38351e-11
1.90794e-12
4.37546e-12
6.78606e-11
1.0009e-10
6.01195e-11
4.13558e-11
2.69836e-21
6.64858e-20
2.71069e-18
3.75911e-17
9.4493e-17
3.77258e-18
3.00721e-19
1.30674e-07
1.49443e-07
1.08751e-07
2.42669e-07
4.374e-07
7.49468e-07
4.42648e-07
2.86805e-07
1.80514e-07
5.39943e-07
1.77629e-07
2.11186e-07
3.42739e-07
1.69759e-07
5.33583e-07
9.27665e-07
1.01165e-06
2.47174e-07
2.76808e-07
9.24219e-07
9.0218e-07
2.8173e-06
2.27842e-06
2.81777e-06
2.81775e-06
2.81647e-06
2.81785e-06
2.81781e-06
1.04353e-06
2.30218e-06
1.38542e-06
1.0429e-06
1.12962e-06
1.04353e-06
1.04308e-06
1.04636e-06
1.04353e-06
1.26514e-05
1.72422e-05
1.36605e-05
4.21495e-06
4.9893e-06
8.57735e-06
5.98506e-06
0.00680793
0.00910407
0.00271082
0.0281035
0.0161723
0.00876553
0.0130739
0.242164
0.242169
0.504094
0.242161
0.242164
0.512883
0.265348
0.346039
0.255211
0.636286
0.666826
0.677564
0.664775
0.696582
0.498224
0.692304
0.22745
0.182059
0.368446
0.580254
0.446394
0.333868
0.244868
0.586173
0.588777
0.696752
0.696752
0.696752
0.289413
0.586911
0.588057
0.586455
0.586455
0.586602
0.466552
0.358135
0.273625
0.276849
0.150375
0.359191
0.307577
0.315862
0.120051
0.0492657
0.0171474
0.0375864
0.0263481
0.0174474
0.0173453
0.0169163
0.0171473
0.233685
0.0695121
0.063402
0.389855
0.475883
0.0854011
0.135279
0.00174749
0.00156793
0.00132327
0.00144796
0.00131227
0.00131227
0.00251468
0.00323189
0.00322439
0.00681251
0.0166429
0.00680799
0.0121751
0.00337288
0.00628264
0.0110531
0.0136616
0.0288844
0.013827
0.0133131
0.0238278
0.0839027
0.237537
0.327755
0.0711597
0.535527
0.535378
0.479905
0.412341
0.535527
0.293384
0.535478
0.397369
0.489027
0.448966
0.242315
0.242169
0.5265
0.52643
0.5265
0.35077
0.0357677
0.0158548
0.0577767
0.0240211
0.097938
0.00987583
0.0427672
0.00270434
0.00153137
0.00533754
0.00175153
0.00681689
0.000716608
0.00279671
0.00195563
0.000782095
0.00146929
0.000708738
0.00071822
0.000896736
0.00131796
0.00176855
0.00137754
0.00162109
0.00095398
0.00108664
0.000763918
0.000981793
0.000787532
0.00169837
0.000769807
0.000782208
0.000571221
0.000782111
0.000744061
0.000759736
0.000304421
0.000299417
0.000517878
0.0323988
0.055383
0.140891
0.0874828
0.0297499
0.0178948
0.140513
0.943311
0.94331
0.943311
0.82835
0.928394
0.87559
0.94331
2.53862e-05
1.84601e-05
2.53856e-05
2.6016e-06
1.18631e-05
4.17867e-06
1.11327e-05
2.86142e-05
2.20877e-05
3.1344e-05
3.56103e-05
1.36852e-05
1.75517e-05
2.25665e-05
5.23202e-05
1.53064e-05
2.52125e-05
5.23142e-05
4.24248e-05
7.28269e-06
1.37885e-05
1.53347e-05
7.39639e-05
0.000193146
2.8029e-05
6.57347e-05
0.0002051
0.000112026
0.000135109
9.82356e-05
0.000151131
0.000816001
0.00196475
0.00198947
0.00112271
0.000758668
0.000213469
0.0772572
0.157379
0.158122
0.0772688
0.0772572
0.077248
0.156721
0.0547908
0.0442934
0.120921
0.158223
0.158123
0.138835
0.158223
0.113939
0.113567
0.0699902
0.114001
0.1139
0.110387
0.0950851
0.107532
0.108089
0.108091
0.0717943
0.105481
0.069387
0.0692929
0.072976
0.113981
0.0396422
0.0719822
0.0728948
0.116786
0.000107265
0.000166783
9.7529e-05
0.000387251
0.000169107
8.79233e-05
0.000238654
0.00100399
0.000554006
0.00100226
0.000999492
0.000602076
0.000462341
0.000825408
0.000594209
0.00037557
0.000450936
3.10617e-05
1.80701e-05
3.06783e-05
2.54506e-05
1.06051e-05
1.94065e-05
1.05177e-05
9.97934e-06
1.59216e-05
1.0973e-05
2.243e-05
1.10336e-05
1.69222e-05
1.48697e-05
9.44096e-06
9.44096e-06
2.45893e-05
3.47452e-05
1.66284e-05
2.26529e-05
7.57285e-06
1.76762e-05
3.85278e-05
9.66534e-06
7.02299e-06
2.57958e-05
1.37264e-05
1.57785e-05
1.36698e-05
2.61255e-05
1.69629e-05
2.5696e-05
1.35971e-05
1.36977e-05
4.81826e-05
2.5554e-05
3.64225e-05
8.31982e-05
8.30695e-05
7.32577e-05
6.49535e-05
4.95073e-05
8.34334e-05
8.34484e-05
2.46745e-05
3.92891e-05
8.34334e-05
6.61768e-05
8.20875e-06
2.65185e-05
2.64911e-05
1.04372e-05
1.10204e-05
4.46822e-05
9.73467e-06
1.79256e-06
1.04795e-06
1.30514e-06
1.30012e-06
1.74468e-06
1.31065e-06
1.57186e-06
1.95472e-06
1.72192e-06
2.72982e-06
6.47541e-07
1.44228e-06
1.31325e-06
1.29575e-06
1.30365e-06
6.30535e-07
9.89609e-07
1.09325e-06
5.45583e-07
1.2241e-08
1.34709e-08
2.49071e-08
7.79221e-09
1.72819e-08
1.02512e-08
7.75924e-09
0.00199236
0.000649516
0.00194156
0.000379443
0.000483033
0.00194129
0.00148338
0.000661673
0.000298967
0.000298968
0.000682112
0.000564912
0.000379003
0.000465342
0.00029914
0.000298968
0.00243822
0.0042295
0.00141769
0.00696235
0.00287033
0.00262825
0.00206833
0.0250637
0.0250637
0.0250637
0.0261262
0.0637637
0.249575
0.0940326
0.93256
0.776004
0.8148
0.860873
0.78332
0.181538
0.131523
0.940247
0.940245
0.940245
0.940245
0.940247
0.940248
0.940248
0.323877
0.507153
0.509527
0.281414
0.253025
0.118841
0.18347
0.350553
0.104791
0.480835
0.483829
0.330129
0.158177
0.0880641
0.0508083
0.0494532
0.621015
0.620954
0.628569
0.628665
0.592877
0.629203
0.629211
0.275823
0.284269
0.607354
0.63421
0.634283
0.634283
0.630182
0.570636
0.568687
0.630571
0.580586
0.623156
0.633595
0.632528
0.633337
0.568691
0.632649
0.631439
0.633862
0.613
0.633785
0.633871
0.633871
0.633927
0.588784
0.453584
0.588781
0.580254
0.448978
0.133505
0.0545791
0.188229
0.0550116
0.0548063
0.0968668
0.0577818
0.588766
0.373566
0.524028
0.21471
0.225918
0.585926
0.314108
0.247989
0.0140945
0.00914522
0.0172889
0.00369103
0.00691903
0.0163881
0.0113815
0.328621
0.309212
0.328621
0.00923291
0.148621
0.513005
0.513005
0.513003
0.503787
0.512146
0.0692573
0.174963
0.535527
0.269008
0.330965
0.348121
0.319996
0.319996
0.383076
0.608384
0.620639
0.621029
0.525317
0.456953
0.371702
0.527003
0.537482
0.478482
0.344229
0.46268
0.467776
0.534976
0.537482
0.457677
0.603413
0.492595
0.492595
0.67076
0.665274
0.492595
0.496371
0.670982
0.501104
0.622095
0.622092
0.622095
0.622095
0.557638
0.621387
0.621813
0.559117
0.622095
0.458476
0.51298
0.51557
0.516299
0.603395
0.6756
0.675601
0.675567
0.619569
0.500335
0.493153
0.670205
0.672267
0.670982
0.615075
0.0519377
0.0300069
0.0231963
0.135677
0.0863859
0.0404008
0.0399787
0.0425807
0.0264924
0.0284824
0.028527
0.131881
0.0693303
0.067297
0.000239686
0.000386276
0.00137619
0.000162547
0.000845486
0.000840822
0.00326248
0.0114435
0.00999701
0.0114324
0.0114484
0.0114498
0.0114498
0.0114525
0.00647119
0.00258752
0.0108825
0.00151469
0.00869575
0.0109412
0.0092569
0.00102196
0.000523134
0.000524469
0.000522628
0.000843985
0.000425037
0.00118094
0.000725948
0.000474434
0.000482242
0.000592747
0.000799133
0.00126961
0.00126961
0.00059966
0.00126964
0.000567125
0.000628918
0.000494775
0.000343224
0.000340122
0.000339692
0.000339146
0.0004985
0.000338653
2.17579e-06
5.72448e-06
2.82858e-06
3.67904e-06
4.89057e-06
3.01956e-06
1.47795e-06
1.0863e-06
6.82969e-07
1.57803e-06
5.87924e-07
1.96479e-07
2.50978e-07
6.04127e-07
4.99874e-07
2.04319e-06
4.73029e-06
2.24165e-06
5.32627e-06
2.65802e-05
1.28128e-05
1.29496e-05
1.61787e-05
2.44274e-05
7.72228e-06
7.46955e-06
4.08132e-05
3.65415e-05
3.24642e-05
6.90437e-05
0.000127185
0.000102376
5.60547e-05
0.0426727
0.0406255
0.016406
0.0157905
0.0277486
0.0125333
0.00571116
0.438062
0.429705
0.395627
0.24116
0.409626
0.241159
0.297097
0.03544
0.0138106
0.100674
0.12486
0.255838
0.0520868
0.254419
0.0668614
0.147397
0.0551181
0.180525
0.38172
0.0887557
0.0832222
0.0571696
0.40758
0.24
0.127495
0.0432397
0.171063
0.0367363
0.0678499
0.0156005
0.0149214
0.0490071
0.131864
0.0284139
0.0204106
0.158223
0.0772485
0.157785
3.74254e-05
3.74118e-05
3.74118e-05
3.74658e-05
5.38072e-05
3.77148e-05
3.74254e-05
3.67982e-05
1.58631e-05
5.62727e-05
5.79052e-05
3.0334e-05
2.32494e-05
4.69468e-05
4.91262e-05
3.40827e-05
3.93028e-05
3.57523e-05
4.93992e-05
3.1947e-05
1.33959e-05
2.06999e-05
3.4014e-05
3.87967e-05
6.78977e-06
6.51946e-06
7.26385e-06
7.95002e-06
1.16956e-05
1.40041e-05
9.59232e-06
3.21461e-06
3.2145e-06
3.2145e-06
3.2145e-06
3.2145e-06
3.2214e-06
4.37563e-06
1.8615e-06
3.75582e-06
3.12582e-06
2.67848e-06
3.02008e-06
8.43528e-08
5.60397e-08
1.54368e-10
3.72171e-06
1.85752e-06
4.71459e-07
8.93297e-07
5.10192e-08
1.15674e-06
3.43074e-07
4.34738e-08
3.13207e-07
7.81666e-07
2.23779e-06
5.78391e-06
7.46997e-06
9.12646e-06
2.69902e-06
2.22199e-06
1.11635e-05
1.2841e-05
2.19544e-06
2.11749e-06
2.35184e-06
3.4577e-05
8.19962e-06
4.48796e-05
2.27437e-05
7.27032e-06
6.84523e-06
4.98714e-07
9.15359e-07
5.9711e-07
1.04526e-07
2.40459e-07
1.34211e-07
1.70797e-07
2.71167e-07
6.51559e-08
1.03417e-07
2.84995e-08
2.59064e-07
1.10121e-09
1.58882e-09
3.03335e-09
1.29312e-09
4.98185e-10
8.05881e-10
3.97804e-10
5.80526e-09
6.0201e-09
1.02638e-08
2.88942e-09
6.00681e-09
4.33509e-09
4.70969e-09
9.39595e-09
1.02638e-08
0.00164896
0.00149333
0.00121575
0.0010642
0.00105277
0.0021187
0.00121528
0.00105534
0.00105839
0.000150109
0.000149874
0.000158642
0.000456701
0.000215872
0.000149505
0.000310382
0.00028775
0.000488549
0.000239589
0.000383473
0.000263151
0.000348042
0.000690791
0.000843375
0.00157068
0.00100803
0.000833326
0.0025563
0.000838145
0.000608778
0.000868189
0.00115365
0.0497011
0.025429
0.0777094
0.0199049
0.0168405
0.0388887
0.0253595
0.834387
0.821348
0.822705
0.821738
0.913472
0.892213
0.923113
0.77536
0.908152
0.901809
0.776245
0.774893
0.908172
0.775972
0.908179
0.90788
0.773512
0.773512
0.773512
0.773512
0.773744
0.864051
0.83959
0.840127
0.840214
0.840127
0.645768
0.840214
0.327271
0.793539
0.840214
0.840214
0.720332
0.629215
0.628799
0.629215
0.633104
0.570384
0.568691
0.00149502
0.0015437
0.0024907
0.0018441
0.00322359
0.00217722
0.00131227
0.52409
0.52817
0.663194
0.675635
0.664905
0.673896
0.675526
0.675264
0.403855
0.675635
0.51298
0.527489
0.675635
0.48276
0.673124
0.478714
0.509872
0.673127
0.604137
0.499071
0.674271
0.673136
0.674085
0.474819
0.464059
0.467697
0.287987
0.286821
0.287097
0.296122
0.47996
0.47996
0.436328
0.276074
0.265453
0.238407
0.015297
0.0297097
0.0180135
0.0352696
0.0601252
0.0212213
0.0216247
0.023841
0.00885615
0.0416041
0.0137966
0.0425845
0.0104184
0.0225474
0.00195539
0.000739155
0.00328189
0.00211154
0.00557423
0.00102807
0.00261393
0.000103749
0.000123807
0.000103714
0.000190447
0.000135934
0.000258195
0.000104497
0.131644
0.125299
0.443953
0.15338
0.648578
0.176296
0.146071
0.538448
0.792948
0.898033
0.895465
0.898031
0.898031
0.897786
0.0023224
0.0088482
0.00546068
0.021474
0.0140596
0.00658044
0.0209681
0.000100133
1.5908e-06
1.5056e-06
0.000106165
5.60768e-06
4.94714e-06
4.02948e-05
8.91315e-08
4.67312e-08
1.52926e-07
3.80358e-09
1.38858e-07
7.72673e-08
4.09049e-09
6.29238e-05
7.33247e-05
6.46195e-05
7.11152e-05
8.13659e-05
0.0001599
8.22077e-05
0.00033698
4.86419e-05
0.000161953
0.000185669
0.000305867
8.78e-05
0.000137283
0.00168372
0.00201383
0.00170127
0.00302677
0.00456494
0.00333271
0.00661567
0.0148284
0.0144554
0.0162898
0.0375576
0.0284807
0.0525033
0.0242872
0.218178
0.213114
0.133695
0.591085
0.73806
0.205622
0.498498
0.103379
0.262687
0.0577923
0.059049
0.194823
0.0577138
0.109095
0.0326152
0.0316425
0.585135
0.584901
0.689771
0.585638
0.585655
0.58513
0.690346
0.570349
0.695207
0.696067
0.647175
0.570349
0.633722
0.696051
0.494646
0.565983
0.49462
0.702314
0.518235
0.661909
0.702363
0.265276
0.267291
0.676451
0.69147
0.691269
0.673125
0.600765
0.702269
0.702269
0.702321
0.265633
0.264812
0.264812
0.407206
0.241159
0.241159
0.000347601
0.000120991
0.000260607
0.000346238
0.000764021
0.000804316
0.00101279
2.84115e-05
6.27885e-05
4.50856e-05
2.82794e-05
5.94989e-05
3.74254e-05
3.75121e-05
3.75121e-05
3.75853e-05
3.75853e-05
4.38283e-05
3.75319e-05
1.38259e-05
1.42648e-05
1.45179e-05
1.37432e-05
1.23988e-05
1.579e-05
1.37628e-05
6.91254e-05
6.99534e-05
6.44492e-05
7.33634e-05
7.33634e-05
7.40026e-05
7.33634e-05
1.35943e-05
1.35971e-05
1.45786e-05
1.35971e-05
1.35971e-05
1.4884e-05
2.57188e-05
1.48407e-05
2.23736e-05
2.61255e-05
1.90683e-05
2.61132e-05
4.83078e-05
2.67562e-05
3.12735e-05
1.90031e-05
4.25428e-05
1.37741e-05
4.86207e-05
1.14113e-05
6.32616e-06
1.17091e-05
4.25022e-06
2.85697e-06
5.77097e-06
5.76138e-06
3.85542e-06
2.635e-06
3.08833e-06
4.40932e-06
3.24324e-07
5.25362e-06
1.97543e-06
4.71967e-07
3.0837e-06
2.03295e-06
1.263e-06
4.08566e-08
2.49294e-06
4.01372e-08
1.16252e-07
1.66684e-06
1.60652e-07
1.61991e-08
1.66632e-06
4.7034e-06
1.42613e-08
7.69704e-09
6.46671e-22
1.08105e-07
1.10287e-07
2.15329e-09
8.75696e-09
4.00147e-06
4.00368e-06
1.89855e-06
3.72043e-10
3.75002e-11
1.03913e-11
1.11088e-08
2.19821e-09
7.47725e-10
2.0883e-10
1.91064e-08
4.16719e-08
7.59835e-08
3.15192e-08
3.61374e-08
3.4206e-10
4.72178e-09
1.32011e-10
4.91954e-10
2.99585e-09
1.01517e-10
3.11007e-10
1.19483e-09
3.77143e-10
5.61899e-09
1.5929e-09
2.02351e-07
2.02479e-07
1.7512e-07
1.78452e-08
1.55542e-08
3.20144e-05
4.5192e-05
2.64352e-05
1.21217e-05
9.33325e-06
2.14336e-05
1.00369e-05
3.64538e-05
2.32178e-05
0.000106435
1.48315e-05
1.78483e-05
1.00369e-05
1.09109e-05
3.0901e-05
1.58957e-05
3.09032e-05
1.14513e-05
7.15579e-06
2.86594e-05
1.7829e-05
0.00171043
0.0011799
0.00474066
0.000124993
0.000150412
0.000229709
0.000517329
0.000856893
0.000722897
0.00272408
0.00562109
0.00498023
0.00283432
0.00620049
0.00619919
0.00356695
0.00111041
0.000764844
0.00208044
0.00028788
0.000147696
0.000553309
0.000654204
0.000459025
0.000259256
0.000193426
0.000195549
0.000196164
8.07561e-05
0.000196744
0.000198021
0.000394352
4.27e-05
6.98231e-05
0.000129383
6.02142e-05
3.77344e-05
3.444e-05
3.43883e-05
3.67441e-05
5.3671e-05
0.000225029
0.000224137
0.000199428
0.000213809
0.000223312
0.000227048
0.000115259
0.0114501
0.00632012
0.013321
0.00768189
0.00421127
0.00207936
0.00464723
0.00492345
0.0206736
0.00978926
0.024494
0.012497
0.00978119
0.0128396
0.750678
0.436649
0.766603
0.74936
0.636718
0.36867
0.716198
0.506058
0.684377
0.0781751
0.714306
0.451121
0.495153
0.065034
0.602108
0.509931
0.47978
0.740919
0.479906
0.771504
0.770449
0.908505
0.707757
0.707902
0.924181
0.857923
0.863598
0.917198
0.644926
0.644926
0.644926
0.727836
0.730571
0.771196
0.644983
0.923866
0.707757
0.707906
0.829631
0.924181
0.859191
0.820599
0.913129
0.820582
0.84275
0.825701
0.872438
0.918868
0.924181
0.82555
0.923728
0.774786
0.869002
0.866736
0.00249134
0.00599917
0.00610968
0.00592451
0.00185994
0.000980205
0.00323701
0.533216
0.533216
0.533216
0.533216
0.533216
0.202535
0.491366
0.476958
0.428376
0.477915
0.241333
0.462898
0.241333
0.246652
0.283748
0.504111
0.241333
0.490462
0.521038
0.531928
0.012227
0.0341747
0.0202864
0.0124281
0.0319478
0.0271575
0.00578825
0.0056856
0.0111185
0.00428467
0.0158239
0.021895
0.0233736
0.010607
0.000943306
0.000851035
0.000264037
0.000264367
0.000858468
0.00167428
0.000261835
0.108237
0.0591604
0.105139
0.0615082
0.0592275
0.0179353
0.0354077
0.0772177
0.0328596
0.00440034
0.0014997
0.00154374
0.0568619
0.0208276
0.266997
0.122882
0.00016016
0.000113203
0.000121955
0.000152941
0.000113314
0.000171665
0.000426571
0.000174225
0.000234767
0.000343601
0.000463658
0.000376401
0.000452055
0.00101322
0.00128032
0.000825444
0.00199091
0.00157827
8.45885e-05
2.3912e-05
0.000121736
4.48721e-05
6.53831e-06
4.75019e-05
1.33314e-05
0.0374506
0.0579309
0.0625006
0.143453
0.103248
0.449297
0.134834
0.725956
0.725815
0.598417
0.726006
0.726006
0.601564
0.726127
0.738954
0.57397
0.738954
0.51146
0.741158
0.738954
0.624548
0.696867
0.581417
0.582227
0.722681
0.739249
0.739199
0.739041
0.325074
0.429909
0.346187
0.741158
0.739353
0.580763
0.730355
0.581193
0.739249
0.739249
0.809183
0.166778
0.866787
0.161125
0.434359
0.58016
0.580153
0.739238
0.73923
0.661548
0.585679
0.627867
0.695968
0.0331652
0.02657
0.0106938
0.0556607
0.448688
0.160598
0.128855
0.0406501
0.0657329
0.0355731
0.0635058
0.123653
0.001021
0.000956334
0.00252042
0.00360178
0.00235062
0.00208416
0.00134513
0.000296071
0.000185931
0.000258288
0.000619835
0.000378329
0.000455394
0.000965291
1.45931e-05
1.64022e-05
1.47383e-05
2.28882e-05
2.1106e-05
1.8515e-05
1.49087e-05
3.40901e-05
3.72268e-05
3.72828e-05
2.09721e-05
1.55154e-05
3.43793e-05
2.69114e-05
2.34632e-06
9.51178e-07
1.8608e-06
1.76745e-06
9.44969e-07
4.84711e-06
2.55309e-06
6.22872e-09
1.00996e-07
7.40309e-08
5.41127e-08
2.75991e-09
5.41127e-08
4.62978e-08
8.34464e-09
4.83431e-09
1.98804e-08
1.96702e-09
1.05567e-10
4.71473e-08
4.61757e-19
8.23578e-18
2.27861e-24
6.86226e-15
2.0352e-15
3.05212e-17
9.07114e-17
4.58027e-12
1.41635e-13
2.22217e-12
3.81647e-40
7.46093e-40
1.4647e-27
2.97663e-19
1.04442e-19
8.11407e-31
3.43365e-44
2.65037e-42
1.27703e-34
3.96762e-20
2.58678e-20
4.44115e-21
4.35963e-21
3.49031e-21
3.57221e-21
3.12921e-22
0.35446
0.843659
0.973008
0.944025
0.983504
0.943741
0.919578
8.26373e-05
8.33852e-05
8.11607e-05
0.000553081
0.00025279
0.00160116
0.00305494
0.00417962
0.0196859
0.00424327
0.0196304
0.00726802
0.0602956
0.0100354
1.63002e-10
7.37177e-10
5.71574e-10
1.33116e-09
1.07186e-08
5.26222e-09
1.63549e-10
0.000182641
9.94611e-05
0.000599159
5.18543e-05
0.000123402
0.0001295
0.00163823
2.80441e-05
5.91954e-06
1.0194e-05
6.1509e-05
7.47159e-06
1.01037e-05
1.31251e-05
8.7716e-07
1.17656e-06
4.37449e-06
8.72097e-06
2.32185e-05
2.43559e-06
1.02899e-06
4.17093e-06
9.48363e-06
1.41374e-05
3.11455e-05
5.47175e-06
5.40598e-06
1.25458e-05
1.54574e-05
2.36074e-05
6.08384e-05
0.000132633
0.000208226
6.58348e-05
9.63756e-05
0.000175044
0.000208551
0.000844195
0.000732725
0.00084347
0.000368971
0.000764667
0.000473908
0.00084347
0.000508375
0.000112541
0.000238226
0.000506742
0.000457996
0.000193336
0.000508375
0.0197168
0.014215
0.0298116
0.0149428
0.0259617
0.015043
0.00487412
0.075722
0.0785219
0.0777337
0.0757388
0.0757114
0.106162
0.297647
0.0687498
0.0581435
0.0582676
0.0991172
0.0858047
0.188201
0.103332
0.188473
0.188791
0.0581724
0.0581466
0.0811644
0.0581867
0.152887
0.177784
0.0966916
0.171877
0.127289
0.250399
0.168556
0.118816
0.250562
0.233883
0.118713
0.171071
0.0704491
0.298955
0.196624
0.196387
0.305775
0.217819
0.305153
0.196387
0.769498
0.597993
0.713391
0.596766
0.751877
0.769259
0.76862
0.302369
0.726437
0.663646
0.644995
0.819235
0.819433
0.595909
0.595564
0.885235
0.740148
0.596334
0.746756
0.885795
0.00361032
0.00564838
0.00491815
0.0109422
0.00901604
0.0109328
0.0079866
0.000177247
9.79772e-05
9.80733e-05
0.000101312
9.79772e-05
9.79772e-05
9.79754e-05
0.0245851
0.0616715
0.0638945
0.0368101
0.00634195
0.00862895
0.030976
0.0232809
0.0231882
0.0512766
0.0913207
0.034577
0.0253763
0.146344
0.903777
0.903805
0.903805
0.903805
0.903772
0.903772
0.864682
0.52733
0.842771
0.822128
0.844281
0.842771
0.842771
0.44713
0.504573
0.431287
0.523996
0.523904
0.501697
0.523773
0.215477
0.0736221
0.0738422
0.129334
0.0734122
0.0784706
0.0736221
0.159612
0.457529
0.0738582
0.548251
0.145224
0.134639
0.12065
0.913488
0.712836
0.9175
0.900269
0.900269
0.961425
0.960497
0.679537
0.679369
0.679369
0.956661
0.714803
0.937148
0.892335
0.680064
0.887572
0.893565
0.0957595
0.0957051
0.0957595
0.248057
0.0958616
0.0957595
0.11513
0.390532
0.598831
0.646424
0.115483
0.101183
0.164955
0.646188
0.13279
0.0950475
0.131801
0.251417
0.646188
0.0944745
0.413862
0.00253332
0.00326355
0.0112644
0.00242252
0.00616428
0.00126746
0.00479947
9.46987e-08
2.95649e-07
3.09752e-07
2.57849e-07
2.0248e-07
2.16171e-07
2.58132e-07
9.8313e-08
1.74656e-07
5.78447e-08
1.86458e-07
3.2242e-07
1.09467e-07
5.71261e-08
9.8445e-09
1.05889e-08
4.45411e-09
7.78452e-09
9.52867e-09
1.80837e-11
2.31285e-11
8.39392e-11
3.18205e-11
8.06198e-11
3.19246e-11
1.87415e-10
0.910659
0.756785
0.968938
0.763683
0.859459
0.254189
0.903525
0.00173535
0.00573206
0.00486374
0.00153288
0.00179738
0.00323343
0.00292541
0.000607281
6.02568e-05
0.000238864
7.08807e-05
4.11595e-05
7.43499e-05
0.000526831
1.07238e-10
3.0991e-11
2.13115e-11
3.86716e-07
2.30064e-07
4.84799e-07
1.39634e-07
3.95187e-07
1.50837e-07
8.23476e-07
1.4626e-07
1.10944e-07
1.41957e-07
9.27223e-09
1.13907e-08
1.02816e-08
9.80907e-09
4.17594e-08
1.21984e-08
6.9804e-09
4.10518e-09
1.03821e-08
1.16766e-09
2.17759e-09
6.69142e-09
3.04625e-09
8.24673e-08
2.48786e-07
4.83248e-08
1.90594e-07
6.63548e-07
3.02349e-07
8.07884e-08
0.000149828
0.000149548
0.00015055
0.000194562
0.000149363
0.000296577
0.000168173
0.000575
0.000575
0.000575
0.000550831
0.000455793
0.000229152
0.000485291
0.000252164
0.000205259
0.000567944
0.000252813
0.000253539
0.00020528
0.000265026
0.00060958
0.000470762
0.000443191
0.00045409
0.000554326
0.000871034
0.00113984
0.000447987
0.000813337
0.00240662
0.00170071
0.00175607
0.0032978
0.0033236
0.00177066
0.00374158
0.183919
0.184525
0.34037
0.260882
0.183955
0.363841
0.183954
0.363883
0.109114
0.3639
0.164164
0.185633
0.185633
0.101989
0.10214
0.102167
0.184948
0.363883
0.320085
0.363912
0.104882
0.105049
0.234307
0.141593
0.0756146
0.0756295
0.365382
0.353363
0.152952
0.233056
0.0776377
0.356487
0.35606
0.189065
0.189154
0.18916
0.185743
0.18562
0.18562
0.286943
0.185847
0.18562
0.304144
0.233449
0.233603
0.322833
0.233425
0.233421
0.233401
0.233401
0.000685472
0.000518419
0.000868065
0.00053424
0.000517314
0.00143338
0.0016921
0.00166603
0.000970693
0.00142979
0.000596336
0.00142747
0.00065114
0.000449382
0.000449661
0.000450895
0.000893147
0.000475762
0.000475962
0.000473286
0.00281149
0.00321232
0.000424443
0.000516941
0.00137072
0.0013725
0.00126882
0.00137293
0.00137261
0.00137296
0.00137296
0.00061419
0.000883732
0.000468807
0.000833863
0.000450294
0.000631789
0.000384173
0.00701677
0.00289549
0.0069634
0.0036881
0.00137276
0.00131316
0.00532623
0.903805
0.844346
0.453508
0.92671
0.928484
0.928473
0.928486
0.928485
0.928408
0.928485
0.922706
0.900012
0.922706
0.707776
0.922369
0.694205
0.916932
0.918021
0.918469
0.927755
0.927576
0.910422
0.775918
0.928477
0.928168
0.85084
0.852108
0.797979
0.84879
0.845771
0.840163
0.839933
0.797532
0.854665
0.822645
0.797616
0.95072
0.889914
0.724962
0.940483
0.959338
0.949534
0.959382
0.0178995
0.00710459
0.0224668
0.0070811
0.00709049
0.0103966
0.00857572
0.00570279
0.0010842
0.00117438
0.00958984
0.0211149
0.00882372
0.0068932
2.99378e-09
3.53806e-09
1.53006e-08
1.3195e-09
2.89288e-09
5.87816e-09
1.23811e-09
2.67272e-09
6.10228e-09
2.0068e-10
1.41887e-09
2.21404e-09
1.98881e-10
2.31322e-10
2.34494e-11
2.33933e-11
3.7127e-11
1.76658e-11
1.70747e-11
2.18879e-11
9.53745e-12
1.64595e-11
2.70504e-11
3.05748e-12
7.31035e-12
1.13951e-11
2.31367e-12
5.65573e-12
4.13995e-05
3.98312e-05
0.000123903
3.87721e-05
7.60292e-05
0.000112833
1.91117e-05
1.66847e-05
7.21733e-06
1.11064e-05
1.25441e-05
1.26659e-05
3.08765e-05
1.90383e-05
9.33325e-06
1.15883e-05
4.0672e-06
6.09934e-06
4.42587e-06
1.24274e-05
6.53112e-06
1.67145e-05
1.06492e-05
5.62424e-09
1.44641e-08
5.37108e-09
1.76138e-08
1.70627e-08
5.43796e-09
5.96751e-09
1.03821e-08
3.56677e-09
8.32755e-09
8.65376e-09
1.086e-08
1.43222e-08
3.44738e-08
3.62773e-08
9.04709e-08
1.01616e-07
2.40641e-09
7.33377e-09
1.08046e-08
1.38277e-06
5.7273e-07
4.70045e-07
3.42479e-06
4.19714e-07
1.28812e-06
3.99197e-06
1.86316e-05
5.7225e-06
4.80038e-05
2.42788e-05
1.99405e-05
1.01637e-05
0.000462982
0.000462988
0.000462987
0.000462983
0.000462981
0.000462818
0.000409345
0.000462976
0.000462827
0.0024108
0.00235392
0.00160446
0.00121214
0.00119487
0.00121315
0.0012792
0.0078901
0.0124516
0.00761666
0.0133164
0.00654371
0.0131282
0.00753366
0.136652
0.136669
0.136652
0.287511
0.287515
0.136841
0.258269
0.275849
0.147429
0.275998
0.14794
0.275917
0.275998
0.274737
0.147779
0.147429
0.186898
0.234269
0.146608
0.23427
0.145904
0.146051
0.146723
0.185898
0.0912748
0.0913363
0.00214217
0.00213126
0.00214164
0.00132845
0.00262811
0.00090476
0.000593078
0.139085
0.0987456
0.120283
0.155263
0.249511
0.683116
0.319362
0.685067
0.82825
0.63418
0.832185
0.831188
0.789809
0.834472
0.157949
0.358647
0.158176
0.177138
0.18207
0.476828
0.475033
0.0771622
0.0476323
0.0476323
0.0908999
0.146659
0.139104
0.431072
0.00385925
0.00339291
0.00381985
0.00589931
0.00338178
0.00331944
0.00731544
0.000591275
0.000903002
0.000890705
0.00064552
0.000565481
0.00029653
0.000189673
0.00248919
0.00156218
0.000728354
0.000730677
0.000943371
0.000185003
0.000499156
0.000182075
0.000466548
0.00110264
0.00110709
0.000655807
0.00121433
0.000778593
0.0010566
0.000836676
0.000837799
0.000718443
0.00117084
0.00109276
0.0012849
0.00126495
0.001093
0.0012797
0.0012849
0.000927261
0.927783
0.927783
0.92812
0.857744
0.857727
0.857744
0.857675
0.852665
0.857727
0.857727
0.909948
0.910364
0.909948
0.909948
0.42463
0.818475
0.85604
0.85604
0.85604
0.85603
0.85603
0.843473
0.539429
0.824039
0.857727
0.539491
0.0684165
0.0816289
0.071734
0.0223225
0.0250724
0.012803
0.0209757
0.340114
0.258916
0.575119
0.258473
0.254371
0.539688
0.556722
0.86747
0.703803
0.785385
0.873904
0.685464
0.886993
0.775308
0.405864
0.254346
0.254659
0.814626
0.894986
0.888694
0.898247
0.898648
0.898648
0.83961
0.898312
0.719009
0.888251
0.0553548
0.0192175
0.489913
0.861426
0.615985
0.126157
0.293192
0.0421885
0.0425158
7.538e-05
8.2007e-05
7.538e-05
7.538e-05
0.000177387
7.76975e-05
8.01078e-05
0.00144547
0.00169285
0.00308093
0.00144037
0.0013338
0.00117897
0.00230396
4.81129e-05
9.26934e-05
3.11573e-05
2.58306e-05
2.04762e-05
2.02076e-05
6.26267e-05
3.41198e-06
9.15462e-06
3.39025e-06
0.00031597
0.00052182
0.000409739
0.000496519
0.00031597
0.000522366
0.00052155
0.000214417
0.000201647
0.000369556
0.000542358
0.00054233
0.000224656
0.000235675
0.0005222
0.000381883
0.000108162
0.000108679
0.000140171
0.000101403
0.000252882
0.000104115
4.57092e-05
0.000247354
0.00037963
9.07607e-05
0.000366904
0.00010516
0.000540529
9.301e-07
1.44848e-06
1.01939e-05
3.17721e-05
1.0779e-05
2.81289e-06
2.18544e-12
6.43763e-08
1.24231e-07
3.46324e-13
3.54358e-08
1.59249e-08
5.50539e-09
0.000343613
0.000340855
0.00048299
0.000340811
0.000428385
0.000340805
0.000340805
0.292115
0.236103
0.292115
0.158131
0.16891
0.292115
0.290323
0.260658
0.29033
0.0266948
0.0699872
0.231213
0.0651575
0.0672227
0.287782
0.287782
0.269674
0.000204451
0.000204908
0.000239939
0.000208467
0.000348058
0.000205301
0.000205065
0.00171254
0.00216098
0.00225766
0.0047639
0.00633938
0.00306128
0.00490438
0.00127781
0.000831352
0.000834097
0.0020035
0.00682226
0.00570979
0.0100149
0.000421938
0.000529585
0.00115402
0.000437966
0.000421557
0.000911427
0.00192755
0.0016892
0.00110061
0.00110053
0.0013964
0.00158859
0.0020424
0.00111582
0.000239294
0.000216929
0.000179171
0.000284155
0.000626482
0.000179171
0.000184808
0.00182528
0.00328852
0.00136733
0.000955021
0.000949523
0.00192193
0.000531915
0.000836402
0.000248577
0.000603437
0.00042245
0.000422328
0.000619579
0.000240169
0.00796819
0.00284232
0.00278296
0.00452006
0.000990874
0.00161138
0.00232976
0.00192904
0.00600114
0.00130583
0.000264117
0.00130948
0.00635362
0.00276285
0.00885707
0.0260788
0.0133717
0.00268559
0.00454624
0.0090751
0.00721787
0.00648628
0.00719298
0.00139053
0.00132445
0.00139259
0.00329852
0.00243647
0.00113546
0.000832245
0.0741266
0.151357
0.0308273
0.0310083
0.0589563
0.145213
0.070846
0.00452152
0.00286128
0.00286042
0.0038748
0.00285847
0.00358085
0.00757916
0.0080212
0.0070043
0.00963027
0.00693792
0.012206
0.0124141
0.0066665
0.00177871
0.00176941
0.00176777
0.00300661
0.00230535
0.00272745
0.00155786
0.00154641
0.00124639
0.00151822
0.000331684
0.000222391
0.000694142
0.000556234
0.0459851
0.191466
0.113418
0.172572
0.0565607
0.459198
0.0615491
0.85603
0.854277
0.855968
0.850289
0.850276
0.850276
0.733314
0.850193
0.850289
0.850049
0.842074
0.843568
0.842074
0.842074
0.81977
0.502232
0.850289
0.850289