/*--------------------------------*- C++ -*----------------------------------*\
| =========                 |                                                 |
| \\      /  F ield         | OpenFOAM: The Open Source CFD Toolbox           |
|  \\    /   O peration     | Version:  v2012                                 |
|   \\  /    A nd           | Website:  www.openfoam.com                      |
|    \\/     M anipulation  |                                                 |
\*---------------------------------------------------------------------------*/
FoamFile
{
    version     2.0;
    format      ascii;
    class       surfaceScalarField;
    location    "0.4";
    object      alphaPhi0.water;
}
// * * * * * * * * * * * * * * * * * * * * * * * * * * * * * * * * * * * * * //

dimensions      [0 3 -1 0 0 0 0];
oriented        oriented;


internalField   nonuniform List<scalar> 
13152
(
9.96159e-07
2.03033e-05
-1.65345e-06
-1.96461e-05
1.87216e-05
-1.71157e-05
-6.09757e-07
-3.47491e-06
4.24999e-05
-3.4648e-05
3.54506e-05
-2.45608e-06
2.1232e-05
-7.5526e-05
2.85454e-05
-2.44292e-05
6.05211e-05
-1.60985e-05
-2.95263e-05
-2.84144e-05
7.40392e-05
3.91408e-07
-1.67799e-05
2.89966e-07
-2.99077e-05
7.72759e-07
7.85273e-06
5.15879e-06
-2.97914e-05
7.81698e-06
3.25725e-07
-5.07714e-06
-1.55203e-05
-2.9826e-05
-8.64564e-06
-1.4579e-05
-5.13436e-06
2.8359e-05
-7.63274e-08
-8.66266e-06
9.3341e-08
-1.41106e-05
-5.44778e-07
5.67171e-06
-3.05659e-05
1.62315e-05
-2.92995e-05
2.98368e-05
2.93628e-05
-4.81478e-07
4.18938e-08
-1.52365e-05
-2.99042e-05
1.20043e-07
-7.4932e-05
3.43674e-07
1.59812e-05
3.01786e-05
1.89973e-09
7.45188e-05
3.5789e-05
1.26622e-05
2.54158e-05
-7.3867e-05
3.63013e-07
-7.30839e-07
3.61568e-05
1.24154e-05
2.55786e-07
-1.8764e-05
7.36793e-05
7.79139e-05
2.92167e-05
-7.21606e-07
-2.94076e-05
9.12452e-07
-1.6421e-05
-2.69267e-05
7.25644e-05
1.73696e-07
-1.73163e-05
-8.07262e-06
8.00994e-06
2.36376e-07
5.29725e-06
-3.06862e-05
-4.97472e-06
-1.3942e-05
-2.90851e-05
-1.38256e-05
1.19948e-07
2.91676e-05
2.02452e-07
2.96044e-05
1.82909e-07
-1.8609e-05
-1.14333e-05
-3.01331e-05
3.45803e-06
5.82624e-05
-1.3095e-05
-1.23305e-05
-5.0764e-05
-2.58401e-05
8.1096e-05
-5.52425e-06
-6.27896e-05
6.09787e-06
-4.53341e-06
-1.51234e-05
2.44691e-06
-7.35217e-06
-1.29728e-05
-9.88265e-06
-2.20811e-05
-1.08434e-10
2.87711e-10
-6.1456e-12
-2.10766e-10
5.40647e-10
-1.53217e-10
-5.46043e-10
-2.02459e-10
-1.61044e-09
4.5349e-10
1.77078e-09
-2.47761e-09
6.95014e-10
-2.97804e-10
-5.24667e-09
5.87265e-09
-5.18014e-09
3.16438e-11
4.57589e-11
-9.59892e-12
-1.20371e-10
-6.06194e-11
-2.9112e-11
6.31368e-11
3.6294e-11
-3.01538e-12
-1.61028e-11
3.56459e-11
6.43459e-11
-1.67826e-11
-1.78863e-18
-4.08458e-11
-7.62488e-12
1.53037e-11
2.00985e-10
-6.78132e-11
-9.97858e-10
5.40301e-10
-2.80258e-10
-1.55052e-10
5.54803e-10
-1.96489e-11
-2.84283e-12
-8.05791e-10
1.36612e-10
3.57069e-10
-1.53255e-11
-2.33417e-09
3.1605e-11
-1.11101e-16
-2.03266e-15
-1.18328e-13
-7.09988e-13
-1.05139e-13
1.38327e-12
-1.23906e-13
-5.90646e-14
2.26565e-13
-2.30034e-16
-7.54814e-14
6.10377e-14
-2.97997e-14
-7.60348e-14
-3.64678e-13
4.11559e-13
-9.90713e-14
1.64561e-13
-1.67498e-13
3.10828e-11
-4.2534e-13
-2.33251e-13
1.26281e-10
1.82327e-11
-4.36439e-11
8.3634e-11
-4.34388e-12
1.74878e-11
2.47935e-13
2.98119e-13
-3.61222e-13
1.55026e-10
-3.61023e-11
-5.16011e-12
1.25413e-10
-8.44632e-12
5.60168e-08
-1.70301e-07
-2.82846e-07
4.3794e-07
-1.76467e-07
-3.65556e-07
5.0077e-07
-1.50657e-07
-4.89382e-08
1.80525e-07
1.93521e-07
-5.60753e-07
3.92768e-07
-2.09459e-07
1.13434e-07
-2.99144e-07
2.69997e-07
-1.78574e-06
-5.27632e-06
-1.01014e-06
7.23733e-06
-2.16055e-07
2.84131e-07
-1.92602e-06
-8.85489e-06
-1.54776e-07
-1.46844e-06
1.38601e-06
3.40117e-07
2.14421e-06
-5.60283e-06
5.80692e-06
-1.33614e-05
4.84105e-06
9.00614e-06
-9.78369e-08
-9.21219e-06
3.99224e-07
-1.33257e-05
-4.22022e-06
2.68668e-05
2.4416e-07
-1.63787e-05
-6.07954e-06
-2.65114e-05
2.756e-05
-3.1985e-05
1.68015e-05
-3.00381e-05
1.43975e-06
-8.69904e-05
1.57183e-05
1.55584e-05
3.20701e-05
-6.32016e-05
-1.15758e-06
8.5984e-06
8.47121e-06
5.30512e-06
8.46337e-06
1.36563e-05
2.7109e-05
-3.84433e-06
2.24444e-05
1.24706e-05
-3.80936e-131
3.08249e-13
2.0304e-14
-4.87661e-13
0
0
0
1.73817e-14
2.63074e-13
4.86888e-19
1.98168e-18
-4.35841e-18
9.69889e-20
3.05947e-19
-1.21579e-14
2.49981e-14
1.66846e-15
2.2455e-05
-1.24764e-07
-2.06316e-05
-3.9656e-08
-2.50477e-05
-2.80259e-05
7.6319e-05
-9.63376e-07
-2.38507e-05
-2.52018e-05
2.67198e-05
-2.31267e-06
2.15721e-05
-7.00217e-05
-2.05986e-06
8.48741e-07
-5.32958e-08
-1.60729e-71
-3.89328e-271
0
0
-2.50427e-271
0
-6.63135e-75
0
0
5.12894e-50
2.6704e-51
-8.3738e-50
-3.36675e-38
3.96117e-38
1.55749e-51
5.04266e-53
7.15345e-38
9.93683e-09
7.74198e-09
-7.22987e-09
-1.41649e-08
2.12552e-10
-2.87802e-08
3.58434e-08
-1.12322e-08
1.73273e-08
-8.15492e-09
8.0383e-09
-7.75445e-09
1.30127e-08
-3.9396e-08
1.7618e-08
-3.60984e-08
1.34252e-08
-9.53234e-11
-1.03609e-10
-1.05457e-10
2.48058e-10
-9.845e-12
9.17724e-11
-1.35236e-10
-5.23416e-10
3.25516e-10
-1.05218e-10
6.06444e-11
7.408e-11
6.15584e-11
-4.01385e-10
2.32499e-10
-8.79055e-10
1.06811e-10
3.31989e-11
1.77416e-10
-1.95777e-10
-5.88772e-11
2.21316e-10
-1.6223e-10
-1.31176e-11
-3.65941e-10
7.74424e-10
8.1326e-11
3.86027e-11
-2.72583e-10
2.30758e-10
-1.56049e-10
1.09496e-10
-2.38258e-10
-2.11749e-11
8.73139e-12
-1.34791e-12
-2.79604e-11
1.19635e-11
-4.00143e-12
-1.46359e-11
2.96743e-11
-1.80162e-12
-4.82538e-12
4.7336e-12
-3.22294e-12
-3.30817e-11
-2.55165e-12
-5.9721e-12
-4.21679e-13
4.16421e-12
-5.93341e-12
1.80377e-12
-8.85976e-12
-4.48354e-13
1.81555e-12
-2.83774e-12
9.1934e-12
-2.69384e-11
-1.40332e-11
2.82439e-11
-5.06497e-11
4.42792e-12
5.82762e-11
-1.82579e-11
-5.86783e-11
2.5078e-11
-9.19058e-13
1.08959e-11
4.60625e-11
-2.84663e-11
4.56431e-11
-4.57906e-11
-1.17204e-11
-1.11624e-11
-1.61914e-11
4.48624e-11
6.24158e-12
-3.01866e-11
1.32432e-11
1.05531e-11
-1.01309e-11
-2.66337e-11
-1.89677e-11
2.60269e-11
-1.37837e-11
-4.26883e-11
-4.08802e-11
1.80836e-11
3.91372e-11
-6.66327e-12
-2.88083e-11
-1.0997e-12
-1.89734e-11
-3.87534e-12
-1.32881e-12
-4.19993e-13
9.86511e-13
1.17012e-12
2.29929e-13
-1.41775e-14
-1.19435e-12
-6.68133e-13
1.07123e-12
-3.01073e-13
2.36063e-13
1.21718e-12
2.95409e-13
-4.48681e-13
4.61178e-12
-3.6094e-12
-5.11211e-14
2.54254e-14
6.49196e-12
-1.49785e-12
1.8925e-12
-4.03503e-12
3.55384e-14
-2.82084e-14
2.36532e-13
-1.11721e-13
-1.1175e-13
2.02983e-13
5.67329e-13
2.62417e-13
-3.03117e-13
8.56461e-14
-3.11611e-13
6.2317e-13
-3.54034e-13
-1.78197e-13
2.45972e-13
-1.885e-13
1.38139e-15
-2.84699e-15
-8.6949e-17
1.52617e-14
-3.93527e-15
5.80985e-15
3.43617e-15
2.5765e-15
-7.53592e-15
8.96255e-15
-4.4332e-15
-3.88012e-16
-6.91834e-15
3.90655e-14
-5.47802e-16
5.15452e-15
-2.50731e-16
-7.5442e-17
4.76492e-17
5.11409e-16
-3.40397e-17
1.23543e-16
4.07311e-17
-1.98151e-16
2.47449e-16
5.41315e-17
-5.02645e-15
-8.98508e-16
-3.73162e-15
1.18812e-15
4.53427e-15
-7.18247e-15
4.59258e-15
3.42201e-25
3.32733e-25
3.33505e-25
-9.07258e-25
-7.1147e-24
8.05012e-24
5.5598e-25
3.34032e-22
-2.40253e-22
-1.24399e-20
-3.49289e-23
1.39473e-20
-4.68008e-22
-1.02979e-20
2.49904e-23
-4.234e-22
3.47459e-24
-2.12131e-12
-3.72599e-13
3.44476e-12
9.82376e-13
3.60464e-12
3.81724e-12
-7.56812e-12
4.88832e-12
-2.99262e-14
-6.39438e-12
-4.37417e-12
1.23524e-11
-2.37429e-11
1.57542e-11
1.60577e-11
-3.9079e-11
1.52734e-11
-7.10124e-12
-4.86918e-12
3.10205e-12
1.23375e-11
3.69239e-12
2.56295e-12
1.01701e-11
-1.12833e-12
3.11566e-12
3.55018e-12
-3.49029e-12
-2.43557e-13
8.41758e-12
-8.68158e-12
1.38829e-11
-5.66556e-12
1.63459e-11
4.8201e-12
-7.28456e-12
-3.20283e-12
-2.27335e-11
-2.13053e-11
5.94511e-11
-3.07782e-11
3.44638e-11
7.66695e-12
6.36672e-12
-1.42867e-11
1.92249e-11
-5.54717e-11
6.62317e-11
-4.78142e-11
-2.42032e-11
-4.37728e-11
-2.29415e-11
9.15935e-11
6.89175e-12
-2.50539e-11
-1.29529e-11
-6.20352e-11
2.61967e-11
2.81902e-11
3.30732e-11
-8.58383e-11
4.15417e-11
-2.53164e-11
6.4896e-11
-9.31633e-11
8.41931e-11
-1.59884e-11
2.02401e-11
6.15886e-12
-1.22106e-11
5.17807e-11
-1.65909e-11
2.28594e-11
5.15194e-11
-2.76345e-11
2.07992e-11
1.18405e-11
-1.10966e-12
-4.54724e-11
-7.74458e-12
2.48152e-12
2.57247e-11
1.95955e-12
-1.11478e-11
1.04755e-11
-2.54219e-11
3.5479e-11
-2.78598e-10
3.99744e-11
-5.51579e-11
1.30029e-10
4.21307e-10
8.06262e-11
1.667e-10
1.60214e-10
3.76619e-11
-8.40995e-11
-1.00042e-11
1.3266e-10
8.45928e-11
-1.56452e-10
1.93388e-10
2.85411e-07
-1.75779e-08
-4.32031e-07
-4.59389e-09
-2.7912e-07
-2.91848e-08
4.88263e-07
-3.08273e-07
-4.04456e-08
4.97162e-07
7.09743e-08
-1.31836e-06
1.97987e-07
-1.66327e-08
-2.14034e-07
2.80458e-07
-6.04012e-07
-3.12359e-06
2.80829e-06
2.24403e-06
-1.96269e-06
5.49768e-06
1.07722e-06
-9.72411e-06
3.86606e-06
3.0984e-06
-1.75049e-06
3.4734e-06
5.07582e-07
5.23639e-06
-5.92623e-06
3.66706e-06
-2.13234e-05
2.20939e-05
-7.62332e-06
1.60607e-05
1.3296e-06
-1.73537e-05
-1.1795e-06
-3.58361e-06
1.89156e-07
5.22566e-06
-2.23931e-06
1.25914e-05
-4.09223e-07
-1.46858e-05
-1.16688e-06
1.16128e-05
4.09578e-06
1.0211e-05
-1.61732e-05
2.35223e-05
-1.41629e-05
2.36508e-05
-1.86181e-05
3.26708e-05
-1.98033e-05
-9.16761e-06
-7.49937e-06
5.7034e-05
2.90975e-07
-7.94848e-06
-7.52206e-07
-8.72456e-06
8.914e-07
1.05117e-05
4.77329e-06
-2.68873e-05
8.66991e-06
1.0364e-06
1.96332e-05
-2.00434e-05
-2.80785e-05
-3.06768e-05
5.93592e-05
4.91814e-06
-2.21485e-05
-1.69691e-05
1.05842e-05
6.64017e-06
-3.1836e-05
-5.74391e-06
-1.52028e-05
4.13518e-07
2.67979e-05
-1.42841e-05
-2.77922e-06
1.40626e-05
-1.37685e-05
5.49501e-07
-2.33902e-05
6.44663e-05
5.74635e-06
2.26608e-06
-2.16574e-05
6.63837e-06
-2.49906e-07
-4.82452e-06
-1.18051e-05
-1.31117e-05
2.08299e-06
-2.65142e-06
-8.61285e-06
8.50776e-06
-5.76249e-06
-1.08784e-05
2.06974e-05
-5.14245e-06
-4.57832e-06
7.55181e-06
-7.34042e-06
-5.43811e-06
-1.79712e-05
1.62906e-05
2.11568e-07
-9.8788e-06
-6.17799e-06
3.87057e-06
1.04329e-07
-3.43889e-06
-6.06586e-07
-7.8941e-07
-6.42776e-07
5.28562e-06
-5.88947e-07
-5.64419e-09
4.89162e-07
-4.90148e-07
-3.42777e-06
-3.91621e-07
2.531e-07
7.36637e-07
3.87001e-07
-1.75006e-06
7.60364e-07
-1.95304e-09
-1.33234e-07
5.63128e-07
-2.15439e-07
2.34975e-06
-1.38067e-06
1.49887e-06
-8.00205e-06
-9.23479e-07
1.30475e-07
2.37554e-06
-1.75853e-06
-1.37034e-06
-1.31137e-05
2.18125e-06
3.82215e-06
8.85278e-08
-2.12028e-05
-1.76655e-06
2.95852e-06
-5.11912e-06
-1.83256e-08
-9.60994e-08
1.46045e-08
9.40449e-08
-3.01825e-08
1.52008e-08
-1.84117e-09
-3.20028e-11
-1.26671e-07
-1.61572e-08
-2.94438e-08
5.68538e-08
-1.92659e-08
9.91422e-10
2.08665e-08
-4.04405e-08
6.43504e-09
8.1782e-08
1.34321e-07
2.02525e-07
-4.29093e-07
-7.7508e-08
4.93376e-08
1.00423e-07
1.76075e-07
5.43194e-07
-7.82251e-07
3.4777e-07
-2.81675e-07
9.34998e-07
2.67259e-09
-1.15341e-06
3.95131e-07
-2.5579e-07
-1.89769e-08
-4.64455e-07
3.94315e-07
-1.37233e-06
-3.74537e-07
8.73653e-08
9.61412e-07
-5.00684e-07
7.11367e-07
1.6801e-06
-2.55022e-06
7.87204e-07
2.80375e-07
-9.28379e-08
3.57338e-07
7.50632e-07
1.29969e-06
4.15748e-07
-3.43358e-06
-1.77135e-06
4.85031e-06
-1.07419e-05
7.05141e-06
1.38247e-06
-1.06393e-05
1.74234e-07
6.97753e-06
-6.33356e-07
-7.83654e-06
1.49327e-06
-4.72489e-06
-3.50841e-06
1.5082e-05
3.01562e-07
-1.02578e-05
-6.35199e-06
-2.03214e-05
1.2217e-05
-2.94788e-05
1.52915e-05
-2.4822e-05
8.80092e-07
-6.45031e-05
-1.9863e-06
-4.65812e-07
3.24331e-06
-6.04265e-07
-3.91851e-06
2.96327e-06
-2.76132e-06
1.03551e-05
-2.2955e-05
4.64124e-07
-3.18832e-05
-8.43174e-06
2.3599e-05
1.38683e-05
-4.46326e-05
9.25023e-06
1.49837e-05
-1.11225e-06
-1.2363e-06
-9.10566e-07
2.97794e-06
-4.24814e-07
-1.32163e-06
4.91698e-07
-2.18667e-06
-4.93482e-07
3.18218e-06
6.27079e-07
-6.28875e-06
4.43867e-06
-5.05771e-06
1.58747e-06
-2.42783e-06
4.39735e-06
-7.02165e-08
-1.0806e-07
-5.99067e-08
2.46899e-07
-2.59082e-08
-5.29127e-08
1.273e-08
-1.1445e-07
-2.30882e-08
1.6026e-07
2.76878e-08
-3.1382e-07
3.11017e-07
-2.88191e-07
7.62475e-08
-1.01219e-07
2.87264e-07
5.84472e-09
-2.44755e-09
3.81985e-09
-8.24929e-09
-5.98792e-09
5.94858e-09
6.88131e-09
2.85318e-08
-4.1996e-08
-2.62177e-10
-2.78368e-09
5.89587e-09
-6.85576e-09
9.44101e-09
-2.85433e-10
-1.81997e-09
-1.12121e-09
-7.43414e-09
-2.40099e-09
2.47677e-10
1.90813e-08
2.45304e-09
1.18155e-08
8.19978e-09
9.18124e-09
-3.50089e-08
3.89977e-09
5.9075e-09
-3.98945e-09
2.87845e-09
2.76784e-09
-3.2007e-09
-8.2638e-09
1.12571e-08
-1.9973e-08
1.38162e-08
-2.33126e-08
1.78611e-08
-4.07479e-08
6.13868e-09
-1.91801e-09
3.06052e-09
-5.18347e-09
-4.29911e-09
3.6486e-09
7.48563e-09
3.01501e-09
-1.13904e-08
6.24895e-09
-8.67809e-09
6.45771e-09
-5.04231e-09
1.83707e-08
6.04909e-10
-2.7192e-09
-5.50817e-09
-1.74311e-09
-2.85112e-09
2.43483e-10
8.77955e-10
2.62805e-09
2.3688e-06
2.56645e-07
-2.68672e-06
-9.66764e-08
-2.84501e-06
-1.74099e-06
6.70149e-06
-6.43182e-06
3.33819e-06
2.2342e-06
9.57916e-06
-1.47705e-05
2.06829e-06
-5.27383e-16
2.74839e-07
-5.5724e-16
2.83994e-06
1.14501e-06
-3.70529e-05
-1.2037e-06
3.71127e-05
-3.84814e-05
3.63402e-05
3.28671e-06
3.44502e-05
-0.000109984
3.82652e-05
-3.49516e-05
-4.50274e-06
-3.6192e-05
0.000111569
-2.7592e-06
2.88802e-06
-3.26012e-06
-5.08462e-10
3.73373e-10
-5.38095e-11
8.42027e-10
8.36208e-10
8.90149e-11
-1.05385e-09
5.51812e-10
9.84325e-10
3.38729e-10
-8.39409e-11
-2.64571e-10
1.32229e-11
1.55363e-09
3.08372e-10
-2.15702e-10
1.33876e-09
3.71953e-11
8.40787e-10
1.30919e-09
-1.73861e-09
8.67348e-10
2.48503e-09
-3.55349e-09
1.30256e-09
8.46409e-10
-1.67259e-09
1.52693e-09
2.70296e-09
2.27371e-09
-2.39664e-09
2.82896e-10
3.61556e-09
2.84376e-09
-4.84845e-10
2.45777e-09
1.57091e-09
-1.87978e-09
2.09707e-09
-3.01252e-10
-1.64076e-09
1.81094e-10
4.80188e-09
-3.92119e-09
2.18642e-09
4.55021e-09
-9.92236e-11
-4.60541e-09
1.07157e-09
-1.33377e-09
3.7263e-09
3.36782e-09
8.52427e-10
-2.32572e-09
-1.71735e-09
-1.10202e-08
9.95738e-10
1.35195e-08
4.26519e-09
-1.57787e-08
1.56913e-09
-1.22753e-09
-2.71027e-09
-1.73075e-09
4.47165e-09
-2.68006e-08
7.59271e-09
2.22195e-08
-3.26661e-09
-4.01739e-08
-4.28423e-09
9.92397e-09
-8.92808e-09
3.10328e-08
1.91786e-09
-3.02469e-08
-2.64398e-09
-1.13513e-07
-1.91801e-08
1.65614e-07
2.62033e-09
-9.92768e-08
-1.52461e-07
1.28809e-07
3.7743e-08
2.1975e-08
-2.73947e-07
-4.69444e-08
1.59082e-07
-5.57298e-08
-1.51732e-06
-1.08419e-07
-2.38526e-08
1.49918e-06
3.42954e-06
1.97503e-06
-6.79323e-06
3.50575e-06
-1.78247e-07
5.49128e-07
-4.76167e-07
-1.2909e-07
-4.7534e-07
2.48067e-06
6.28142e-07
8.27675e-07
3.59899e-06
-8.83459e-08
2.32158e-06
9.10119e-08
-2.09572e-06
2.0915e-06
-2.07943e-06
-7.55966e-10
-2.38375e-06
6.96707e-06
-2.97171e-06
2.88811e-06
1.68161e-06
-6.7439e-06
-1.66351e-07
-1.12319e-08
3.41628e-07
-3.08159e-07
-1.04495e-06
1.48976e-07
1.432e-06
-1.7544e-06
2.06399e-06
-4.22347e-07
1.61545e-06
-4.58599e-06
6.63931e-07
-5.13002e-07
4.68397e-08
-6.08921e-07
2.76998e-06
-5.79457e-08
1.47138e-06
1.0613e-06
5.00858e-07
1.85828e-06
1.33176e-07
-2.55277e-06
3.59664e-08
3.83996e-07
5.94016e-09
1.4064e-06
1.36156e-07
5.65094e-07
1.69597e-06
-2.06184e-06
1.78929e-06
-9.68997e-07
-1.56454e-06
1.41048e-07
-1.30697e-06
-2.05844e-06
7.66749e-06
-2.24512e-09
-3.13165e-07
2.14172e-09
-1.75809e-06
-9.64585e-08
-7.63616e-07
-7.00579e-06
-1.21192e-08
-1.47041e-08
-4.15502e-09
3.08287e-08
-1.66346e-09
-2.14085e-08
1.12489e-08
-6.47027e-10
-1.6263e-08
2.77143e-08
-2.85219e-08
-2.06641e-08
-2.31003e-08
4.62679e-08
-2.14488e-08
-3.12082e-09
-6.7664e-08
1.4274e-08
7.75483e-08
-7.3034e-08
-9.46661e-09
1.49924e-08
-1.94847e-08
2.02865e-08
-4.61932e-08
1.42313e-07
7.46259e-08
1.10469e-07
-2.5087e-07
8.67254e-08
-3.13591e-08
-2.10478e-08
1.1229e-07
2.65578e-08
-6.57556e-08
6.47904e-08
6.05731e-08
-2.65133e-09
4.70925e-10
2.30648e-09
-1.16044e-10
6.0738e-09
8.95894e-10
-9.59306e-09
3.75898e-09
2.799e-09
-7.33979e-10
-6.33065e-12
2.99527e-09
-4.65989e-10
-4.62653e-10
-1.89686e-10
-8.96395e-10
7.81993e-10
-7.71493e-10
6.75574e-11
1.42734e-09
-1.42203e-09
4.2402e-09
-2.93055e-09
-1.63202e-09
-1.22573e-09
2.75793e-10
-2.19101e-09
-3.06327e-10
-1.04639e-09
-1.86836e-09
-7.3026e-10
-2.50037e-09
-1.18362e-09
-3.59404e-10
1.32702e-10
2.12949e-09
-5.00808e-09
-1.8266e-09
-1.19056e-10
9.26171e-10
-4.85944e-10
-6.94769e-10
2.36068e-09
-1.64446e-09
-1.3566e-09
-1.01709e-09
-4.25025e-10
-1.05535e-09
-5.49285e-11
4.2179e-11
2.10476e-10
-3.46114e-09
7.45657e-10
-1.83882e-09
-8.08824e-11
9.44314e-10
-7.42175e-10
-7.67572e-10
6.55605e-10
-1.99599e-09
4.72501e-10
2.44161e-09
-8.64442e-10
-1.45153e-09
1.31835e-09
-1.73707e-10
-1.2966e-09
5.19226e-10
1.48173e-09
4.25617e-10
1.67387e-10
-8.67913e-10
1.20736e-10
8.53659e-10
-3.66957e-10
9.51746e-10
-1.07196e-09
-2.53173e-09
-2.06123e-09
-2.67259e-10
4.85765e-09
8.73957e-11
-2.28949e-09
-2.95413e-10
-2.30217e-09
1.70529e-10
3.15237e-09
1.3994e-09
-6.81972e-09
3.11542e-09
2.19687e-10
9.29416e-10
-1.63437e-09
2.83378e-09
-7.53682e-10
1.7969e-09
2.42123e-10
-1.63686e-09
3.32024e-09
-1.86075e-09
-2.15491e-09
-1.61674e-09
-1.03077e-09
7.54482e-10
5.48e-10
8.68797e-11
-2.62405e-09
8.35171e-10
-2.55078e-09
4.52169e-10
-4.11496e-11
5.78925e-10
-2.73286e-10
-1.20106e-10
5.9579e-10
-2.75254e-10
-6.70368e-11
-6.39773e-10
2.03069e-09
1.39919e-10
6.0655e-11
-3.15297e-10
3.66533e-10
-2.18211e-10
7.69479e-11
-9.48248e-11
2.62323e-11
-9.26212e-12
-1.68536e-11
1.30324e-11
2.58386e-11
-9.17481e-12
-2.65631e-11
-3.56765e-11
1.96903e-11
2.66014e-11
8.90476e-11
-2.24054e-12
-5.18587e-12
-1.09914e-11
1.82972e-11
-5.52522e-12
-2.19597e-11
3.20036e-11
-2.15166e-11
-1.1851e-11
1.01132e-11
1.99909e-11
-4.81178e-11
5.15561e-11
-4.37862e-11
1.87935e-11
-1.97755e-11
6.57388e-11
2.38817e-12
-8.0058e-12
-2.34364e-11
2.73311e-11
-9.88545e-12
-2.10954e-11
3.19933e-11
-1.50957e-11
-5.17686e-12
2.27239e-11
1.16629e-11
-4.68691e-11
5.3109e-11
-1.3976e-11
-2.68114e-11
7.26576e-11
-3.68045e-11
9.00072e-14
2.87923e-14
-2.42677e-13
1.35965e-13
-2.07445e-13
-7.96514e-14
4.19749e-13
-7.88348e-14
1.61055e-13
2.31533e-13
2.56678e-14
-3.17717e-13
2.80957e-13
1.65258e-13
-2.41168e-13
4.58174e-13
-4.40719e-13
7.07692e-09
5.874e-09
-4.75965e-09
-7.72158e-09
3.12133e-09
-1.87856e-09
6.36702e-09
3.38028e-09
7.52151e-09
8.77869e-09
-2.29976e-09
-7.22813e-09
9.5936e-10
1.45959e-08
-3.98727e-09
9.59e-09
-6.99669e-09
2.91215e-09
-3.93665e-09
-4.65755e-09
5.35406e-09
-8.19941e-09
7.08626e-09
4.01416e-09
-1.51307e-09
-1.06339e-08
8.8173e-09
-8.43453e-09
-8.80367e-09
2.71582e-10
2.49243e-08
2.28731e-09
-8.8801e-12
-1.08907e-08
-8.29048e-10
3.92446e-09
-2.31308e-09
8.55353e-09
-3.83815e-09
-2.86005e-08
1.96252e-09
4.44784e-09
-3.5968e-10
2.90005e-08
2.02109e-08
-1.0819e-07
3.20191e-09
7.54712e-09
6.48704e-08
3.91069e-08
-1.2329e-07
9.54752e-09
4.49769e-08
8.16716e-09
1.38578e-08
1.28591e-08
-3.08464e-07
3.46975e-07
1.40282e-06
-1.45416e-06
5.26236e-07
1.32052e-06
-2.16377e-06
4.99556e-07
3.5655e-07
-5.23154e-07
-1.35774e-06
2.35245e-06
-6.29634e-06
7.36691e-06
3.75265e-06
-4.18453e-06
4.89584e-06
2.69696e-05
1.07496e-05
-8.56205e-06
-2.88332e-05
-1.07858e-05
1.87359e-06
3.2952e-05
-1.0336e-05
5.11911e-06
1.81874e-05
3.06905e-06
-2.93592e-05
-4.32817e-06
2.24127e-05
3.82821e-06
-1.23463e-05
4.06986e-06
-7.54275e-06
1.18506e-05
2.98556e-05
-3.41666e-05
1.05282e-05
1.45701e-05
-3.26435e-05
1.13595e-05
1.10145e-05
3.70794e-06
-2.10273e-05
2.86752e-05
-1.55447e-05
3.0265e-05
-1.99743e-05
3.42831e-05
-2.64336e-05
2.02646e-05
3.77986e-06
-5.69794e-06
-1.64603e-05
-8.39922e-06
1.02887e-06
3.58981e-05
-2.21725e-06
7.48855e-06
3.1963e-06
-6.69989e-07
-4.36136e-06
-2.72313e-06
8.7113e-06
2.4993e-06
-7.55336e-06
6.06915e-06
-1.37523e-05
-2.38903e-06
6.01507e-06
7.98703e-06
3.38008e-06
1.67793e-07
-1.72492e-05
-2.62079e-06
7.18205e-06
1.51604e-05
-7.97682e-06
-5.95196e-06
-1.59922e-06
2.66428e-05
3.58049e-06
6.26415e-06
-1.02064e-05
2.07151e-06
7.55037e-06
2.80352e-07
-2.046e-06
6.2022e-07
-2.66695e-05
-2.22221e-05
-6.32927e-06
4.4555e-05
-1.53624e-06
-2.82771e-05
-2.42653e-05
5.00572e-07
8.50277e-06
-3.38997e-06
-2.93878e-05
8.32441e-06
6.20419e-08
9.23805e-06
1.33728e-05
-2.59958e-05
2.6926e-05
-9.35508e-06
2.70434e-05
-4.46837e-05
4.79424e-05
-3.19748e-05
1.98463e-07
3.24617e-05
1.66135e-06
1.27406e-05
2.43225e-05
-6.89288e-05
1.40741e-07
1.28117e-05
1.8501e-05
-1.63546e-05
-1.99619e-06
-5.35875e-06
3.66099e-05
-2.04596e-06
2.94309e-05
1.64637e-06
2.22087e-05
-7.31158e-07
-3.22858e-05
5.61958e-05
-2.25401e-05
-1.12969e-05
-2.00657e-05
6.7148e-05
-1.29004e-05
-4.69978e-07
1.2244e-05
5.47647e-06
-3.06306e-05
1.18691e-05
-1.46059e-07
8.28165e-06
-2.54412e-05
3.35873e-05
-1.35213e-05
6.93727e-05
-2.58499e-05
-8.14782e-08
2.50508e-05
9.17813e-07
2.0799e-05
3.02228e-05
4.89501e-07
2.01616e-05
2.19968e-05
5.24062e-07
-2.65518e-05
6.87552e-05
-9.44225e-07
1.29837e-05
1.724e-05
3.73216e-06
-3.38837e-05
-1.63121e-06
1.54016e-05
5.11373e-07
-1.94617e-05
1.06725e-05
-3.51194e-05
3.23188e-06
4.06061e-06
2.16091e-06
-1.02546e-05
3.17594e-07
2.97957e-06
8.82338e-07
5.88647e-06
3.61095e-06
3.22491e-06
1.05044e-06
5.34872e-06
2.46981e-06
2.12207e-06
8.98702e-06
2.19691e-05
8.73493e-06
2.27442e-05
2.41912e-07
-3.06763e-05
-1.16379e-05
-3.15824e-05
-1.06257e-05
-1.02184e-06
1.10116e-05
-5.04445e-06
-4.27471e-07
-4.48872e-07
-4.52666e-07
-1.95117e-07
-5.28627e-07
3.7348e-07
-5.21061e-07
-2.55196e-07
1.39455e-07
-4.32093e-07
-1.64025e-07
-8.85107e-07
-1.46614e-07
-1.34834e-06
-8.54131e-07
-1.62996e-05
-1.31492e-06
7.37485e-06
1.0228e-05
-2.60875e-05
-6.69982e-09
9.45268e-06
1.23453e-06
-1.0034e-05
8.22838e-06
2.45169e-05
1.21027e-05
1.21511e-05
-3.38762e-05
1.03725e-05
1.07815e-05
1.02686e-06
-1.5527e-05
2.61626e-05
-1.36216e-05
5.49157e-06
-6.91608e-06
1.63851e-05
4.57908e-06
1.22093e-05
8.05004e-06
2.77583e-06
2.58489e-05
8.77455e-08
-4.152e-05
4.4405e-07
-1.15677e-05
-2.0385e-05
5.05564e-05
4.31817e-07
-2.27039e-05
-1.72447e-05
1.44981e-05
1.17985e-06
3.07892e-06
-4.28505e-05
-3.47721e-05
2.90378e-05
-7.30509e-05
-8.96812e-06
-3.25366e-05
4.27228e-06
2.92056e-05
3.61278e-07
-8.44276e-06
7.23019e-08
-1.81932e-05
1.34046e-06
-1.02295e-05
-1.44694e-05
2.88181e-05
-3.14491e-05
1.28301e-05
3.08664e-05
8.5205e-06
-5.25305e-05
4.6605e-05
1.5676e-06
4.67077e-05
-6.18269e-05
7.9494e-05
-1.21403e-05
-2.29966e-05
9.25639e-07
1.44946e-06
9.61604e-06
5.68389e-07
-1.02744e-05
-5.38231e-07
-1.86887e-05
-9.27812e-07
2.89178e-05
3.46037e-07
-1.99898e-05
1.21301e-05
-3.99346e-05
1.75276e-05
-2.6466e-05
3.75128e-05
-1.86012e-05
1.76948e-05
5.69491e-07
7.90383e-07
-3.99749e-05
3.51931e-05
-7.43379e-05
2.61152e-05
-1.34893e-05
-1.28095e-05
-5.50552e-06
3.16397e-05
-6.66605e-07
-1.27173e-05
-9.10066e-08
-1.26556e-05
1.05551e-05
-4.08092e-05
1.73272e-05
2.73707e-05
2.61688e-05
-8.15152e-05
-8.74725e-05
-1.73419e-05
-2.91923e-05
-7.2399e-08
1.87667e-07
7.60826e-06
2.15361e-07
-8.18447e-06
-2.67103e-07
-1.88376e-05
-6.15932e-06
3.17667e-05
-3.39842e-07
-2.10383e-05
5.6406e-06
-3.38984e-05
1.66705e-05
-3.74547e-05
3.6943e-05
-3.5909e-05
-1.86465e-06
-9.08195e-05
-4.12098e-05
-1.70408e-05
-2.8401e-05
-5.09833e-07
-4.3808e-05
3.46528e-07
-1.81763e-05
2.30717e-05
-8.12438e-05
4.38686e-05
-9.51217e-05
5.01592e-08
8.48725e-09
-1.10008e-08
2.17769e-06
3.26153e-06
1.93468e-06
-7.17398e-06
-9.40242e-09
4.46653e-09
2.72186e-06
3.45579e-06
-7.23171e-09
5.65432e-06
-5.85471e-06
-2.11886e-06
1.12574e-05
-7.27593e-06
9.27272e-06
-1.06603e-05
-3.207e-06
-2.11443e-06
-6.31261e-07
6.6399e-06
-2.23068e-09
-3.31563e-06
6.15743e-09
-2.14945e-06
-8.48875e-09
4.05062e-06
8.3976e-07
-7.0234e-06
5.06833e-06
-6.76822e-08
2.20871e-06
-4.77346e-06
6.60773e-06
7.2655e-09
-7.30591e-09
-7.54164e-09
5.70103e-09
-1.43093e-08
-1.02296e-08
2.91094e-08
-1.23983e-08
-2.35624e-08
6.8649e-09
-6.51789e-09
-8.58577e-09
-5.12098e-08
3.92862e-08
3.85513e-09
-2.70593e-08
-1.14197e-07
6.69192e-08
-6.80227e-08
1.72841e-07
-1.69518e-07
-1.43108e-07
1.15662e-07
6.77773e-08
1.79038e-07
-3.8728e-07
-2.2163e-08
-2.13571e-07
3.553e-07
-1.56571e-07
2.048e-07
-1.17146e-07
1.4223e-07
-1.55112e-07
-1.00159e-07
-1.21608e-08
1.52074e-07
9.88489e-08
4.58533e-08
1.1508e-08
-1.32279e-07
5.52911e-08
9.23138e-10
5.69186e-08
2.10455e-08
-5.41711e-08
1.94734e-08
2.80281e-07
-1.03666e-07
1.86563e-07
-1.68931e-08
-3.46903e-09
8.40306e-09
-1.00843e-08
8.29952e-09
6.63823e-09
-3.54053e-09
-5.42466e-09
-2.07e-10
1.59984e-08
-1.96918e-09
1.8296e-09
-2.64469e-09
1.09274e-08
-1.54699e-08
2.01208e-10
2.03109e-09
2.09607e-10
3.53794e-09
9.28013e-09
-2.15405e-09
7.67711e-09
-9.65825e-09
4.64615e-09
-1.79051e-10
-7.72991e-10
-4.28455e-09
5.56235e-10
-8.35366e-10
6.34165e-09
-2.77495e-09
2.11163e-09
1.3807e-08
-6.86559e-09
1.85409e-09
1.54813e-08
1.11463e-09
-1.18079e-09
-6.10618e-09
-8.50116e-10
4.2137e-09
-2.67035e-10
-1.51667e-09
-1.32073e-09
2.94149e-09
-1.63466e-09
-8.64921e-09
7.0888e-09
-7.09891e-09
-7.63595e-09
1.80931e-08
-6.02278e-09
-2.01125e-09
-1.27711e-09
-9.91916e-09
2.88826e-09
-6.56656e-09
-2.00566e-09
2.95079e-09
-1.76629e-08
-5.28601e-09
-1.30646e-11
-1.3826e-11
2.67622e-12
1.438e-11
-1.30755e-11
2.27044e-11
-7.9122e-12
-5.84194e-12
-3.61365e-11
-2.80056e-11
-9.70482e-12
6.33449e-11
-1.00896e-11
-2.52045e-11
2.17628e-11
2.38907e-12
4.24176e-12
-8.8222e-13
1.6065e-12
-4.84505e-12
-6.33595e-13
-1.33697e-12
5.11226e-12
-1.38186e-13
-2.4857e-13
3.17809e-12
3.67324e-13
-6.32974e-12
-4.15826e-13
1.23964e-12
-1.22447e-12
3.43994e-14
-5.1951e-13
1.6097e-11
3.46316e-12
-1.8926e-11
-3.67173e-11
5.76645e-11
-3.62387e-11
3.59033e-12
2.97017e-11
-2.52407e-11
-2.95165e-10
6.69407e-10
3.53418e-10
-1.25695e-09
1.12974e-09
-4.69965e-10
-8.73494e-10
-1.50264e-10
1.60438e-09
-4.61218e-10
2.53989e-10
4.65668e-10
-8.6292e-11
-1.86974e-09
3.1847e-10
-9.70093e-10
3.69073e-10
-3.59727e-09
-4.62063e-09
1.83765e-10
7.61349e-09
-5.52254e-10
2.20917e-09
-6.0826e-09
-4.42441e-09
-1.21523e-09
-1.15632e-08
1.21722e-09
1.14225e-08
-4.54756e-10
-1.86489e-08
6.43759e-09
-1.24659e-08
7.18556e-09
-1.1833e-06
-7.59135e-08
4.85807e-07
4.23715e-07
4.76742e-07
1.94234e-07
-2.32261e-06
2.45901e-07
-4.02721e-08
2.08308e-08
1.73748e-07
-1.23218e-07
2.62422e-07
-1.02701e-08
-2.21985e-07
5.7873e-07
-1.30992e-07
-3.33993e-06
-1.55369e-08
-3.66706e-08
3.53299e-06
4.17044e-06
4.11353e-06
-1.11477e-05
3.66938e-06
1.92744e-08
1.13237e-06
-1.14198e-06
-4.41145e-08
-1.14796e-06
6.2015e-06
9.25424e-07
2.02336e-06
4.49814e-06
-2.10436e-08
1.23961e-06
-1.15936e-06
7.50276e-09
5.99216e-07
-6.12177e-07
-4.42947e-08
-2.24711e-06
4.31525e-06
3.87868e-06
7.27747e-07
-5.51364e-06
3.31436e-06
8.9176e-08
-6.37407e-08
5.38981e-07
-1.15381e-06
-1.03917e-06
-4.11836e-07
1.50632e-06
5.39644e-10
2.53004e-07
-1.15943e-06
-1.96351e-06
-3.86967e-08
-1.78394e-06
7.96187e-07
1.38994e-08
9.72933e-07
-8.61238e-06
4.12907e-07
-2.02991e-06
4.17341e-07
6.07148e-07
1.59246e-07
5.72669e-06
2.32067e-06
-1.52134e-05
1.08457e-06
-2.68835e-07
-9.88413e-07
2.16166e-06
-2.48654e-06
-5.59473e-08
1.42845e-06
-2.1158e-08
-1.36146e-07
7.77973e-08
-5.18279e-07
-1.43117e-06
-1.15529e-08
-5.64688e-07
-1.06169e-06
1.01698e-06
-6.51647e-09
3.63321e-07
-2.12889e-06
-7.7003e-07
-5.59326e-08
1.88217e-06
2.09527e-06
3.46748e-07
3.59822e-06
9.1617e-07
-4.88841e-10
-4.14979e-09
2.3229e-09
2.29962e-09
-3.38448e-09
3.80645e-09
-9.30032e-10
2.0743e-09
-9.62299e-09
-5.36728e-09
-1.94548e-09
1.11324e-08
-3.51555e-09
-1.61567e-09
2.25822e-09
-3.47274e-09
2.61953e-09
-3.91232e-09
-4.42828e-09
-1.31258e-09
5.01656e-10
-2.53286e-09
-1.87874e-09
1.4584e-09
-5.3276e-09
-8.38993e-09
4.36132e-09
5.54255e-09
8.93853e-10
-1.46141e-08
1.80574e-09
-3.54025e-09
4.94746e-09
9.24376e-10
3.95192e-09
-1.19449e-09
-5.24394e-09
3.52231e-09
-4.26534e-09
1.2569e-09
-3.46956e-09
1.13205e-08
-7.42476e-10
3.32087e-09
-3.63476e-09
6.02313e-09
-1.35165e-08
-1.33539e-09
3.68643e-09
-1.45655e-09
1.70855e-10
-1.94282e-09
-4.49493e-09
-9.88441e-09
-1.57699e-10
-1.43255e-09
4.54855e-10
1.12091e-09
-5.55506e-10
4.12762e-10
-2.51887e-10
2.1966e-10
-2.30406e-09
-3.45425e-10
-4.09622e-10
8.95202e-10
-5.90959e-10
-2.18872e-10
2.67001e-10
-8.44632e-10
9.44432e-11
-1.90235e-12
1.47356e-10
-1.76487e-10
2.53115e-11
2.22582e-10
-3.09673e-10
-1.3266e-10
-2.44597e-10
6.91894e-11
-5.5822e-10
-1.59931e-10
4.82771e-11
-3.39439e-10
-5.94333e-11
1.09103e-11
3.70812e-11
-1.37283e-11
-1.8222e-11
4.77239e-11
5.05543e-12
3.22281e-11
-4.9258e-11
2.67988e-11
1.22651e-10
-5.07878e-14
8.3131e-11
3.26399e-14
-5.46278e-15
8.01928e-13
8.98718e-13
-8.54003e-15
1.10737e-12
1.6856e-12
1.14087e-14
5.33079e-15
9.65682e-12
2.49668e-11
-1.98349e-11
1.2702e-11
2.51829e-11
-1.50164e-11
4.92116e-11
2.99883e-11
9.25807e-13
1.11067e-12
1.643e-13
-2.04911e-12
8.0297e-12
1.73166e-11
-2.0003e-11
1.14637e-11
3.57028e-12
1.32433e-12
1.85658e-12
-2.84512e-12
1.44671e-11
5.1833e-12
-5.86975e-11
9.81778e-11
-7.96555e-12
3.303e-10
6.29125e-12
-2.63337e-10
-3.12058e-11
-2.55439e-10
-2.13625e-10
9.94626e-10
-3.56535e-12
-5.69585e-11
-2.2079e-10
1.28977e-10
1.56504e-10
-1.9307e-12
-2.25651e-10
1.38342e-10
-2.979e-11
-3.38682e-10
-2.44571e-11
1.38902e-10
-2.07678e-10
3.27511e-10
-2.14647e-10
8.82553e-11
1.50104e-10
-3.59999e-11
-1.97542e-10
2.71693e-10
-8.73305e-10
6.19187e-10
2.83449e-10
1.5845e-10
2.04734e-09
-6.91154e-11
-2.72926e-09
9.16485e-11
-4.88888e-10
8.7336e-10
-5.88793e-10
-1.68779e-11
-1.16903e-11
-3.83477e-12
6.13163e-12
-4.76725e-13
-4.82466e-12
-1.00239e-11
2.17804e-11
-6.4171e-12
5.69385e-12
3.5603e-12
-1.48881e-11
-9.72809e-12
2.06897e-12
6.00858e-12
-6.34677e-13
-1.83835e-12
1.84891e-12
2.77418e-12
1.17738e-11
1.31418e-12
-1.61995e-12
-3.28544e-14
1.46315e-14
-1.30766e-15
-2.6883e-14
-6.34079e-14
-1.2782e-14
1.0999e-13
2.3239e-14
-1.25467e-14
-2.40224e-14
5.32762e-14
1.71437e-14
7.25754e-15
-3.67539e-14
-2.47733e-14
7.48089e-14
1.0828e-13
3.34579e-15
-6.13527e-14
2.57764e-14
-1.35951e-13
-4.69374e-14
-2.81605e-13
1.55847e-13
1.42722e-13
3.57534e-14
-1.86305e-13
1.57162e-13
1.0969e-13
5.07536e-14
5.01936e-14
-3.10673e-14
4.09499e-14
1.90781e-13
-7.76897e-14
8.96326e-14
-3.07145e-13
9.44369e-10
1.00088e-08
2.68039e-09
-1.81722e-08
9.86211e-09
6.60913e-09
-1.73937e-08
9.75375e-09
1.01846e-08
-1.07665e-09
3.37961e-09
9.85491e-10