/*--------------------------------*- C++ -*----------------------------------*\
| =========                 |                                                 |
| \\      /  F ield         | OpenFOAM: The Open Source CFD Toolbox           |
|  \\    /   O peration     | Version:  v2012                                 |
|   \\  /    A nd           | Website:  www.openfoam.com                      |
|    \\/     M anipulation  |                                                 |
\*---------------------------------------------------------------------------*/
FoamFile
{
    version     2.0;
    format      ascii;
    class       volScalarField;
    location    "0.4";
    object      p;
}
// * * * * * * * * * * * * * * * * * * * * * * * * * * * * * * * * * * * * * //

dimensions      [1 -1 -2 0 0 0 0];


internalField   nonuniform List<scalar> 
6576
(
-378.202
-402.481
-369.187
-376.95
-385.352
-364.982
-364.795
-348.84
-370.491
-368.223
-366.236
-358.324
-344.958
-360.956
-269.225
-288.888
-325.289
-318.544
-291.411
-282.995
-328.38
-354.885
-363.347
-434.552
-262.615
-218.971
-144.435
-405.711
-409.112
-404.817
-397.443
-387.166
-348.892
-251.856
-235.787
-249.27
-276.634
-273.297
-268.056
-269.753
-306.447
-351.03
-299.474
690.773
298.454
1222.35
335.371
585.908
1320.32
1050.69
447.384
974.506
-2.86244
-3.10156
-3.08933
-2.87405
-3.12865
-3.19999
-3.05453
-2.90172
-2.95425
-2.84774
-2.80785
-2.93927
-3.04625
-2.94308
-1.46901
-1.95208
-1.80977
-2.11946
-1.76751
-1.96269
-1.84573
17.4589
16.6447
17.0364
17.1269
17.5009
17.0963
17.0333
17.55
17.8456
17.2278
17.2545
17.0805
17.5205
18.1119
-126.193
-132.515
-124.478
-123.029
-117.427
-126.458
-120.337
-80.9707
-110.404
-122.844
-108.196
-128.112
-108.923
-92.8362
69.14
160.755
31.2634
98.6971
189.72
40.6174
94.6152
1271.82
1311.91
1378.75
1132.48
1458.23
1977.34
-3.04649
-2.94745
-3.22163
-3.19245
-3.36733
-3.33272
-3.28695
-28.5951
-47.3945
-188.69
-125.895
-140.091
-21.9313
11.8222
-2.30435
-2.85554
-2.80159
-2.92342
-2.82253
-3.0487
-3.09633
5.46076
5.62986
5.70741
4.63729
5.50469
5.96608
5.37752
4.80992
4.73274
4.5436
4.13079
4.61493
5.06521
4.66964
4.81131
4.8695
4.83301
4.75413
4.51957
4.87897
4.82556
4.64064
4.42072
4.42604
4.56837
4.41911
4.29798
4.38539
4.34664
4.44675
4.39105
4.23602
4.25611
4.39818
4.58047
4.46178
4.41208
3.91207
3.69975
3.82802
3.96804
3.78251
3.71379
3.57809
3.72412
3.86713
1.85794
1.7074
1.88355
1.96974
1.73571
1.93858
2.25888
2.17691
1.91601
1.00457
1.11872
0.825591
1.20073
1.50186
1.05509
1.23351
1.24726
0.971727
0.776317
1.20462
1.49849
1.12372
0.880161
0.0770855
0.176249
0.115993
0.55702
0.191001
0.347185
0.752926
-2.57601
-2.63823
-2.55765
-2.087
-2.19113
-2.63172
-2.78015
-0.629417
-0.736321
-0.570043
-0.266267
-0.539761
-0.556224
-0.318923
0.195063
-0.0454618
0.322673
0.168082
0.443104
0.70089
0.386091
1.41585
1.75082
1.56514
1.22184
1.2596
1.60247
1.46754
2.85058
2.5777
2.97584
2.42905
2.2832
2.75802
2.62866
3.78826
4.08982
4.08479
3.48788
3.4981
3.63319
3.65708
3.94542
3.92442
4.86047
4.82019
5.20491
4.69103
4.7416
4.77401
4.93052
3.97753
2.07985
6.69891
1.98196
2.59885
2.14954
3.50731
716.923
738.758
612.91
789.888
653.26
515.045
815.218
542.743
844.261
882.276
879.98
819.282
695.042
453.513
603.371
230.858
60.9458
69.7029
95.7839
68.1749
139.449
67.516
76.5046
80.8477
60.9985
842.982
841.748
815.001
169.512
272.054
-1.9956
333.021
315.371
110.61
252.13
23.2348
-6.03146
-5.52919
7.69003
20.5497
3.77716
-0.214237
0.743126
0.346453
0.855961
2.17111
0.989992
0.880384
1.55931
1.09831
2.26874
17.3347
3.08083
4.5441
-4.56993
-6.06207
-0.926129
0.707005
0.259074
-0.820148
0.8802
-1.26474
-0.941137
0.336635
0.518727
5.72351
4.90396
0.660057
3.82034
0.442818
0.238725
1.9351
2.89529
5.21965
48.9109
47.738
60.3827
49.6119
57.1284
43.1103
66.8704
88.4255
48.2465
226.366
551.915
211.756
251.007
305.17
172.364
347.944
820.288
782.923
800.381
940.264
735.285
298.889
683.607
794.485
967.577
27.7535
6.05837
22.4651
28.3562
52.0914
22.2174
44.9823
0.0402782
-0.954728
-0.128555
-0.540529
-0.104042
-0.809895
0.346234
-0.157453
-0.0538037
0.0871553
-0.0535499
-0.173421
-0.0900778
-0.0960624
-0.0175903
-0.107178
1.00371
0.971243
0.820466
0.864657
0.694847
0.946605
0.89392
1.2146
1.15763
1.20794
1.20777
1.07795
1.20642
1.09663
1.17617
1.23404
14.5283
10.5939
11.9731
13.7754
9.03949
9.50864
7.88508
-1.29264
-2.42075
-4.60333
13.1536
-0.500857
14.3182
23.0951
3.94786
3.61462
3.60536
4.19307
4.04802
3.82797
3.57047
3.85036
2.6675
2.89373
3.18693
3.89201
3.18255
2.63553
5.09101
4.66951
4.26852
5.17452
5.11727
4.68811
4.3279
6.0093
5.56103
6.5179
6.06625
6.10748
7.92601
6.89945
7.32417
6.69887
6.45861
4.57974
6.18232
3.3963
5.3226
4.57349
6.04358
10.613
9.38211
6.33558
9.24168
5.62308
4.90571
6.64933
14.054
5.67492
9.05466
7.66003
1.03577
7.84732
7.07975
-7.56541
0.600397
4.14848
-2.47513
-16.7569
-1.4451
6.75223
0.408634
-3.29245
1.68658
-2.69487
0.125725
2.74599
1.4728
-20.9371
-0.583234
-6.58163
-2.34149
-3.39591
2.49811
-5.33384
-9.55902
-7.3051
-6.13405
-3.49121
-3.86147
-5.80994
-7.15185
-7.01019
-4.79729
-8.68602
-5.857
-10.5701
-5.85698
-6.642
-3.45823
-11.1667
-3.30681
-3.3426
-3.75601
-3.03278
-3.58414
-3.3558
-3.35181
-3.40684
-3.34203
-3.06303
-2.82199
-3.6194
-3.83999
-3.54961
-3.46805
-3.47642
-3.63351
-3.33953
-3.40583
-2.80579
-2.85011
-4.72511
-4.16942
-4.15399
-4.62007
-2.69973
-2.41056
-1.46229
-3.37701
-4.22577
-2.74612
-3.93161
-2.8922
-1.81051
0.788818
1.43012
0.528017
-0.0650315
-0.699249
0.634674
0.0108024
0.232335
-0.228919
-0.0847239
0.615446
-0.0165864
-0.130655
0.208482
2.58564
2.26902
2.13378
2.01269
1.82673
1.75027
2.12931
3.77174
3.95554
3.6347
3.61447
3.90755
3.44473
3.47609
3.31381
3.06304
3.00934
3.23077
3.18444
3.40345
3.40363
3.31771
3.12038
3.13142
3.21702
3.18817
2.76648
2.8562
2.8392
2.76293
2.8488
2.78624
2.75097
-0.0996536
-0.0641522
-0.250206
-0.00179444
-0.0918322
-0.0940753
-0.0351626
-0.365067
-0.286451
-0.327342
-0.518653
-0.599717
-0.488088
-0.600598
-0.413333
-0.381009
-0.461488
-0.736046
-0.746225
-1.02042
-0.631361
-0.740766
-0.596477
16.7026
14.9659
21.6437
18.1745
26.114
12.2947
17.1291
-13.8272
24.1859
11.1956
-26.8376
-6.38652
0.0738159
8.47116
-15.8993
-30.4963
-28.3421
-29.0015
-21.7823
-53.6597
-90.5315
67.5829
103.872
44.3418
42.015
52.4541
70.2225
35.496
26.3797
63.0264
76.5774
20.5848
59.9972
40.2814
46.4309
28.9029
40.276
144.466
-1.92305
82.7478
60.213
-34.9367
24.1376
40.7646
148.901
240.064
3.17988
71.8503
8.2122
28.184
39.9904
34.1484
67.5779
14.1111
81.0283
92.2117
122.502
143.313
91.5829
100.471
50.9712
43.2974
-0.704559
77.2703
-10.7698
-59.0243
-31.4499
-31.4428
177.723
146.552
155.794
81.9543
29.2968
14.7838
-4.99364
26.7372
37.3781
20.4712
49.3111
39.0578
53.2054
125.341
96.345
62.3892
55.4694
250.271
226.957
286.691
7.98061
36.6
22.978
20.5931
40.2321
38.4755
20.2351
162.069
51.8579
107.679
45.3294
32.6782
423.879
184.591
195.725
380.988
4.02901
208.896
475.508
431.172
368.121
923.937
36.5417
69.7722
52.9338
93.1833
25.7058
89.4271
1.23113
219.188
152.47
134.485
163.136
230.456
107.118
43.8532
117.747
87.5652
310.314
240.73
221.712
10.4659
-11.1347
-8.11783
47.2048
26.9365
54.9242
69.1572
39.7634
37.9509
-16.6879
118.605
103.701
79.6772
86.2278
114.346
7.95101
77.5387
79.3415
53.3088
97.8106
-41.2475
11.7041
206.649
58.4698
34.2055
88.8448
49.872
20.3405
104.309
7.52812
59.9523
14.8804
49.4048
0.894506
2.25206
-1.32207
2.88437
4.73662
-2.39008
2.75113
2.12909
-1.41063
-0.329517
-0.454531
-2.97539
2.07863
1.10597
0.699962
0.386361
0.719088
0.647201
0.457674
0.74816
0.578542
-1.12906
-1.12854
-1.60318
-0.815602
-2.00767
-2.34424
-1.52282
-0.597643
-0.651398
-0.634632
-0.959158
-0.558204
-0.0703265
-0.584049
-0.381188
-0.358341
-0.60535
-0.182539
-0.208599
-0.241398
-0.314358
-0.572653
-0.398899
-0.286332
-0.403233
-0.398608
-0.39112
-0.438803
-0.404215
-0.423778
-0.385925
-0.371244
0.263127
0.243494
0.293824
0.320388
0.275168
0.406286
0.344904
4.22244
4.23367
4.23263
4.40411
4.37367
4.29972
4.36862
4.00256
3.78243
3.91039
4.05854
3.90804
3.91264
4.02812
4.29156
4.33884
4.52312
4.47057
4.65346
5.80684
5.65411
5.92362
5.90815
5.82379
5.89079
5.92176
6.0799
6.72906
6.08865
6.76617
6.54032
6.16857
5.97031
9.85004
6.42241
8.71017
9.02983
10.1043
7.91628
8.52814
19.6442
21.0252
7.30813
15.3547
9.04537
5.32592
7.95665
8.33449
9.06469
7.12105
4.41838
5.55405
10.5815
9.1262
11.036
14.016
10.2458
11.9736
23.8025
4.8554
8.13013
11.4773
17.6377
15.4257
9.96428
12.9573
6.61276
3.53688
2.52704
7.5439
7.87303
5.75493
1.64186
10.1389
7.74141
5.60892
5.67522
6.0305
3.54991
3.60116
3.58277
1.71617
2.89748
3.62728
3.26171
-3.08513
-2.43146
-1.97979
-1.32932
-1.55674
-1.56519
-2.03658
-3.0843
-3.07396
-3.86318
-3.20088
-2.73654
-2.84209
-3.63783
-4.54007
-3.97305
-4.31162
-4.31823
-4.75221
-4.11301
-5.0679
-5.13705
-4.39732
-4.47716
-4.81955
-4.4476
-3.33476
-4.81401
-4.95889
-4.74269
-4.10744
-3.23574
-4.63394
-3.40717
-3.7193
-3.94168
-3.28861
-2.7928
-3.01191
-3.20818
-3.22051
-3.19349
-3.16893
-2.97198
-2.91206
-2.99661
-2.96499
-3.00444
-2.93223
-2.78499
-3.06976
-2.59269
-2.47726
-2.20573
-2.78892
-3.11539
-2.90853
-2.40424
-2.72643
1.00285
0.949725
1.4651
0.458734
0.260689
0.84983
0.621985
1.38133
1.23576
1.24936
1.08264
0.91087
1.13519
0.91127
1.97487
2.09274
2.29534
1.66095
1.79884
1.61498
1.88937
1.68208
1.45305
1.7802
1.61783
1.61534
2.4575
2.66025
2.21921
2.32194
2.33374
2.33488
2.4817
2.59982
2.41492
-0.952123
-0.830517
-0.875773
-1.02622
-0.912425
-1.03654
-1.07212
-0.998958
-1.051
-0.802162
-0.852839
-0.778122
-0.688432
-0.721193
-0.757521
-0.720284
-0.564813
-0.628098
-0.586132
-0.563869
-0.510059
-0.528226
-0.580444
-0.233552
-0.0891679
-0.22531
-0.28068
-0.198151
-0.367008
-0.258764
-0.23084
-0.31445
0.53436
1.03287
0.870615
0.022654
0.527421
0.442015
0.360745
335.015
233.241
310.681
263.309
271.318
343.301
293.701
287.736
243.194
351.431
219.542
322.159
327.317
349.02
255.861
268.34
370.305
272.076
297.951
274.606
330.156
347.169
368.032
258.607
161.458
170.877
172.881
267.355
131.436
268.701
325.961
253.567
227.471
-78.7746
117.013
-14.7714
63.5088
67.4861
68.3799
-1.45712
-1.31504
0.144178
-0.120106
-1.97817
-2.21194
-1.1994
135.346
40.3923
52.8816
41.812
-2.2553
58.8379
26.1696
-12.1602
-0.0835037
28.0634
170.643
-58.7577
53.3555
-29.6311
7.95111
-2.5022
-13.4471
-49.3684
1.28758
77.0618
91.8917
-35.0602
29.2206
55.2843
21.1642
37.9414
77.1154
32.1111
48.3184
93.9643
56.5494
23.3211
46.854
25.6556
10.7564
17.5431
0.516096
1.95046
3.07481
-0.183603
2.5793
2.05203
-2.02294
2.07674
-0.481235
0.616035
1.3053
3.80563
1.56013
3.84532
0.852331
0.769087
0.574471
1.00541
1.99
0.764844
0.932987
0.602308
0.564239
0.696763
0.674068
0.78931
0.540975
0.607657
4.02416
3.18129
4.53565
-9.86282
9.4522
5.3095
3.12389
31.4683
10.3444
16.7637
6.9854
5.95493
16.2028
4.1328
19.1796
19.2909
20.5485
18.9732
18.1664
18.5635
19.1018
17.5745
17.595
17.7753
17.7414
17.6369
17.866
18.1775
16.4676
17.9308
17.147
16.5559
16.43
15.2893
15.7901
4.88528
5.29109
4.67107
5.14313
5.02675
5.69578
5.45098
5.52123
5.96209
5.54093
5.44849
5.77736
6.42305
5.72824
4.55258
2.90779
2.52829
4.29829
2.45875
2.84623
1.46282
4.38901
6.0839
5.25619
5.81335
5.57862
3.80892
5.42649
7.96514
32.9192
5.23992
11.4395
27.982
6.40987
12.5966
5.05366
3.51041
3.44943
5.04606
1.8671
9.81813
6.28616
8.07419
7.58187
5.9407
77.7493
24.7318
8.50744
27.4343
52.07
26.2788
35.5306
15.8509
41.4415
28.6532
40.3345
24.7288
31.2292
15.0797
64.767
52.6096
18.5044
21.986
23.8144
26.0029
-5.92859
10.8345
-6.30614
28.8987
7.77668
18.138
9.14553
8.14403
66.8591
11.6551
16.6286
27.6871
14.1006
15.1462
11.8636
5.56722
6.98129
8.10155
8.43168
8.13802
8.0807
7.41838
8.64184
6.48691
7.67608
6.04596
5.86278
6.18309
4.34881
5.04367
5.45007
5.74884
5.43089
5.7274
5.92329
5.62168
5.89509
5.82092
5.47249
5.43363
5.6437
5.65123
3.26231
4.05124
4.67813
3.43198
3.89793
3.80008
2.92609
-2.93798
-3.45828
-4.26183
-2.26402
-1.33384
-4.4967
-4.83998
-4.95764
-4.58475
-4.74696
-5.12295
-4.9061
-1.14299
-2.27459
-1.79048
-2.16551
-1.48382
-2.02591
-1.16286
-4.8064
-3.95926
-4.01602
-4.06557
-3.5007
-3.57012
-3.69962
-3.19187
-3.39573
-2.94663
-3.03494
-2.94167
-2.88989
-2.88349
-2.94178
-2.86703
-2.84058
-3.10311
-2.85659
-2.96363
-2.87299
-2.69992
-2.64201
-2.70724
-2.50894
-2.30938
-2.55072
-2.86357
-2.83778
-2.90409
-2.70667
-2.62747
-2.75234
-2.55695
-2.79624
-2.68813
-2.66038
-2.76161
-2.80432
-2.8859
-2.57265
-2.57798
-2.611
-2.6083
-2.44834
-2.11874
-2.419
-2.16266
-2.40191
-2.53748
-2.39891
-2.71255
-2.51133
-2.51899
-2.72122
-2.5292
-2.42192
-2.57034
-1.78085
-1.97434
-1.6721
-1.78994
-1.56121
-1.95626
-1.76464
-2.37707
-2.19862
-2.24344
-2.45158
-2.58603
-2.49867
-2.34709
-2.24388
-2.16137
-2.1786
-2.21386
-2.17146
-2.25771
-2.21029
-2.47068
-2.45435
-2.50149
-2.43532
-2.46546
-2.48344
-2.50436
-2.16332
-2.24401
-2.2837
-2.30611
-2.36328
-2.22947
-2.26106
-2.36454
-2.31214
-1.76305
-1.20517
-1.74494
-1.92722
-1.68881
-1.53607
-1.87785
-2.04577
-2.128
-2.04508
-2.15979
-2.17141
-2.10277
-2.10167
-1.52323
-1.38825
-1.59882
-1.73225
-1.71124
-1.65682
-1.67859
-1.52151
-1.59091
-1.54458
-1.69128
-1.67138
-1.4275
-1.61718
-1.49505
-1.65349
-1.69172
-1.60546
-1.07405
-1.24591
-1.18579
-1.21483
-1.2973
-1.08199
-1.17437
-0.310439
-0.775358
-0.644967
-0.398579
-0.720921
-0.582749
-0.402251
0.00861093
0.713611
-0.227639
0.953228
1.50392
0.548825
0.48677
28.2956
22.1195
15.4828
23.2985
17.2344
14.8089
3.17847
33.1455
5.2797
46.7241
45.1702
49.8902
33.7011
29.7194
24.8866
36.4169
64.1395
60.9285
83.1075
48.3027
50.5109
230.073
218.252
173.155
268.045
233.01
221.136
208.032
180.745
147.066
162.523
175.719
158.173
162.245
163.559
323.008
260.568
238.206
213.009
302.331
228.96
375.474
249.051
230.381
258.579
342.556
305.606
297.976
329.039
269.988
280.297
345.099
267.048
321.684
-2.52157
-2.55864
-3.21849
-2.46265
-2.96962
-2.76603
-2.59653
45.2769
82.5707
13.1112
36.9397
18.7431
6.35355
32.234
62.4226
43.6052
12.4634
78.3773
81.229
112.361
20.5226
32.8567
56.4787
86.6943
87.5725
15.1961
22.351
18.3011
30.1048
-1.21887
15.5291
30.506
29.6917
4.39574
12.314
3.58204
2.4407
-0.0247688
4.20321
0.450252
-0.678843
22.0884
22.2967
22.1565
21.4812
21.6401
21.9361
21.7505
28.4109
18.5994
28.6607
30.5934
29.9103
24.525
14.974
24.2228
17.77
19.3011
20.6826
16.1894
15.4782
16.3592
14.8049
13.9629
20.7196
20.2954
21.0007
21.0111
20.6548
21.2291
20.9286
21.0421
21.2572
19.5545
19.2124
19.7677
19.6107
19.3838
19.7003
19.8711
19.723
19.7184
18.4663
18.6961
19.6471
19.1301
19.6114
20.0644
20.1666
9.45039
8.09798
11.9465
5.90647
9.09129
8.41137
10.0288
14.2437
21.8579
32.1909
4.66265
3.53877
27.3984
34.988
50.3982
40.6337
41.7088
39.4111
60.051
46.2651
11.3926
75.8506
49.823
54.0815
63.387
60.0232
48.046
58.8443
22.8093
69.3818
41.3047
39.2588
60.759
57.0958
42.4382
59.938
68.8396
80.5901
64.679
19.2347
47.8222
20.7319
33.7724
87.4407
76.5654
66.6344
21.4463
50.9397
35.1527
75.3124
35.9009
7.13258
6.77004
7.8932
5.62456
4.1318
4.26059
9.4645
5.3449
4.40926
3.3277
5.33821
4.34246
6.87558
7.42108
7.53759
6.42199
8.41825
6.63736
7.2438
4.97955
5.19127
5.49495
4.81627
5.29793
6.38009
5.20606
6.06291
5.80146
6.1117
5.91258
6.31091
5.94169
6.184
2.32238
1.9498
2.57645
2.48743
2.13664
3.20121
2.6533
-0.335775
-0.522714
-0.0891042
-0.491904
-0.670238
-0.419102
-0.214971
-2.67004
-2.56821
-2.47816
-2.51789
-2.71158
-2.46452
-2.3401
-2.50429
-2.3607
-2.1254
-2.59238
-2.84971
-2.44457
-2.7096
-2.72451
-2.86892
-2.51427
-2.51469
-2.5817
-2.57967
-2.55928
-2.48767
-2.39658
-2.513
-3.05126
-2.36497
-2.51957
-2.38816
-2.41082
-2.71346
-2.47788
-2.47132
-2.75768
-2.45933
-3.68617
-3.04326
-2.8946
-2.9832
-3.38728
-5.44005
60.5362
-12.2102
-29.435
-34.0471
-18.5776
-63.4569
-4.40145
-5.71615
-5.84779
-9.04933
-6.4018
-5.30899
-1.10085
-6.84691
-4.55748
-5.31011
-5.37672
-6.42418
-3.47856
-6.6607
-3.75516
-3.15508
-3.43669
-3.1859
-3.08778
-3.16207
-3.30713
-2.63675
-2.65074
-2.42061
-3.01331
-3.31939
-2.90342
-2.79889
-2.40949
-2.44329
-2.44125
-2.43101
-2.46456
-2.48711
-2.4612
-2.58525
-2.55357
-2.55573
-2.54724
-2.55321
-2.58591
-2.56213
-2.54791
-2.56228
-2.36972
-2.41397
-2.40169
-2.403
-2.44845
-2.43627
-2.38807
-2.42043
-2.49867
-2.56582
-2.52238
-2.58899
-2.61236
-2.69391
-3.33007
-3.08698
-2.89626
-3.09225
-3.23603
-2.77336
-2.79562
-2.3306
-2.26497
-2.01372
-2.34731
-2.48807
-2.22786
-2.01296
0.522594
-0.243423
0.15937
0.0370871
0.142497
1.08029
0.924829
31.9981
35.967
32.2558
30.1424
26.0612
24.742
24.1864
22.137
32.3597
33.8055
27.948
35.9013
24.4375
23.7401
34.0529
44.1264
36.9479
36.0963
35.0873
36.6837
30.4335
29.0387
35.6096
17.4171
26.0435
40.1751
20.5284
42.0614
54.6065
28.398
26.3957
15.6057
18.9394
86.0957
40.4815
45.1629
14.4228
46.2574
3.85462
18.4246
56.592
50.9392
49.6661
53.6829
62.2445
59.6033
44.5941
57.9462
132.525
61.6046
156.229
199.211
167.367
96.807
106.979
123.359
81.7031
77.8406
95.8784
108.461
0.613114
0.204133
-0.211167
-0.0976465
-0.36505
0.189062
0.485966
0.700418
0.746028
0.702756
0.780888
0.621116
0.777654
0.69095
-3.04816
0.829144
1.88213
2.00678
0.978006
-0.293699
-1.36955
-11.4939
-1.66821
6.65711
-6.96724
-2.16199
2.55571
21.7055
982.693
453.143
873.456
921.55
659.991
886.286
848.211
97.2047
51.3471
-30.121
214.497
-7.78089
114.17
15.2462
23.4649
56.4638
38.9486
36.2503
62.2802
28.6142
26.359
52.1433
45.1756
41.2753
43.4511
44.6905
47.721
36.0103
33.7879
47.6728
34.7234
56.1457
42.6062
37.856
63.0472
35.1751
47.4059
9.6192
53.0493
21.7247
15.7643
46.2263
74.9086
62.1503
104.237
64.581
82.074
63.1578
83.2836
82.6084
70.0455
34.13
31.827
29.7066
34.715
33.0444
29.2769
27.3315
33.0764
23.0056
14.1204
40.0481
34.6474
34.8278
24.8892
6.94356
10.5072
8.61085
8.88729
10.8779
9.62463
13.3754
8.16823
7.48119
7.27901
6.8665
7.95944
7.73985
7.91774
3.25656
3.24519
3.34615
3.06169
3.21753
3.277
3.16207
3.12207
3.07856
2.93855
3.04233
3.07159
2.92331
2.89389
2.28926
2.60988
2.22556
2.72373
2.60373
2.23153
2.7111
2.1947
2.39094
2.7961
2.10302
2.08251
87.3516
-4.69722
33.6789
12.4365
2.26377
-5.32406
5.79403
-3.8585
-5.96961
-5.71776
-3.33032
-2.92232
-4.45051
-4.02921
-2.81807
-2.79109
-3.07824
-2.51888
-2.43196
-2.46212
-2.29843
-3.41681
-3.64522
-3.42722
-2.98764
-2.9498
-2.952
-2.94262
-2.95177
-2.954
-2.93676
-3.01084
-2.9481
-2.98111
-2.91973
-2.9128
-2.93658
-2.89871
-2.92369
-2.94589
-2.93244
-2.93619
-2.92606
-2.90352
-2.9042
-2.89903
-2.89835
-2.70503
-2.68212
-2.71927
-2.73561
-2.69949
-2.72454
-2.77192
-3.62065
-3.58829
-3.27905
-3.84671
-3.60495
-3.49409
-3.76031
-4.61687
-4.4529
-4.53035
-5.07525
-4.76125
-4.58829
-4.64896
-4.4246
-4.2803
-4.16718
-4.50937
-4.72671
-4.5088
-4.31787
-3.08031
-2.89368
-2.9841
-2.90409
-3.44582
-2.85041
-3.48092
-2.87027
-3.27516
-1.83447
-1.6096
-1.39403
-1.67716
-1.89141
-1.74871
-1.23795
14.6404
17.5278
14.38
14.1544
16.0226
17.304
17.395
20.5941
27.2303
21.8956
23.9564
20.7246
18.2835
20.2413
23.6575
17.6282
15.788
31.7783
27.011
22.8289
32.4106
23.4121
16.1522
32.389
34.2271
36.2499
25.3835
29.2699
33.0997
35.4954
33.8038
25.2456
25.8798
21.0807
37.2244
37.453
24.3234
21.3863
26.7526
15.6577
17.4007
22.3131
10.6458
28.456
21.278
25.7438
23.8272
19.7257
22.3866
24.549
-0.51113
-0.406161
-0.309773
-0.400492
-0.400307
-1.05876
-0.957464
-0.988787
-0.945891
-0.681008
-0.599235
-0.841111
-0.155587
-0.165692
-0.117636
-0.147476
-0.146947
-0.202927
-0.210761
-0.264934
-0.632287
-0.361685
-0.255662
-0.358557
0.391789
0.423959
0.447265
0.59767
0.505113
0.621883
0.529789
0.774551
0.709489
0.847379
0.496382
0.52104
0.503849
0.637864
-0.716894
-0.472028
1.82044
-0.565395
-0.645414
-0.0646345
0.838829
860.041
313.445
507.947
3483.1
1667.8
2824.23
2513.43
1828.57
3444.19
2697.44
2093.22
1029.56
2461.03
1920.55
2397.73
2637.01
1206.66
741.419
642.827
554.023
663.212
-99.2723
405.904
992.881
4520.1
3007.59
0.384476
181.547
214.07
159.413
191.035
-4.3934
56.5364
-77.0642
-19.9502
158.468
73.7282
73.9147
88.9503
78.6833
104.13
85.8204
66.6618
12.2453
12.3465
11.9132
13.3023
12.9181
12.7994
12.828
12.1405
12.2471
12.6035
12.0058
12.0869
12.7368
12.0878
2.54096
2.35285
2.85578
2.72827
2.76427
2.38614
3.22468
3.4561
2.73868
3.45078
2.67771
2.73139
3.56363
2.72951
3.41035
3.21319
3.36666
2.47395
3.3729
3.13018
3.16722
2.81311
3.04834
3.35517
2.53702
2.78937
2.77086
2.51548
-2.6735
-2.51112
-3.00744
-2.76702
-2.8035
-3.13681
-2.9763
-2.67123
-2.47279
-2.57794
-2.62436
-2.61752
-2.59083
-2.54671
-2.6084
-2.58655
-2.62379
-2.68025
-2.73128
-2.47626
-2.6428
-2.70535
-2.67715
-2.80987
-2.75234
-2.76719
-2.72886
-2.71473
-2.73124
-2.76224
-2.88914
-2.8764
-2.90978
-2.87352
-2.92444
-2.85067
-2.88925
-2.86447
-2.83049
-2.82013
-2.8975
-2.93414
-2.89539
-2.82519
-2.78497
-2.93612
-2.80587
-2.80883
-2.85406
-2.92689
-2.98985
-3.01439
-2.83147
-2.95721
-2.89063
-2.88531
-2.49486
-2.73395
-2.60594
-2.44563
-2.69629
-2.49003
-2.46261
-2.60838
-2.40658
-1.97372
-2.08236
-2.48776
-1.91334
-1.64611
-1.8861
-1.59845
-0.471355
-1.10298
-0.586799
-1.45479
-0.885085
-0.608843
-0.810146
7.42578
8.50833
10.3461
1.62207
5.85355
3.87505
6.74846
2.17334
8.80601
8.95292
9.56973
5.51638
6.99536
8.93177
2.3328
8.70918
4.26055
13.6708
15.9971
8.99052
11.6391
12.3063
7.7531
17.7817
21.954
20.598
-0.415006
0.0456987
-0.416925
-0.585736
-0.39029
-0.513767
-0.694986
5.17692
5.23844
9.74589
11.078
11.9239
31.5136
10.2239
39.8601
9.85819
34.2763
14.8304
21.0792
42.9991
32.7818
16.9163
12.8661
-3.48772
1.52373
1.39425
8.47745
2.09641
6.41733
14.7169
10.6955
0.807677
6.60677
7.08216
9.65286
0.132097
-0.0625581
-0.930366
0.143992
0.0562701
0.261682
-0.116446
-0.0735455
-0.0569532
-0.086632
-0.0400241
-0.0547976
-0.0252629
-0.0425715
0.082516
-0.104303
-0.103363
-0.0871809
-0.179379
-0.0206597
-0.0317822
-0.0636122
-0.0583362
0.10758
-0.00621001
-0.115385
-0.268069
-0.267675
-0.152779
-0.415154
-0.311559
-0.163474
-0.1901
-0.0261861
-0.173447
-0.0547312
0.0952034
0.00222373
-0.0642054
0.0303713
1700.83
971.315
720.906
414.646
298.937
870.43
-59.5197
164.817
-60.5053
68.4783
-646.624
128.183
663.996
137.602
233.787
-296.613
-24.159
229.804
143.636
-285.972
88.4301
-167.647
80.3572
-182.329
-27.9076
7.76191
-72.5635
-88.2455
-84.811
-94.3427
-105.681
-83.9571
-95.3876
0.48499
69.1525
53.2833
48.9695
-7.80219
98.9968
-1.58452
-29.3673
-84.3888
17.1077
133.93
-7.23797
178.221
41.8985
7.49714
-14.9279
136.552
132.387
90.1292
143.111
147.66
-54.4649
36.159
75.0063
71.3974
115.235
176.69
-28.7402
-23.0563
10.7724
0.0878336
36.8541
-13.7567
-3.73325
-20.4903
-15.1676
-2.28837
-2.32345
-2.16231
-1.94584
-1.93281
-2.24558
-2.2625
-2.63552
-2.24875
-2.15949
-2.53368
-2.37239
-2.19268
-2.35826
-2.6284
-2.62221
-2.61009
-2.59272
-2.56726
-2.61043
-2.61489
-2.92464
-2.84451
-2.82501
-2.77245
-2.75534
-2.63441
-2.80809
-2.67007
-2.79087
-2.74785
-2.82151
-3.25667
-2.91694
-2.87898
-2.94144
-3.00819
-3.19854
-3.03311
-2.924
-2.81623
-3.28072
-3.07857
-3.28214
-3.15045
-3.20447
-3.65609
-3.30885
-3.13665
-3.29985
-3.10026
-3.09933
-3.09483
-3.10327
-2.99152
-3.10777
-3.09153
-3.52826
-3.04347
-2.85929
-2.97268
-2.83526
-2.85554
-2.81184
-2.71662
-2.7801
-2.04336
-1.91518
-1.90532
-1.8762
-1.88127
-1.89513
-1.76528
-2.55801
-0.968429
-0.263074
-2.74479
-0.277036
-4.67551
0.563785
4.10177
7.00567
0.017804
-2.34452
1.10355
-0.656275
0.687604
6.68469
6.55115
4.10504
-1.62274
-1.82321
-1.07263
-1.67598
-1.80654
-1.94331
-1.56193
-0.794391
-1.4997
-1.07715
-0.41094
-1.62524
-1.59297
-1.39197
-0.52837
-0.640334
-0.286784
-1.43398
-0.541118
-1.33465
-1.02834
-1.04952
-0.788595
-0.968135
-1.18878
-1.38198
-1.27551
-1.23008
-0.569347
-0.212468
-0.377496
-0.376214
-0.470485
-0.378709
-0.0468515
-1.48512
-1.31807
-1.33079
-1.534
-1.44503
-1.30445
-1.38647
-0.765326
-0.735205
-0.7247
-0.954984
-0.907996
-0.812809
-0.780979
-0.383073
-0.485937
-0.520373
-0.568425
-0.440124
-0.427783
-0.478795
0.00948546
-0.118832
-0.234383
-0.212295
-0.287758
-0.38814
-0.288283
-0.0904626
0.0255662
-0.218713
-0.285749
-0.36018
-1.19144
-0.914463
-0.813374
-1.75668
-1.915
-1.43073
-1.31008
-1.8459
-1.55133
0.0545071
-0.0632595
-0.336042
-0.668248
-0.649123
-0.27085
-0.325916
-0.560979
-0.358796
-1.88686
-3.35831
-7.60785
-3.34612
-1.73026
-8.15775
-3.38451
0.900147
0.854631
0.655289
0.810962
1.08845
1.03314
0.913662
1.03696
0.268637
0.0823168
-0.0646688
0.375471
0.615914
1.04728
0.320901
0.287892
-0.186311
0.305353
0.714248
-0.143092
0.342632
0.483618
0.334844
0.439363
0.540364
0.436773
0.322944
0.382478
8.33506
3.56034
13.5357
5.0421
9.16136
0.666221
12.2821
-282.785
19.198
-109.058
139.082
-36.8522
50.379
69.2468
-19.6933
183.875
104.222
237.875
50.8483
57.8806
82.7349
-170.762
22.8852
-121.104
130.422
61.9872
70.0791
76.0058
110.782
50.927
114.461
-5.80653
-36.3115
8.52347
-14.5973
8.11902
-7.05307
6.17913
-74.4858
-25.7846
42.5405
20.4525
21.2275
17.434
18.9859
22.1575
22.9181
21.1277
-21.1656
-22.6731
-17.1053
-39.8533
-50.6149
-34.0233
-29.1246
-85.343
-86.5358
-82.0133
-47.8412
-91.3254
-67.1761
-103.682
-114.023
-55.1043
-112.507
-117.544
-105.828
-110.177
-114.014
-93.2768
-96.5457
-97.0215
-102.571
-140.572
-138.294
-140.747
-138.141
-141.591
-138.332
-140.725
-153.152
-150.096
-149.577
-150.733
-151.297
-150.114
-149.967
-132.945
-128.918
-132.152
-135.183
-134.011
-127.207
-131.822
-127.578
-128.318
-125.425
-126.493
-122.165
-124.463
-127.715
-110.059
-97.8007
-106.994
-116.734
-108.823
-104.465
-108.246
12.3127
-16.8507
-129.686
-154.158
-59.0815
-98.6139
-110.469
23.4607
166.491
-223.546
48.9153
-138.436
19.7559
-35.2299
-53.0824
-77.0205
-32.9136
-87.2241
149.281
-41.6822
-104.732
-36.6987
-2.96373
142.328
-107.653
-111.761
-92.3144
-109.096
-118.885
-104.486
-104.888
-140.464
-137.042
-145.173
-139.345
-135.213
-132.92
-141.501
-148.335
-144.746
-146.342
-144.36
-141.389
-147.594
-144.871
-120.883
-392.256
-121.606
-53.2015
-59.8476
-192.305
-437.732
954.126
1387.21
1292.78
373.584
969.457
1542.08
261.588
379.33
460.391
439.388
428.292
-22.5943
276.515
99.5764
143.809
216.097
578.143
111.631
356.619
508.345
-147.963
-146.096
-147.206
-147.292
-148.478
-147.874
-146.652
-140.39
-144.498
-142.131
-137.972
-139.245
-142.412
-140.714
-143.131
-143.065
-140.6
-143.103
-147.36
-144.26
-141.432
15.6142
15.8604
16.5239
16.6034
17.0253
16.4359
15.9719
19.5439
19.5512
19.256
18.7129
18.7655
18.3612
18.6149
12.1801
11.8294
12.7825
13.7882
11.9461
10.9259
10.4367
14.3291
15.0725
14.7698
14.5835
14.7588
15.0933
16.2103
14.6821
14.6513
17.6098
13.4809
-5.57939
6.54126
-3.22706
7.34635
4.55662
3.96452
-1.93297
2.51506
5.85799
-13.4351
10.8169
3.48112
9.97455
8.84857
-4.61651
10.667
-8.1537
6.50997
0.192466
3.72906
8.28599
2.59902
0.455014
0.544588
-0.271986
-0.526601
-1.23566
-1.22682
-1.95874
-0.723576
-0.593405
-0.931354
-1.06297
-1.08199
-0.660162
-0.859856
-0.957564
-1.00921
-0.999111
-1.01168
-1.125
-0.980552
-0.890545
-2.40774
-2.48417
-2.41353
-2.62468
-2.58144
-2.54877
-2.57731
-2.78605
-3.04756
-2.96331
-3.31446
-3.14651
-3.0081
-3.13496
-2.72941
-2.86864
-2.98885
-2.92705
-3.01551
-3.08353
-3.07041
-3.13242
-3.14625
-3.21031
-3.31324
-3.17358
-3.13237
-3.22927
-2.54724
-2.70451
-2.81921
-2.30384
-2.33455
-2.16034
-2.10168
-2.52871
-2.20916
-2.04493
-1.95997
-2.32572
-2.76396
-2.833
-2.77951
-2.6831
-2.76304
-2.70494
-2.63911
-2.94188
-3.06982
-2.86456
-2.61908
-2.14945
-2.64376
-2.77965
-2.75302
-2.76573
-2.58868
-2.34458
-2.67998
-2.81902
-2.73871
-2.92422
-2.8656
-2.68532
-2.13058
-2.57501
-2.59677
-2.69294
-2.94305
-2.90006
-3.0961
-2.24998
-2.17658
-2.26462
-2.41119
-2.47898
-2.45981
-2.48181
6.50833
-13.5408
9.20779
2.46981
-3.91893
2.50289
-9.42011
-2.84609
-31.9517
-5.50876
-3.08775
2.74459
8.0761
1.01876
0.662454
-14.86
-2.21873
-2.07158
-2.11976
-2.10483
-2.0998
-2.20954
-2.19776
-2.14108
-2.04555
-7.16133
-8.62962
-3.15957
-1.87898
-3.08658
-3.6156
-5.00563
-3.95041
-4.0459
-4.20217
-4.5893
-4.24914
-4.16965
-4.45491
-3.14582
-3.22542
-2.51727
-3.57447
-3.69328
-3.12365
-3.65583
-3.8703
-3.61021
-3.5223
-3.44709
-3.63735
-3.67958
-3.97894
-2.76992
-3.19812
-2.56845
-3.81
-3.59486
-2.19571
-2.17842
-2.52365
-2.5398
-1.84288
-2.20965
-2.68478
-2.66292
-2.56463
-2.4176
-2.68102
-2.8852
-2.91641
-2.69541
-1.96452
-1.76814
-1.80195
-1.56249
-1.7419
-1.58953
-1.78952
-1.57656
-1.73738
-1.72079
-1.58636
-1.40374
-1.7
-1.67402
-1.50881
-1.75711
-1.84402
-1.85377
-1.68014
-1.37301
-1.29497
-1.39718
-1.46875
-1.39528
-1.36458
-1.43162
-1.3106
-1.36915
-1.26687
-1.21224
-1.30419
-1.33565
-1.24237
-0.836964
-0.815052
-0.748633
-0.607902
-0.591857
-0.681125
-0.695428
-0.75489
-0.722129
-0.870889
-0.775196
-0.78422
-0.9325
-0.803009
-0.883405
-0.996682
-0.434944
-0.439605
-0.648568
-0.361405
-0.423423
-0.612134
-0.587536
-0.614038
-0.632357
-0.634909
-0.661638
-0.643792
-0.300341
-0.409755
-0.321179
-0.265786
-0.363184
-0.236621
-0.220616
0.699763
1.35623
0.92224
0.66437
-1.04209
1.12041
0.625398
1.24137
1.25978
1.28476
1.31318
1.24536
1.305
1.22602
1.01108
1.14456
1.07151
0.994604
1.0794
1.08183
1.0289
1.18606
1.22681
1.17646
1.22259
1.20867
1.13774
1.18741
1.23449
1.17025
1.01421
1.26051
1.22632
1.00347
1.05964
0.934614
0.95308
1.0274
0.810721
0.948512
30.7221
20.8201
23.5387
13.9689
20.8801
19.7244
22.7503
111.701
-17.9607
-13.9464
248.38
4.28391
123.701
-185.929
22.4069
-201.096
-9.88061
-118.492
112.285
-1.66966
-78.8252
-139.112
-83.2768
133.582
-43.7041
-136.846
-128.253
-93.7229
-25.7403
82.0672
-32.0415
-58.49
-17.4429
-66.5869
-80.3201
-74.8002
-172.555
-84.2068
-72.3909
-80.4746
-42.6778
-116.082
-49.8047
-80.5459
-129.824
55.9204
-75.8156
-110.241
94.573
-65.6014
-100.216
-90.7917
28.3413
-20.0273
78.416
-65.8157
-105.609
-33.098
2.14812
-110.205
-134.029
-66.7536
-112.783
12.3318
-95.7318
-92.1275
-0.247102
-47.3694
-123.363
-204.298
-230.944
-243.039
-198.728
-4.11002
-162.151
51.6622
51.9081
-40.62
-531.925
-139.422
-244.319
-47.4587
-72.992
-29.9837
-36.4
-35.8806
-26.9043
3.57686
69.3209
-8.4829
132.148
-39.1121
41.5796
122.535
142.385
191.351
299.578
173.629
-187.114
-66.823
-14.4496
113.634
-231.182
-120.378
-2.66792
71.9912
-107.945
-42.2102
-35.0374
25.5897
74.155
-148.981
-137.244
-6.75135
-108.965
-124.521
-116.241