/*--------------------------------*- C++ -*----------------------------------*\
| =========                 |                                                 |
| \\      /  F ield         | OpenFOAM: The Open Source CFD Toolbox           |
|  \\    /   O peration     | Version:  v2012                                 |
|   \\  /    A nd           | Website:  www.openfoam.com                      |
|    \\/     M anipulation  |                                                 |
\*---------------------------------------------------------------------------*/
FoamFile
{
    version     2.0;
    format      ascii;
    class       volScalarField;
    location    "0.1";
    object      p;
}
// * * * * * * * * * * * * * * * * * * * * * * * * * * * * * * * * * * * * * //

dimensions      [1 -1 -2 0 0 0 0];


internalField   nonuniform List<scalar> 
24700
(
-389.559
-430.643
-344.866
-405.432
-423.325
-306.42
-356.469
-416.484
-441.528
-449.993
-417.321
-443.429
-435.196
-372.775
-399.941
-423.591
-407.013
-213.938
-244.563
-249.37
-199.37
-179.933
-239.147
-228.773
-164.511
-203.289
-193.522
-201.81
-188.485
-2.92792
-2.92775
-2.93751
-2.9072
-2.90512
-2.91664
-2.91453
-2.58021
-2.61194
-2.61415
-2.63805
-2.61917
-2.62671
-2.6009
-1.93494
-1.53516
-2.09636
-2.17487
-1.9248
-1.74836
-2.17017
0.587043
0.630188
0.644151
0.555646
0.648237
0.559361
0.645537
-5.21564
-2.83792
-4.51745
-4.87177
2.24757
-3.87589
-5.35442
-2.56924
-2.60175
-2.5639
-2.53893
-2.57713
-2.60151
-2.5522
-2.7292
-2.72157
-2.8207
-2.6319
-2.68207
-2.73078
-2.64963
-36.3043
-6.33867
-30.2703
-19.6947
-5.97473
13.4145
-48.4953
-3.1537
-3.20339
-3.12978
-3.12197
-3.20325
-3.21441
-3.12854
-2.50581
-2.48782
-2.50297
-2.5012
-2.51842
-2.49462
-2.51205
-2.18113
-2.20373
-2.19295
-2.15424
-2.16591
-2.18258
-2.17109
-1.51138
-1.53852
-1.55695
-1.58998
-1.56442
-1.55885
-1.53236
-2.82489
-2.84372
-2.82062
-2.81014
-2.78896
-2.79947
-2.82274
-2.82527
-2.83513
-2.85559
-2.90517
-2.92477
-2.90223
-2.88918
-2.86897
-2.90181
-2.88218
-2.91374
-2.91329
-2.93601
-2.91635
-2.89404
-2.80459
-2.82787
-2.82359
-2.84951
-2.83065
-2.81669
-2.83583
-2.48344
-2.50175
-2.48321
-2.46676
-2.48732
-2.4956
-2.47592
-2.17267
-1.53187
-1.9791
-1.92775
-2.13237
-1.72559
-2.16675
0.124383
0.148715
0.110032
0.0745515
0.0869718
0.115136
0.100849
0.11637
0.089311
0.135598
0.135348
0.101135
0.0904996
0.135302
0.280158
0.289646
0.29727
0.27364
0.242865
0.260814
0.283205
0.292264
0.25441
0.281537
0.259152
0.303563
0.253832
0.2857
0.456743
0.402331
0.458044
0.42975
0.412946
0.385044
0.425257
-0.104845
-0.109974
-0.0947123
-0.0880672
-0.122097
-0.10145
-0.116153
-0.196594
-0.127427
-0.21054
-0.069752
-0.0382497
-0.11178
-0.13632
-11.423
11.1953
11.9538
8.98759
-0.498191
6.7886
-5.2153
-4.04349
-4.00826
-4.19946
-4.2276
-3.86607
-3.88308
-4.20991
-0.702009
-0.755421
-0.739255
-0.811344
-0.763579
-0.778224
-0.732691
-0.420266
-0.354125
-0.365321
-0.355087
-0.39602
-0.348806
-0.422346
-0.0474871
-0.0219237
-0.0615913
-0.0838031
-0.0370368
-0.0329237
-0.0770167
0.241493
0.254284
0.266063
0.231408
0.210856
0.231867
0.247081
0.755475
0.772078
0.670571
0.738084
0.702049
0.700164
89.1019
71.8388
71.7989
61.0794
67.6449
50.4023
13.4004
0.25039
2.94056
1.33225
2.39955
0.756646
2.6152
0.114815
0.378394
2.01507
0.0823731
1.1972
0.902412
-0.260212
0.668673
0.716174
0.758542
0.609313
0.402006
0.587291
0.555401
0.934429
0.980432
0.941972
0.909002
0.921985
0.958238
0.919363
0.822995
0.762281
0.749795
0.705068
0.644865
0.699256
0.762454
0.431939
0.527221
0.422115
0.322729
0.47007
0.507997
0.363838
0.304181
0.308303
0.275254
0.317148
0.303383
0.295552
0.312415
0.255898
0.223729
0.226828
0.284481
0.300732
0.265496
0.256387
-0.424683
-2.26205
-0.828251
-1.04247
-1.5403
-1.46613
-1.04659
-3.64147
-3.6416
-3.9158
-4.02352
-4.32476
-3.77348
-3.89898
-2.36395
-2.33895
-2.34143
-2.32218
-2.34905
-2.33291
-2.35873
-2.24817
-2.27419
-2.24936
-2.24559
-2.2194
-2.25914
-2.23367
-2.33607
-2.33021
-2.35998
-2.32725
-2.30296
-2.34516
-2.32118
-2.55941
-2.57933
-2.58191
-2.60965
-2.58997
-2.59743
-2.57734
-2.6743
-2.69504
-2.6643
-2.66442
-2.64298
-2.6851
-2.66425
-2.74773
-2.74255
-2.76748
-2.71267
-2.73324
-2.74806
-2.72846
-2.74498
-2.74856
-2.72567
-2.75732
-2.77654
-2.76349
-2.74423
-2.82794
-2.80463
-2.82352
-2.8307
-2.84954
-2.81673
-2.83582
-2.70114
-2.68247
-2.70243
-2.72047
-2.7006
-2.69173
-2.71153
-2.50308
-2.48789
-2.50593
-2.51861
-2.50161
-2.49474
-2.51217
-2.48316
-2.48237
-2.47733
-2.48311
-2.49202
-2.48664
-2.48335
1.62962
-14.5271
-1.48584
-13.8932
2.54083
-6.67926
5.88798
-0.778372
-0.744279
-0.78419
-0.824233
-0.790533
-0.76627
-0.800111
-0.698768
-0.700801
-0.711693
-0.711274
-0.651747
-0.712579
-0.673033
0.142763
0.17116
0.12272
0.110288
0.0976709
0.140645
0.123241
0.245148
0.188582
0.226977
0.164042
0.156934
0.173405
0.161783
0.197302
0.219316
0.160781
0.146362
0.148649
0.320252
0.27967
0.335863
0.35283
0.326219
0.296086
0.349752
0.313316
0.358626
0.361998
0.259594
0.2571
0.678722
0.605187
0.895475
0.645911
0.629039
0.929304
0.682701
0.932639
0.952343
0.919695
0.877706
0.944421
0.937422
0.882705
0.648746
0.675265
0.56939
0.640766
0.704602
0.698788
0.60693
0.748225
0.75818
0.733176
0.732675
0.773795
0.777424
0.740407
-1.48191
-1.61621
-1.61769
-1.41196
-1.25255
-1.35243
-1.56172
-2.40739
-2.37307
-2.3344
-2.26398
-2.27676
-2.31499
-2.34559
-2.27244
-2.28389
-2.25616
-2.25185
-2.28569
-2.28287
-2.25108
-2.08858
-2.06127
-2.06217
-2.03293
-2.06132
-2.04542
-2.07321
-2.16542
-2.14141
-2.13937
-2.09733
-2.12613
-2.14057
-2.11829
-2.49914
-2.49657
-2.51933
-2.47402
-2.49438
-2.4864
-2.50673
-2.87528
-2.85957
-2.85416
-2.83518
-2.85154
-2.84827
-2.86468
-2.82096
-2.80388
-2.80372
-2.78379
-2.80199
-2.79285
-2.81053
-3.00922
-3.10513
-3.01616
-2.91649
-3.03856
-3.08357
-2.9915
-0.763512
-0.75085
-0.723733
-0.756013
-0.751255
-0.754074
-0.724045
-0.779477
-0.74544
-0.82216
-0.849025
-0.870051
-0.804126
-0.816573
-0.909724
-0.833124
-0.820259
-0.767203
-0.754735
-0.815223
-0.857648
0.116076
0.119192
0.0961381
0.154221
0.137128
0.120792
0.139789
0.19769
0.219998
0.23148
0.235082
0.250736
0.236799
0.212103
1.16494
0.994647
1.20025
1.19082
1.0988
1.05189
1.06456
10.1713
31.713
18.9804
0.667693
2.73513
20.3633
5.77829
1.11664
1.14706
1.11486
1.08051
1.10554
1.11725
1.08827
0.874618
0.878901
0.89745
0.922761
0.915718
0.903178
0.896765
1.15541
1.08005
1.09462
1.06767
1.01546
1.1063
1.04984
0.164183
0.0952555
0.12834
0.0909006
0.167122
0.0870676
0.159926
-1.62918
-1.69892
-1.68385
-1.66955
-1.73638
-1.71951
-1.64878
-2.0276
-1.99143
-2.00195
-1.97845
-2.01682
-1.98578
-2.0233
-1.83975
-1.80928
-1.842
-1.8828
-1.85471
-1.84224
-1.87025
-1.83831
-1.85288
-1.88015
-1.79541
-1.82624
-2.04105
-2.06733
-2.03801
-2.01191
-2.04143
-2.05329
-2.02474
-2.03841
-2.07669
-2.04052
-2.01393
-2.06429
-2.17557
-2.15413
-2.14412
-2.15114
-2.17605
-2.81722
-2.79817
-2.81681
-2.83199
-2.81538
-2.80506
-2.82278
-2.66594
-2.65211
-2.60181
-2.80407
-2.68418
-2.73188
-2.63064
-2.62746
-2.63558
-2.6445
-2.61752
-2.61493
-2.62749
-2.63075
-2.65286
-2.64924
-2.65438
-2.65059
-2.64217
-2.64362
-2.64915
-2.32405
-2.29632
-2.33601
-2.28242
-2.25862
-2.31478
-2.29865
-2.00017
-2.03607
-1.97869
-2.06479
-2.07393
-2.01618
-2.032
-1.33103
-1.29846
-1.28728
-1.34231
-1.39002
-1.40004
-1.30588
-1.11282
-1.11624
-1.07559
-1.03028
-1.11944
-1.07122
-1.1409
-0.358852
-0.343996
-0.318106
-0.358178
-0.38274
-0.355351
-0.329832
-0.360492
-0.398488
-0.319891
-0.345835
-0.369834
0.265786
0.252459
0.241088
0.230613
0.21125
0.231384
0.247829
0.434211
0.376549
0.413305
0.377197
0.406622
0.363733
0.395244
0.915688
0.976507
0.928869
0.928274
0.904495
0.959856
0.923151
3.19272
1.55221
3.07623
3.72818
9.66004
1.64028
3.45702
1.07637
1.07487
1.09716
1.11111
1.12164
1.09241
1.09827
1.1396
1.11006
1.11838
1.10098
1.12156
1.10472
1.13026
1.06681
1.06942
1.06882
1.07404
1.06009
1.06356
1.07339
-0.0207507
-0.0343556
-0.0797191
-0.13543
-0.113922
-0.0813009
-0.0644771
-0.860228
-0.861403
-0.936062
-0.848642
-0.788965
-0.821083
-0.890463
-1.51141
-1.47975
-1.51356
-1.55913
-1.52785
-1.51491
-1.54499
-1.51024
-1.52501
-1.55553
-1.46429
-1.49762
-2.06213
-2.06124
-2.08849
-2.06128
-2.03297
-2.0454
-2.07313
-2.29301
-2.2645
-2.28115
-2.31761
-2.30127
-2.28155
-2.29756
-2.48734
-2.46304
-2.47676
-2.50742
-2.49346
-2.4768
-2.48982
-2.91828
-2.92636
-2.93906
-2.91242
-2.92673
-2.92781
-2.93768
-2.92731
-2.92115
-2.92671
-2.93618
-2.92704
-2.91612
-2.94099
-2.93304
-2.93294
-8.16457
3.31003
4.09927
-1.50801
7.79624
1.3124
1.35532
-2.84274
-2.81538
-2.8218
-2.82898
-2.81127
-2.82516
-2.82571
-2.68237
-2.67773
-2.67438
-2.68928
-2.69279
-2.68655
-2.68306
-2.59488
-2.60421
-2.58819
-2.61126
-2.61516
-2.60089
-2.60448
-2.40248
-2.35737
-2.39854
-2.40842
-2.43777
-2.38102
-2.41767
-1.86008
-1.93078
-1.91113
-1.82189
-1.81409
-1.88654
-1.87244
-1.40053
-1.43163
-1.45429
-1.43659
-1.43133
-1.41965
-1.41827
-0.986639
-1.00469
-0.992528
-1.04657
-1.02751
-1.02974
-1.01536
-0.731728
-0.708419
-0.738978
-0.74199
-0.769007
-0.722589
-0.746952
5.06794
4.5087
14.0133
3.54896
2.02556
1.42616
4.56416
83.9
65.0638
59.1701
67.6641
49.4096
82.3847
64.7641
83.2639
83.0697
90.43
65.1404
65.1082
71.9874
71.7989
72.3401
90.4217
73.2446
1.20224
1.18896
1.2111
1.21415
1.18842
1.18722
1.21472
1.25213
1.23202
1.22809
1.21259
1.22851
1.22465
1.2432
1.1189
1.13094
1.12511
1.14685
1.13454
1.12736
1.13623
1.08543
1.09245
1.08882
1.08843
1.10317
1.09591
1.0866
-1.06742
-1.07747
-1.12048
-1.05182
-1.01263
-1.04338
-1.08412
-1.41995
-1.39028
-1.38617
-1.38963
-1.35742
-1.34022
-1.37104
-1.39159
-1.43934
-1.40784
-2.33658
-2.32191
-2.31375
-2.28489
-2.29906
-2.30048
-2.31442
-2.93762
-2.94137
-2.94093
-2.94015
-2.97056
-2.9335
-2.94918
-2.94286
-2.92802
-2.94628
-2.93036
-2.94826
-3.00234
-2.96039
-2.93549
-2.93599
-2.97062
-2.93516
-2.92959
-2.99946
-2.96032
-2.94439
-2.94732
-2.96226
-2.92443
-2.94778
-2.88677
-2.91903
-2.98247
-2.94632
-2.75244
-2.74198
-2.75276
-2.7509
-2.76262
-2.74704
-2.75817
-2.65604
-2.72522
-2.69061
-2.72388
-2.67397
-2.73101
-2.66695
-1.71894
-1.6442
-1.7339
-1.81582
-1.77504
-1.74619
-1.74853
-1.06479
-1.03671
-1.07224
-1.07979
-1.11293
-1.0585
-1.08913
-0.285101
-0.242987
-0.27335
-0.284275
-0.316335
-0.259756
-0.28977
0.286286
0.273584
0.261569
0.233702
0.267181
0.256734
0.28686
0.337455
0.323524
0.331286
0.329525
0.31296
0.299316
0.322794
1.08983
1.13342
1.11346
1.1081
1.07974
1.11327
1.07668
60.2556
51.5412
68.9504
55.5597
58.539
76.1157
44.0719
28.4966
39.0304
56.2437
68.4477
66.6841
87.8963
69.347
48.766
1.00151
0.976245
0.989052
0.971475
1.00737
0.973542
1.00441
0.68352
0.625081
0.601181
0.746649
0.744154
0.686793
0.668085
0.109642
0.0787063
0.128456
0.0527666
0.0662602
0.0838768
0.100011
-0.396086
-0.444042
-0.405379
-0.40803
-0.364597
-0.425437
-0.378472
-0.613318
-0.575905
-0.561319
-0.520966
-0.550133
-0.552326
-0.585957
-0.951348
-0.911385
-0.90368
-0.857867
-0.894639
-0.88342
-0.923625
-1.03824
-1.06863
-1.0377
-1.02979
-0.998994
-1.04539
-1.01355
-1.1899
-1.15698
-1.15355
-1.11276
-1.14518
-1.13227
-1.16476
-1.15023
-1.1859
-1.15435
-1.10923
-1.14136
-1.16025
-1.12818
-1.03662
-1.06986
-1.03109
-1.02275
-0.989715
-1.04432
-1.0116
-1.06765
-1.01269
-1.05204
-1.12048
-1.07761
-1.0434
-1.08414
-1.67029
-1.73688
-1.68553
-1.70418
-1.63249
-1.72176
-1.6508
-2.15184
-2.20372
-2.11261
-2.1528
-2.19461
-2.19545
-2.13198
-2.50348
-2.4844
-1.93126
-2.36481
-2.68303
-2.52822
-2.32681
-2.93799
-2.92558
-2.9204
-2.92622
-2.94121
-2.91521
-2.93364
-2.93009
-2.94246
-2.93045
-2.86929
-2.86961
-2.88135
-2.85364
-2.86298
-2.8696
-2.8591
-3.80001
-3.76627
-3.69037
-3.72264
-3.81195
-3.76456
-3.62418
-1.11265
-1.07973
-1.07183
-1.03659
-1.06453
-1.05849
-1.08903
-0.743016
-0.779574
-0.733929
-0.754032
-0.709121
-0.740945
-0.723113
-0.705823
-0.780266
-0.718772
-0.654331
-0.641936
-0.70929
-0.695302
1.07588
1.08647
1.0604
1.07064
1.09847
1.09625
1.06802
0.963405
0.974894
0.944888
0.989856
0.964717
0.988431
0.959766
0.594004
0.648619
0.68453
0.654247
0.587882
0.582665
0.683106
-0.918236
-0.908662
-0.951549
-0.906659
-0.875465
-0.933978
-0.900711
-0.810197
-0.77737
-0.779205
-0.750138
-0.778461
-0.763975
-0.794209
-2.73771
-2.59946
-2.63064
-2.64864
-2.61757
-2.49406
-2.62517
-2.82895
-2.81847
-2.83498
-2.85986
-2.85623
-2.83451
-2.84053
-2.93611
-2.93654
-2.94035
-2.92027
-2.9231
-2.92534
-2.92902
-2.81931
-2.80678
-2.81491
-2.83386
-2.82339
-2.81563
-2.82494
-3.15913
-2.9562
-3.04586
-2.77268
-2.82651
-2.93171
-2.94371
-1.95658
-2.0203
-2.01934
-2.09498
-2.05015
-2.01524
-2.06663
-1.01621
-0.96611
-0.954233
-1.05573
-1.05733
-1.01552
-0.992295
-0.708949
-0.723863
-0.772781
-0.761461
-0.731129
-0.770541
-0.732406
-0.399727
-0.366127
-0.375208
-0.350475
-0.403669
-0.339662
-0.410062
0.107819
0.147086
0.124604
0.0733931
0.0842058
0.115142
0.0998603
0.223088
0.19378
0.215596
0.241508
0.224852
0.219009
0.21554
0.0838037
0.0713134
0.0496162
0.115125
-0.00744709
0.0327465
0.133152
-0.176853
-0.100416
-0.293776
-0.295534
-0.134327
-0.157238
-0.378738
1.20101
1.1875
1.2159
1.20755
1.18814
1.18642
1.21391
48.1945
57.9145
28.6787
79.3899
60.677
70.3761
51.8994
37.8617
56.8691
89.0315
80.2241
79.874
70.042
60.9211
29.2984
46.6381
57.0588
66.727
1.3926
1.50583
1.40711
1.39909
1.41641
1.42116
1.40146
0.954927
0.970245
0.927972
0.942076
0.970108
0.970235
0.940425
0.523714
0.457584
0.54105
0.547942
0.615989
0.494467
0.577822
0.382512
0.362685
0.340017
0.383006
0.420535
0.384477
0.35918
-0.0962861
-0.0670039
-0.0523557
-0.0171403
-0.0412937
-0.0421688
-0.0697618
-0.543373
-0.516426
-0.546972
-0.544085
-0.573961
-0.593019
-0.561717
-0.542193
-0.499189
-0.526875
-0.942342
-0.876907
-0.875279
-0.862514
-0.810491
-0.83817
-0.896704
-1.13894
2.32553
-7.46229
-2.7492
-9.29442
-1.99107
6.2878
-2.80091
-2.73979
-2.65292
-2.66889
-2.6543
-2.53949
-2.67433
-2.5401
-2.59412
-2.5583
-2.48367
-2.54867
-2.58063
-2.50728
-2.70152
-2.70811
-2.71301
-2.72439
-2.71606
-2.71536
-2.70903
-2.74211
-2.75242
-2.75282
-2.76267
-2.75094
-2.75815
-2.7471
-2.91746
-2.91197
-2.92548
-2.9173
-2.92354
-2.9389
-2.91052
-2.92616
-2.92232
-2.8917
-2.90441
-2.9114
-2.93001
-2.91375
-2.91536
-2.90079
-2.93846
-2.92503
-2.92272
-2.92268
-2.90831
-2.90671
-2.89256
-2.91347
-2.91784
-2.93626
-2.92067
-2.90561
-2.92087
-2.64919
-2.63748
-2.62364
-2.58713
-2.61668
-2.6165
-2.63527
-3.34268
-3.51422
-3.1962
-3.09769
-2.8446
-3.43627
-3.04172
-2.62978
-2.65818
-2.61266
-2.60241
-2.61772
-2.58845
-2.60109
-2.5985
-2.5997
-1.91871
-1.98048
-2.01409
-1.60242
-1.56833
-1.54801
-1.50457
-1.52923
-1.53474
-1.56987
-1.1821
-1.14198
-1.16782
-1.16768
-1.12316
-1.15316
-1.19277
0.559305
0.6745
0.645458
0.709397
0.644824
0.698336
0.611873
1.11839
1.11006
1.13954
1.12157
1.10094
1.10471
1.13024
56.9875
65.3771
85.4926
45.7432
68.2703
67.9449
0.631773
0.647984
0.67187
0.709632
0.685927
0.680872
0.653527
0.302856
0.26368
0.303039
0.300548
0.334654
0.287203
0.319059
-0.459879
-0.431056
-0.42893
-0.431866
-0.403707
-0.387458
-0.414699
-0.477376
-0.44748
-0.432406
-0.125511
-0.166849
-0.120689
-0.0909384
-0.129287
-0.151317
-0.107786
-1.67099
-1.50331
-1.46869
-1.27716
-1.41519
-1.39158
-1.56561
-6.03242
-4.6724
-6.1799
-5.03974
-6.4536
-4.706
-5.49919
5.61911
0.651081
15.5426
-9.88407
10.5717
0.972648
-6.44422
-2.76707
-2.83698
-2.80177
-2.72222
-2.75516
-2.78423
-2.75517
-2.61371
-2.60343
-2.62841
-2.62255
-2.6042
-2.59603
-2.6215
-2.67587
-2.6857
-2.69185
-2.67092
-2.66572
-2.6794
-2.67435
-2.68223
-2.6909
-2.68895
-2.67383
-2.67791
-2.68594
-2.68268
-2.68591
-2.69128
-2.69464
-2.70277
-2.69541
-2.69644
-2.69033
-2.8602
-2.87111
-2.85477
-2.842
-2.85606
-2.85914
-2.84504
-2.61071
-2.61055
-2.57066
-2.61687
-2.63609
-2.62476
-2.59904
-2.41034
-2.43944
-2.42881
-2.4441
-2.43304
-2.44075
-2.43497
-2.51957
-2.53379
-2.52837
-2.52802
-2.54014
-2.53331
-2.52969
-2.5272
-2.53022
-2.52019
-2.53736
-2.54829
-2.54212
-2.53405
-2.59954
-2.59147
-2.57162
-2.57797
-2.59752
-2.5648
-2.61894
-2.57591
-2.62716
-2.64133
-2.05667
-1.98114
-2.07037
-2.13278
-2.06589
-2.01564
-2.10464
-1.58232
-1.58265
-1.65275
-1.58934
-1.60645
-1.55655
-1.64859
-1.42619
-1.42335
-1.40206
-1.41825
-1.43667
-1.42426
-1.41469
-1.28457
-1.29147
-1.26018
-1.33994
-1.3087
-1.29971
-1.30944
-0.940023
-0.891588
-0.936151
-0.977547
-0.943988
-0.914072
-0.953302
-0.587279
-0.542595
-0.591622
-0.601816
-0.655878
-0.579782
-0.629339
0.897906
0.879241
0.875149
0.915884
0.922739
0.903493
0.897068
1.13093
1.11896
1.12501
1.1345
1.14686
1.12754
1.13623
40.6693
58.3431
61.4166
84.0355
65.3842
71.9247
53.6235
85.105
85.2408
92.7853
67.2903
66.7743
83.8712
83.8287
64.9852
65.391
80.7627
81.096
93.011
74.2239
62.643
62.5831
51.3761
31.4488
70.6621
51.6665
19.4218
8.24371
7.65422
2.5036
1.73125
1.7991
3.7803
1.04891
1.05047
1.01713
1.042
1.06838
1.06
1.02398
0.406312
0.357517
0.399468
0.445312
0.423311
0.386236
0.426894
0.142645
0.172205
0.0937532
0.189235
0.251903
0.129484
0.193769
0.872938
0.838249
0.841147
0.804159
0.834334
0.818838
0.849728
0.315733
0.317697
0.273631
0.350113
0.325418
0.29663
0.333838
-0.00201537
0.0469829
0.031461
0.080138
0.0278023
0.0637395
0.0176457
-0.203972
-0.112577
-0.157508
-0.103323
-0.183251
-0.103509
-0.186635
0.16622
0.0859584
0.119225
0.0830447
0.15113
0.08158
0.158239
-2.55919
-4.06861
-2.86862
-2.50636
-2.69179
-5.05556
-3.39961
-3.02476
-2.90056
-2.96106
-3.13319
-3.12982
-3.02589
-3.03997
-2.72266
-2.72127
-2.72804
-2.74446
-2.7184
-2.71266
-2.73444
-2.77365
-2.80013
-2.80246
-2.82643
-2.80424
-2.81202
-2.78713
-2.57326
-2.55775
-2.55021
-2.55685
-2.56433
-1.23466
-1.17086
-1.16663
-1.10868
-1.16405
-1.14337
-1.20493
-0.739608
-0.755558
-0.703105
-0.81107
-0.76417
-0.777049
-0.733455
1.11226
1.09597
1.11773
1.13568
1.11143
1.10506
1.12893
1.18415
1.19447
1.17335
1.15729
1.14998
1.17304
1.16405
62.479
52.7869
71.715
0.114688
0.139831
0.110698
0.0963134
0.0710272
0.0871624
0.112644
-0.0222383
0.00129454
0.00487803
0.00289172
0.0286209
0.046851
0.0187671
0.115107
0.129085
0.156506
-0.0389242
-0.011874
0.00123182
0.5648
0.58875
0.601928
0.624312
0.603633
0.5642
0.586553
0.6038
0.582116
0.682061
0.662152
0.683496
0.662434
0.680949
0.692988
0.675242
0.682854
0.652978
0.704593
0.683734
0.681922
0.663139
0.653282
57.3407
61.1113
79.7131
53.068
34.4678
47.1085
66.0866
74.9846
75.5166
88.8685
70.7975
56.4526
57.9764
34.982
53.0406
80.6144
62.0765
48.1839
66.4817
75.8341
76.3589
89.9005
71.6742
58.4878
1.33014
0.952683
2.07907
1.09937
1.16723
1.07934
1.27322
0.724836
0.699313
0.726446
0.749657
0.723231
0.71168
0.739142
0.466612
0.503333
0.502878
0.549093
0.504296
0.527888
0.486655
0.326325
0.354821
0.368358
0.407703
0.377319
0.376227
0.351421
0.609584
0.548005
0.559763
0.561923
0.490379
0.518436
0.580278
0.489485
0.438298
0.482797
0.41278
0.464817
0.440287
0.472515
0.240732
0.304628
0.284102
0.336157
0.260845
0.320861
0.250372
-3.0044
-2.95132
-3.04697
-3.0535
-3.16712
-3.00172
-3.08591
-2.6305
-2.64175
-2.65579
-2.6223
-2.60173
-2.61946
-2.64052
-2.80333
-2.78248
-2.80675
-2.8087
-2.83234
-2.79353
-2.81803
-2.84993
-2.81222
-2.78051
-2.80826
-2.83271
-2.64444
-2.67178
-2.63447
-2.60923
-2.63703
-2.64436
-2.67139
-2.62572
-0.818875
-0.900787
-0.893329
-0.978501
-0.871942
-0.842065
-0.931751
0.0492401
0.00401094
0.0505393
-0.0491316
-0.0489486
-0.00508387
-0.00284657
1.06479
1.07549
1.01267
1.08689
1.14606
1.10201
1.04594
0.974693
0.963106
0.944419
0.96421
0.989634
0.988832
0.959551
1.02006
1.02777
1.00523
0.982835
0.979828
1.004
0.998352
1.07495
1.09688
1.07005
1.06037
1.08548
1.09519
1.068
84.6473
66.9511
60.5773
84.1318
66.1458
68.9435
50.5803
86.0591
85.4642
93.418
67.1878
67.5402
74.7777
75.0712
74.126
91.5375
73.7144
1.04194
0.941332
1.03009
0.960471
1.20035
1.01652
1.06478
0.865901
0.864779
0.827629
0.881601
0.844811
0.86267
0.834198
0.425604
0.462311
0.438314
0.399004
0.423678
0.447241
0.422891
0.422018
0.409577
0.384866
0.545822
0.523544
0.517906
0.606971
0.618104
0.637844
0.483664
0.518518
0.546384
0.524915
0.501348
0.685614
0.720145
0.691853
1.98158
2.08987
1.39484
3.3932
2.49115
2.46385
4.63732
72.7576
63.5707
91.6485
55.2438
72.5641
72.0698
71.1737
70.7839
92.265
83.2408
82.8113
61.4901
61.1207
61.4599
48.3514
30.7279
69.2452
47.1372
62.6272
53.4578
71.0602
1.1278
1.07107
1.04321
1.08647
1.15649
1.02666
1.07123
1.05883
1.07881
1.05228
1.0246
1.05088
1.06679
1.03681
0.93213
0.946106
0.962076
0.915228
0.953685
0.958462
0.926612
0.793503
0.803679
0.713223
0.79041
0.751765
0.781745
0.721994
0.580267
0.629539
0.652362
0.730745
0.751724
0.690762
0.681015
-0.0374696
-0.129276
-0.0685528
-0.196673
-0.21017
-0.110152
-0.13446
-2.05417
-2.12552
-2.14596
-2.002
-1.98514
-2.06312
-2.0837
-2.44351
-2.35519
-2.42831
-2.51428
-2.46022
-2.38881
-2.45375
-3.6948
-3.77695
-3.78883
-3.77457
-3.78648
-3.81005
-3.63294
-2.83392
-2.66121
-2.65443
-2.33535
-2.82039
-2.58412
-2.64116
-2.51622
-2.52547
-2.55053
-2.50615
-2.47355
-2.50109
-2.5252
-2.80504
-2.80114
-2.82506
-2.80287
-2.78232
-2.78969
-2.81211
-2.90104
-2.88956
-2.91109
-2.90914
-2.92627
-2.90336
-2.89537
-2.87913
-2.90728
-2.94008
-2.93205
-2.90013
-2.89868
-2.86448
-2.90007
-2.89595
-2.87325
-2.86297
-2.89677
-2.86304
-2.88378
-2.90694
-2.93838
-2.91754
-2.91596
-140.292
-130.032
-121.602
-94.8228
-123.166
-139.708
-167.253
-118.187
-112.882
-2.9063
-2.65484
-2.9672
-2.01618
-3.93241
-2.32786
-3.32135
-3.24945
-3.10768
-3.00964
-2.91873
-2.78172
-159.63
-135.183
-143.526
-472.444
-492.72
-472.878
-468.667
-453.568
-454.99
-462.714
-474.645
-488.921
-485
-499.722
-477.468
-473.448
-463.02
-474.976
-485.094
-462.567
-475.381
-464.699
-493.435
-472.736
-472.836
-440.974
-464.192
-470.833
-454.067
-479.775
-503.174
-489.824
-493.394
-483.054
-477.725
-489.176
-479.387
-470.2
-482.858
-477.764
-470.243
76.6974
-13.2051
5.69318
-13.5186
-16.9847
-11.2291
-36.8202
-2.88387
-2.90331
-2.90579
-2.92868
-2.91192
-2.90506
-2.92905
-2.93674
-2.91154
39.3272
60.4543
61.934
84.7201
66.2588
58.5671
78.196
85.8794
65.3056
74.3611
72.2135
93.7198
45.2799
57.6174
26.9244
-2.90435
-2.87019
-2.89474
-2.93888
-2.91978
-2.91919
0.570719
0.475412
0.550224
-0.40339
-0.359562
-0.393
-0.6332
-0.593902
-0.57805
-0.631077
0.525908
0.489934
0.583097
-2.60297
-2.61082
-2.61341
-0.402841
-0.392998
-0.359972
-2.50555
-2.59706
-2.43322
0.570506
0.546477
0.48137
0.478491
-3.10701
-3.04993
-3.08281
-2.6037
-2.59452
-2.59827
-2.58617
0.271824
0.254991
0.275732
0.242829
-0.426934
-0.451554
-0.388605
-0.411732
0.96057
0.95548
0.999334
0.979365
1.01543
0.99612
1.01908
1.00564
0.991709
1.0049
-0.451828
-0.426836
-0.413139
-0.388933
0.267635
0.289204
0.229416
0.252466
0.232035
0.249784
0.267244
0.282839
0.263828
0.302728
0.961195
0.956067
1.01952
1.00586
1.00475
0.991799
-0.627459
-0.612188
-0.681866
-0.662723
-0.648915
-0.733152
-0.692787
-0.717951
-2.63442
-2.63546
-2.6443
-2.64387
1.51512
1.31838
1.82417
1.38373
-2.8302
-2.82376
-2.81191
-2.10297
-2.13024
-2.09834
-2.12557
2.47972
4.63949
2.70603
6.08919
0.423556
0.454435
0.378713
0.418358
-2.66161
-2.6384
-2.6285
0.82139
0.854154
0.197943
0.17516
0.210131
0.182032
1.16108
1.15963
1.15966
1.16108
-2.51167
-2.52563
-2.9205
-2.89806
-2.89096
-2.87827
63.7447
46.3343
74.5658
49.37
-2.75645
-2.71062
-2.75185
-2.71249
0.871699
0.883428
0.876973
0.90986
-0.316841
-0.314406
-0.262852
-0.276017
-2.76241
-2.77872
-2.50293
-2.62708
-2.75297
-2.81406
1.33314
1.36958
1.3224
1.37266
0.590752
0.545397
0.631217
0.558284
0.822928
0.800491
0.855221
0.827128
-0.314381
-0.34291
-92.3706
-84.682
-2.86918
-2.85792
-2.87459
-2.8553
0.283928
0.277591
0.299423
0.299913
0.277671
0.28498
0.304352
0.300581
-2.93742
-2.96065
-2.77537
-2.78753
-2.76936
-2.79045
0.160036
0.166573
0.130011
0.147554
-2.85143
-2.86521
-2.83945
-2.82529
1.13825
1.12753
-1.40087
-1.37033
-1.40489
-1.3601
7.82131
12.5205
50.1433
14.8287
16.0513
42.4607
51.9746
0.409793
0.434928
0.412617
0.449104
0.680037
0.710118
0.723394
49.5484
40.5455
13.885
7.57398
39.5462
50.4025
-2.59207
-2.62237
-1.86699
-1.86936
-1.97854
-2.15591
-2.18153
-2.07214
-2.8805
-2.9042
-2.87454
-2.90817
-2.92028
-2.90592
-2.52628
-2.53895
1.0201
1.02146
0.990574
1.00778
1.02149
1.01952
1.00791
0.99064
1.40173
1.39806
1.37278
1.37946
0.487389
0.429693
0.4665
0.380511
-0.696423
-0.72536
-0.317501
-0.306855
-0.70774
-0.702428
0.14998
0.196202
-2.97589
-2.90975
1.08826
1.03341
0.0398667
-0.0420512
0.0279196
-0.144356
1.03827
1.09985
-2.86913
-4.85524
31.7578
-29.2198
1.07389
1.09649
1.0077
1.02372
-0.00565427
-0.0270612
0.0422
0.0227696
1.19048
1.17079
-2.393
-2.40026
-2.40647
-2.42075
-2.65807
-2.6594
-170.368
-167.141
-130.03
-130.368
-3.00509
-3.06668
-2.93697
-3.10904
1.4226
1.43168
1.48208
1.47322
-5.52636
-2.05637
-6.18834
-5.43208
-0.697637
-0.69516
-0.0680409
0.0937995
-1.10687
-1.06943
-1.09779
-1.04344
1.37352
1.46135
1.14407
1.20321
-2.77437
-2.798
-2.75402
-2.79299
-2.33221
-2.3169
-2.00313
-0.858506
-2.75625
-2.74303
1.69608
1.04959
-381.695
-0.440797
-0.951443
-0.963307
-0.884444
-1.55422
-1.52711
-1.56069
-1.51639
-2.92789
-2.83347
-0.113822
-0.123802
-2.5965
-2.60379
-0.331314
-0.328402
-0.416973
-0.383182
0.885847
0.869691
0.566552
0.546258
0.651422
0.673186
18.8037
23.3132
45.4304
-2.30162
-2.32367
-2.32732
-2.34736
-1.27772
-1.28525
-1.33815
-1.30494
-2.73994
-2.74952
-2.71092
-2.70764
-0.658523
-0.687767
-2.16741
-2.26334
-2.20327
-2.44746
0.586099
0.627989
0.521492
0.568814
-2.33611
-2.30463
-1.9816
-2.01405
-1.69237
-1.76196
-1.63843
-1.74549
1.3201
1.40521
-3.06987
-3.07281
-2.32273
-2.34011
-2.33486
-2.35746
-2.35228
-2.34239
1.16178
1.14973
1.17058
1.15059
-5.91262
-5.78078
-5.20451
-5.22689
-2.76776
-2.76136
-2.79145
-2.79221
-2.75523
-2.7436
-2.70411
-2.71058
-0.688806
-0.65982
-1.36895
-1.32853
0.21451
0.201911
0.150666
0.139317
0.185375
0.197633
0.119442
0.156721
0.191777
0.199899
0.168969
0.180893
0.224223
0.201816
0.191918
0.216806
-2.87828
0.0200401
0.0752225
0.357926
0.374491
0.352025
0.351606
-2.26341
-2.24555
-2.21381
-2.19943
1.14968
1.16158
1.15065
1.17069
0.766744
0.753993
0.728206
0.726262
0.361949
0.366781
0.381784
0.399276
1.0613
1.15454
1.24281
1.11572
-2.20913
-2.21652
-0.676615
-0.657116
13.9987
21.4858
-1.14381
-1.131
-1.18385
-1.18538
-2.27365
-2.30019
-2.19744
-2.21079
1.14145
-7.59188
0.383636
1.19498
-71.3871
-76.7856
1.686
2.12467
-3.04472
-2.7297
-8.67502
-0.650798
-0.915392
-0.897423
-2.279
-2.27648
0.486895
0.43401
-0.37079
-0.360211
-0.429071
-0.439762
-66.0999
-57.7582
-0.359194
-0.370316
-0.436444
-0.425183
-1.04278
-0.994769
-2.92609
-2.93551
0.44367
0.467744
0.828237
-1.79063
-1.82559
-2.72239
-2.73476
-0.0793787
-0.0540699
-0.083853
-0.0450903
-1.6939
-1.69049
-1.27711
-1.19942
-1.32895
-1.20229
-1.8825
-1.88566
-1.80337
-1.83374
-2.31016
-2.29269
-1.88569
-1.8831
-1.83296
-1.80296
-2.86382
-2.85012
-2.85016
-2.86386
-6.10162
-5.97743
-5.59245
-6.05228
-0.0343823
-0.0233275
-0.538219
-0.566886
-0.578404
-0.677995
-2.05219
-2.03643
1.87292
1.69111
3.15381
2.68728
0.696791
0.73448
1.045
1.08762
1.01919
1.07088
1.10385
1.03923
1.0751
1.01118
0.797862
0.821015
-1.72455
-1.77877
-3.98554
-0.707047
-4.05254
-5.51754
-0.395716
-0.457504
-0.315401
-0.393316
0.675442
0.674811
-2.76288
-2.72948
0.858742
0.898258
0.83549
0.862456
1.14597
1.12696
0.25785
3.69009
-1.46071
1.65119
0.0876776
0.0645989
0.0893807
0.0467706
-0.100706
-0.039728
-0.0543861
-0.0800025
-0.0696187
-0.0894384
-2.74942
-2.77744
-2.69579
-2.70968
0.0820309
0.102899
0.0728532
0.108032
-2.58026
-2.59777
-2.50812
-2.52101
0.612603
0.596731
0.569909
0.563515
-2.50807
-2.52111
-0.497002
-0.504712
-0.449894
-0.451506
-0.0403234
-0.10141
1.35322
1.34781
0.616321
0.69488
0.432854
0.382652
-2.04769
-2.09737
-44.5583
-34.1139
-70.4657
-64.7676
-2.66931
0.580211
0.590241
0.589878
-1.16255
-1.13571
-2.12358
-2.15175
-2.21717
-2.22498
0.0309513
0.0501972
0.0092838
0.0482968
-0.56824
-0.584431
-0.538696
-0.541787
-0.793588
-0.775585
-2.56492
-2.55193
-1.59136
-1.35055
0.754209
0.806026
0.68047
0.729399
0.897849
0.790872
0.767033
0.694553
-2.56497
-2.55198
-2.30265
-2.30229
1.16013
1.17312
-2.73987
-2.73989
-2.75236
1.1957
1.15215
0.405327
0.426893
0.22604
0.230367
0.11871
0.142232
0.149686
0.0404939
0.102947
0.00739687
-2.44773
-1.81023
-1.99157
-2.36652
-403.139
-391.629
0.700922
0.718614
-0.0700941
-0.0496236
0.184786
0.141019
0.178238
0.136127
-2.64261
-4.79093
-2.75632
-2.77402
-0.294442
-0.744264
0.0681312
0.134992
-0.971919
-0.95755
-0.95795
-0.972663
-0.896366
-0.85688
1.09596
1.0912
1.18538
1.15031
-2.44835
-2.46429
-2.44807
-2.45218
-332.232
-336.187
1.64157
1.47104
1.51314
1.41958
-2.75845
-2.78148
-2.11547
-2.12513
0.277596
0.258103
0.274155
0.245565
-1.28293
-1.30325
-0.632721
-0.660272
-0.58156
-0.636839
-2.33272
-2.35177
1.14433
-0.737997
-0.734429
1.14436
1.07304
1.01284
-0.210359
-0.259532
-0.254282
-0.314311
-2.13406
-2.1204
-2.60295
-2.59331
-2.61011
-2.59041
-2.11526
-2.12498
-2.72483
-2.70007
-376.896
7.40774
4.77978
10.2107
1.23061
1.21247
-1.42225
-1.39607
-0.903302
-0.929851
-2.7782
-2.73481
-2.65837
-2.65215
-2.62715
-2.75291
-2.7282
-2.15428
-2.25403
-2.48238
-2.46893
1.02168
1.00575
-0.319063
-0.315644
-1.26889
-1.27907
-1.22212
-1.23627
-2.63722
-2.66506
-4.21793
-3.86857
1.08008
1.08176
-0.759603
-0.722835
-3.99879
-4.20587
-3.78255
-4.46127
-0.269109
-0.190135
-0.533989
-0.513577
-0.8165
-0.709641
-0.407676
-0.431519
-2.14129
-2.16214
-2.14142
-2.16209
-2.29595
-0.698042
-1.84527
-1.8507
-4.60036
-3.96318
-2.14692
-2.1815
-2.58657
-2.60385
-1.84043
-1.82556
-3.18337
-0.705211
-0.192313
-0.269769
0.53179
0.346089
-0.723535
-0.74312
0.339144
0.37581
0.308401
0.316233
0.340385
0.359771
-0.0459541
-0.0173689
-0.0512705
-0.0135014
1.2321
1.21399
-0.0183593
-0.0395229
-0.00171766
-0.039156
-0.0540177
-0.0933385
-4.3494
-4.1902
-5.56166
-5.59596
0.155891
0.134005
-2.47066
-2.46709
-2.81446
-2.80152
-2.47069
-2.46715
-3.68157
-3.69661
-3.70943
-3.70845
0.352417
0.329026
0.332402
0.329473
1.21089
1.23653
-2.27588
-2.2583
1.22538
1.24025
-0.678767
-0.681615
-0.708767
-0.711682
0.224407
0.19124
-3.36209
-3.38107
-2.62095
-2.6078
-2.63595
-2.61027
0.135509
0.149051
-1.09542
-1.0673
-1.06739
-1.09539