/*--------------------------------*- C++ -*----------------------------------*\
| =========                 |                                                 |
| \\      /  F ield         | OpenFOAM: The Open Source CFD Toolbox           |
|  \\    /   O peration     | Version:  v2012                                 |
|   \\  /    A nd           | Website:  www.openfoam.com                      |
|    \\/     M anipulation  |                                                 |
\*---------------------------------------------------------------------------*/
FoamFile
{
    version     2.0;
    format      ascii;
    class       surfaceScalarField;
    location    "0.1";
    object      phi;
}
// * * * * * * * * * * * * * * * * * * * * * * * * * * * * * * * * * * * * * //

dimensions      [0 3 -1 0 0 0 0];
oriented        oriented;


internalField   nonuniform List<scalar> 
49400
(
-5.65816e-06
1.53947e-08
5.61397e-06
2.88035e-08
1.30564e-05
3.59788e-06
-2.23124e-05
1.28661e-05
2.05681e-07
-3.41921e-06
1.73271e-05
-8.29394e-06
2.02389e-05
-2.00603e-05
-2.07647e-05
5.09579e-05
-3.20073e-07
8.10579e-06
1.95889e-05
-5.00071e-05
-1.5935e-07
-6.30747e-07
-1.22885e-05
2.49095e-07
1.21333e-05
-9.38827e-08
2.62905e-05
1.15477e-05
-5.01267e-05
2.59088e-05
-1.31184e-05
1.50138e-06
2.37504e-05
-1.32632e-05
5.08868e-08
2.94551e-05
-3.11706e-05
5.68652e-05
-2.68278e-05
4.27424e-07
2.63966e-05
3.83565e-09
9.17705e-06
1.56182e-05
-5.16231e-05
4.71345e-07
9.13313e-06
4.11582e-05
2.2746e-05
-4.82861e-05
1.73093e-05
5.02455e-05
7.6813e-06
-7.39175e-06
1.81794e-07
-3.68823e-06
2.05027e-05
6.22672e-06
9.12756e-06
1.98478e-05
8.85144e-06
4.5791e-07
-2.00254e-05
4.93795e-05
2.80364e-07
-6.70233e-07
6.43688e-06
-2.24223e-06
-3.52442e-06
1.01417e-05
-3.45083e-06
-7.3611e-06
-7.48571e-06
-1.10672e-05
-2.34131e-06
3.56205e-07
-2.57117e-07
1.47692e-06
-7.26906e-06
-7.70313e-06
5.73635e-07
-1.72934e-05
4.09852e-06
3.60991e-06
3.59608e-06
-1.13045e-05
1.02106e-07
4.23902e-06
-2.42607e-07
3.49704e-06
2.14976e-07
-3.70339e-06
-3.20658e-06
1.0407e-05
-4.26874e-06
7.80325e-07
-1.7654e-06
2.79783e-06
-2.43805e-06
-1.56042e-06
-7.17296e-06
1.6766e-06
7.05678e-06
-8.13005e-06
8.84076e-06
-2.27114e-06
5.53471e-06
-2.08377e-05
6.20998e-06
-8.75461e-06
4.22124e-06
-7.09678e-06
2.03635e-05
-4.67802e-06
6.422e-06
-7.89792e-06
-2.61739e-06
-6.1739e-06
1.79513e-06
6.99617e-06
-3.03769e-06
3.11705e-06
-2.69676e-06
-9.01703e-07
-8.30989e-06
-5.97267e-06
3.34602e-07
8.75512e-06
-1.99887e-06
-6.67056e-06
-4.26568e-06
6.39541e-06
-7.16625e-06
-1.15953e-05
-1.16158e-05
-6.09726e-06
2.93083e-05
-8.69756e-06
-1.57612e-05
1.28635e-05
-2.30472e-05
2.73389e-06
8.95658e-06
1.04352e-05
-3.5153e-05
2.0555e-05
1.26512e-06
5.40079e-06
-1.80128e-05
1.98585e-05
-1.59362e-06
-2.4693e-06
1.11911e-06
2.94381e-06
-1.07215e-06
4.40177e-06
-4.92324e-06
3.05395e-06
-6.59539e-06
1.80032e-06
-3.99053e-06
3.30932e-06
-3.80836e-06
8.55249e-06
-1.2405e-06
1.83391e-06
-2.17708e-06
7.64388e-07
2.98307e-06
2.26458e-06
-6.01204e-06
-1.16258e-07
2.16859e-07
6.63787e-07
1.83549e-06
1.03133e-06
8.74991e-07
-2.52851e-06
1.87038e-06
-1.25494e-06
2.79371e-06
-2.36423e-06
2.94478e-06
-2.62816e-06
-7.29764e-06
-1.20418e-05
-8.58374e-06
2.79232e-05
3.66428e-07
-6.41617e-06
-1.24789e-06
-1.42339e-05
2.55856e-06
7.7036e-06
3.73832e-06
-1.78581e-05
9.34937e-06
-2.89367e-06
-1.21439e-05
1.29096e-05
-2.26396e-05
-1.00235e-06
-2.71616e-06
8.05227e-07
2.91329e-06
-1.23688e-06
3.05128e-06
-2.81675e-06
2.32467e-06
-6.27772e-06
1.94082e-06
-2.49757e-06
1.36198e-06
-1.99695e-06
6.85106e-06
-8.25856e-07
1.88018e-06
-9.98755e-07
-2.34343e-06
-8.2263e-07
9.63773e-07
2.20229e-06
1.14183e-06
1.5173e-07
-3.63699e-06
-7.14629e-07
1.03383e-06
2.24794e-06
-1.12566e-06
-1.8369e-06
-1.6484e-07
3.44661e-06
1.76859e-06
-2.74252e-06
2.56752e-06
1.76301e-06
2.69711e-07
-1.75856e-06
-2.74159e-07
-2.01077e-06
-1.71253e-06
5.48631e-06
-2.5522e-06
8.11139e-07
1.74466e-06
1.25713e-06
-4.76036e-06
2.05387e-06
-5.83368e-07
-1.61528e-06
1.95663e-06
-2.91035e-06
1.84319e-06
1.50319e-06
8.58046e-07
-4.20443e-06
-8.40939e-08
1.46201e-06
4.65284e-07
1.61151e-06
-1.92418e-07
-2.43227e-06
-1.21925e-06
5.26304e-06
-1.87966e-06
-7.45025e-07
-1.35965e-06
1.60241e-06
-2.38127e-06
7.26875e-07
-1.18196e-07
-7.53002e-07
1.44322e-07
-2.08473e-06
-6.13687e-07
3.4253e-06
-1.07452e-07
-2.09548e-06
-3.48467e-06
3.25175e-06
1.25469e-07
2.53154e-06
-8.11169e-06
6.29809e-07
1.14873e-06
3.26787e-06
2.23103e-07
1.06994e-06
3.09673e-06
3.94247e-07
7.59197e-06
1.22809e-06
-7.35302e-08
-1.23972e-06
8.51621e-08
-1.34803e-06
-1.06288e-06
3.639e-06
-7.28143e-08
-1.34875e-06
-1.69838e-06
1.64817e-06
-2.25997e-08
1.42807e-06
-4.4752e-06
-5.19185e-07
1.10447e-06
-3.30839e-07
4.07301e-07
5.04835e-06
-1.33368e-06
-4.12197e-06
5.00823e-06
-3.49645e-06
-3.85913e-06
-3.8424e-06
6.84337e-08
-5.50692e-06
1.38579e-06
1.68557e-06
1.06529e-06
-4.13665e-06
-3.43155e-08
1.41617e-06
3.94004e-09
1.71329e-06
-6.20272e-08
-1.79852e-06
-1.06729e-06
4.28197e-06
-1.79382e-06
-7.55945e-10
1.38506e-06
-2.1136e-06
2.03106e-06
1.16104e-06
-6.36317e-07
-1.24985e-06
7.2513e-07
-1.914e-06
-3.37873e-07
3.4129e-06
-1.12189e-06
-1.42842e-06
2.43913e-06
6.21368e-07
-4.31035e-06
1.1764e-06
1.98786e-06
-1.26798e-06
2.10651e-06
-1.76851e-06
8.53165e-06
6.9367e-06
5.57992e-06
-2.10483e-05
1.47399e-06
8.96559e-06
-1.90793e-06
6.93561e-06
1.47509e-06
-6.71749e-06
-7.02873e-06
2.06818e-05
-8.45663e-06
3.21423e-06
-5.06311e-06
6.99997e-06
-7.93982e-06
-1.91341e-06
1.43089e-07
1.86168e-06
-9.13646e-08
1.62538e-06
1.54716e-06
-5.08595e-06
1.42315e-06
3.45314e-07
-1.20061e-06
-1.10145e-06
3.72521e-06
-1.8731e-06
1.0178e-06
1.33756e-06
-1.66349e-06
2.0978e-06
1.01455e-06
-2.58066e-07
-7.07164e-07
-4.93206e-08
-1.13018e-06
-1.0952e-06
3.23992e-06
-5.32821e-07
-8.55424e-07
5.351e-07
-1.15829e-07
-1.12644e-06
1.4061e-06
-9.20321e-07
-4.14224e-07
7.25129e-07
-1.06287e-06
-1.9567e-06
1.19996e-06
1.32614e-06
-5.69393e-07
4.10676e-06
7.80075e-07
-6.84354e-06
1.97029e-06
3.33643e-06
-2.05399e-06
-8.70921e-07
4.25105e-06
-2.70354e-06
8.01572e-08
2.75175e-06
-4.67521e-06
3.85112e-06
7.53913e-07
-9.00935e-07
-3.89281e-07
5.36303e-07
-5.89341e-07
1.30114e-06
4.21185e-08
-1.26992e-06
-2.20359e-07
1.21348e-06
-1.76045e-06
-7.22947e-07
-2.8772e-07
1.28084e-06
-1.40984e-07
-3.1833e-07
-8.17985e-07
-5.33275e-06
-1.1439e-06
4.51182e-06
1.96483e-06
4.42491e-06
1.06382e-06
-1.08215e-05
-1.26167e-06
4.54268e-06
6.05913e-06
-6.25772e-06
-1.06308e-06
-3.88911e-06
1.44909e-05
4.05581e-06
-9.2497e-06
4.67851e-06
-3.65225e-06
-2.30343e-06
-1.59971e-06
7.5554e-06
-1.5023e-08
-3.75068e-06
1.13452e-07
-2.43224e-06
1.13787e-07
3.10888e-06
9.02526e-07
-6.44365e-06
2.51601e-06
7.06651e-07
3.89821e-06
-6.74637e-06
4.81451e-06
9.6266e-07
5.92232e-06
-4.03951e-06
-2.84547e-06
4.01558e-06
8.96434e-07
-3.94936e-06
-1.99226e-06
1.19302e-05
-6.08983e-06
3.60092e-06
3.38534e-06
1.54808e-06
-1.15873e-05
4.08316e-06
-6.57459e-06
5.69183e-06
-1.24015e-05
-1.55026e-05
-9.42328e-06
3.73274e-05
-1.08829e-07
-1.20511e-07
-1.21722e-05
-1.51191e-05
-4.92407e-07
-1.49677e-05
1.52895e-05
-4.42346e-07
9.24383e-06
-3.63837e-05
1.15861e-05
-1.74614e-05
1.74524e-05
-4.15752e-06
8.17481e-07
3.8669e-06
-5.26864e-07
6.94437e-06
4.40532e-06
-1.55072e-05
7.6588e-06
1.03043e-07
-4.95351e-06
-1.97762e-06
1.0798e-05
-4.60454e-06
-8.75837e-07
5.32349e-06
-5.52271e-06
1.10047e-05
1.44469e-06
-1.28195e-06
3.36044e-06
-3.52317e-06
-2.50706e-06
1.56507e-06
2.38667e-06
3.69708e-06
-7.48609e-06
8.78878e-07
-3.50806e-06
4.19426e-06
-3.66076e-06
6.92631e-06
-1.44129e-07
3.33148e-07
-4.44454e-07
-6.02987e-06
-4.21494e-06
-2.42913e-06
1.26739e-05
1.15783e-06
-5.02367e-06
-2.16403e-06
-4.01012e-06
9.5301e-07
4.89199e-06
2.12156e-06
-1.10237e-05
4.93695e-06
9.08053e-07
4.4846e-06
-7.38671e-06
6.99241e-06
-1.46451e-06
-9.27925e-07
1.49819e-06
8.94237e-07
7.79128e-07
1.89317e-06
-4.1368e-06
2.88087e-06
-3.02967e-06
-6.23258e-07
-1.92868e-06
4.05013e-06
-2.2554e-06
2.52638e-06
9.42102e-07
-1.30434e-06
1.8943e-06
7.01285e-07
-7.15317e-07
-7.64018e-07
7.78051e-07
-1.77218e-06
3.81025e-07
2.09244e-06
-3.76145e-07
-2.11135e-06
1.8594e-06
-1.98949e-07
-2.42447e-06
3.65196e-07
2.27226e-06
-1.4182e-06
2.16443e-06
-1.9933e-06
6.21027e-07
4.44163e-06
-1.50759e-07
-4.91189e-06
3.60724e-06
-1.60376e-06
-1.38245e-06
-6.17513e-07
8.66638e-06
-1.57026e-07
-1.5975e-06
-3.84294e-06
2.30346e-06
-6.05795e-06
-3.23092e-08
-2.33959e-07
1.29372e-07
1.36896e-07
-4.75104e-07
1.89119e-07
2.53675e-07
2.12318e-07
-9.21381e-07
1.88563e-07
1.29929e-07
9.61506e-08
2.29308e-07
4.38397e-07
2.31351e-07
-4.10518e-07
5.29817e-07
-3.50649e-07
3.23534e-07
1.36553e-06
-1.45771e-06
7.59175e-07
-8.46159e-07
3.81798e-07
3.92234e-07
-1.48563e-08
6.74468e-07
-1.13883e-06
-2.29063e-07
2.26906e-06
6.92987e-07
8.90334e-07
5.01889e-06
-3.33577e-07
-5.57565e-06
1.11246e-06
6.12795e-07
-8.34926e-07
3.84069e-06
2.29066e-06
-6.09212e-07
-2.31484e-07
4.68139e-06
5.42618e-07
3.22652e-07
5.86587e-08
5.31693e-07
1.94496e-06
3.21039e-06
1.67606e-06
-6.83141e-06
8.81812e-07
-2.00064e-06
3.06378e-06
6.83964e-06
-2.74743e-06
-4.65154e-08
-8.09619e-07
-1.14451e-06
-4.33206e-06
7.34933e-06
-1.02474e-06
3.53232e-06
-1.58307e-07
-5.03248e-07
7.43887e-07
2.00353e-07
-4.40993e-07
1.4231e-06
-9.54039e-07
-9.72305e-07
-4.8504e-07
2.65202e-06
6.87485e-07
1.55591e-06
-2.04304e-06
6.1705e-07
-3.70558e-07
-3.24966e-07
-1.20235e-08
7.45901e-07
-2.73628e-06
-4.20444e-07
1.41542e-06
1.7413e-06
1.55115e-06
-3.88309e-07
-3.89912e-06
2.22034e-06
-1.08963e-06
-3.23908e-06
-6.29834e-07
6.08925e-06
-1.68034e-06
-2.64837e-06
2.5411e-06
-4.60975e-06
3.32668e-06
-2.30835e-06
-1.32541e-06
3.09693e-06
5.36836e-07
-6.82528e-07
2.55048e-06
-4.17631e-06
2.35118e-06
-4.35912e-06
-2.67893e-06
-3.10722e-06
8.88307e-06
-3.2742e-06
1.13211e-06
-3.61466e-07
-3.62254e-07
-1.1175e-06
3.99388e-06
8.7426e-06
-1.14947e-06
-1.1587e-05
3.43925e-06
-3.30591e-06
3.86055e-06
1.78864e-06
1.03932e-05
8.73844e-06
-2.14622e-06
-9.89813e-06
7.15485e-07
1.18835e-05
-5.92918e-06
8.43331e-06
-9.22487e-06
2.45778e-06
-1.05791e-06
-2.42848e-06
1.02861e-06
-5.39207e-06
-8.9741e-07
8.74726e-06
-2.33976e-06
-4.11022e-06
3.74038e-06
3.4557e-07
-6.51443e-06
1.80765e-06
2.96134e-06
-3.15854e-06
4.06878e-06
-5.15273e-06
-1.53031e-05
-1.11425e-05
-6.60231e-06
3.30479e-05
2.47114e-06
-1.40703e-05
-3.70392e-06
-1.17536e-05
3.08224e-06
1.77546e-05
7.5615e-06
-3.70697e-05
1.34573e-05
7.37945e-06
1.29265e-05
-1.94354e-05
1.97816e-05
-1.12121e-05
-4.04301e-06
5.76722e-07
1.46784e-05
5.69877e-06
-5.16953e-06
-1.17413e-05
-5.24389e-06
6.89964e-06
1.41479e-05
7.17516e-07
-2.01093e-05
3.29558e-06
1.77519e-05
8.74493e-06
-1.31969e-05
1.26172e-05
-2.24087e-06
-1.4553e-06
-7.83206e-07
4.47938e-06
2.86551e-07
-1.70313e-06
-8.24291e-07
-1.46675e-06
2.97995e-07
2.15503e-06
7.46873e-07
-4.36865e-06
1.62735e-06
8.25669e-07
1.80445e-06
-2.76071e-06
2.6486e-06
1.60712e-06
-6.71491e-08
5.31754e-08
-1.59315e-06
-2.17019e-06
-1.25717e-06
5.03448e-06
-2.012e-06
-2.25346e-07
-1.92567e-06
1.77003e-06
2.0881e-07
1.06568e-06
-4.58449e-06
-1.51285e-06
2.02571e-06
-2.45917e-06
3.04138e-08
1.57311e-06
-1.4385e-06
-1.6502e-07
1.45619e-06
1.35124e-08
-1.43929e-06
-9.83275e-07
4.01257e-06
-1.88539e-06
1.78298e-06
1.15929e-07
1.30994e-06
-4.63462e-06
-9.35347e-07
1.73505e-06
-1.06391e-06
2.0439e-06
1.51794e-06
1.28835e-06
-4.85019e-06
-5.2563e-09
1.948e-06
1.0115e-07
1.50194e-06
1.07439e-08
-1.63612e-06
-9.8117e-07
4.11923e-06
-1.61401e-06
-1.13667e-08
-1.32662e-06
2.29345e-06
-1.65227e-06
1.41164e-06
-2.4225e-08
-1.39196e-06
4.55014e-09
-1.44909e-06
-7.75552e-07
3.63628e-06
9.33982e-10
-1.47425e-06
-2.19704e-06
2.10953e-06
8.84437e-08
1.51822e-06
-5.18951e-06
-1.24535e-06
2.57933e-06
-1.1191e-06
-5.54197e-08
1.75122e-06
-1.80032e-06
1.04521e-07
1.34481e-06
-1.35622e-06
-4.4013e-08
-1.43298e-06
4.52902e-06
1.32598e-06
9.54078e-07
1.32105e-06
-3.90874e-08
-7.86217e-07
6.74292e-07
-1.63246e-06
5.93853e-08
-1.69256e-06
1.74774e-06
-1.1456e-07
-1.38534e-06
5.34404e-08
1.39129e-06
1.36454e-06
-4.44244e-06
1.38365e-06
-1.39448e-06
6.42785e-08
-1.01696e-06
3.79189e-06
-7.8094e-07
1.51172e-06
-8.10887e-07
-1.38915e-06
-1.51563e-08
-1.12737e-08
1.41558e-06
1.70741e-06
1.0588e-06
-4.15535e-06
1.70861e-06
-1.63485e-08
1.81769e-06
-1.80868e-06
-2.02783e-08
-1.05925e-06
4.29251e-06
1.40309e-06
-2.15297e-06
2.05244e-06
-1.31636e-06
9.02468e-08
1.3354e-06
-1.09285e-07
1.88688e-06
9.10933e-07
-4.11417e-06
1.65955e-06
3.17574e-07
-1.73482e-06
-7.58305e-07
3.82852e-06
-1.49537e-06
-3.48736e-07
1.49554e-06
-2.07997e-06
2.39678e-06
-1.15098e-06
8.17605e-07
1.03831e-06
-7.04934e-07
2.34275e-06
1.51833e-07
-3.64556e-06
9.68237e-07
2.19212e-06
-2.23847e-06
-1.83423e-07
3.4602e-06
-1.15099e-06
-1.79241e-06
1.77008e-06
-2.76924e-06
2.5549e-06
-1.10603e-06
-9.11907e-07
1.25401e-06
7.63926e-07
1.3151e-07
2.21932e-06
-3.45686e-06
2.38252e-06
-3.16291e-06
-1.57109e-07
-1.76655e-06
3.17767e-06
-1.73643e-06
2.34324e-06
-1.15895e-07
5.98786e-07
5.00072e-07
1.17553e-05
3.20938e-08
-1.15845e-05
-2.02899e-07
-1.36512e-05
-9.90507e-06
3.53116e-05
-1.3891e-05
2.71953e-07
1.32332e-05
9.79164e-06
-3.46094e-05
1.379e-05
-7.59699e-07
-7.84183e-06
1.17268e-05
-1.19412e-05
-5.69031e-07
1.93814e-06
3.15449e-06
-4.52359e-06
1.93185e-06
2.19989e-06
-4.70077e-06
1.88104e-06
1.98894e-06
-5.00324e-07
-3.87499e-06
6.25636e-06
-5.01344e-06
6.50206e-06
2.08593e-06
-4.89948e-06
1.36542e-06
2.62152e-06
5.98435e-06
-1.75215e-06
-6.85372e-06
2.61278e-06
3.16806e-06
-3.15932e-06
1.01184e-06
7.58529e-06
-8.1067e-06
1.86326e-06
9.41151e-06
5.69672e-07
-1.18357e-05
-4.49748e-06
7.37257e-06
-5.67996e-06
-2.3794e-06
-4.55908e-07
1.36414e-06
1.47117e-06
1.09843e-06
6.38139e-07
-4.11597e-06
-3.65656e-07
1.00818e-06
1.80274e-06
-1.79289e-06
-3.75499e-07
-4.60837e-07
3.27175e-06
2.34653e-06
-3.50129e-06
3.24983e-06
2.84545e-06
7.60719e-06
2.63626e-07
-1.07163e-05
-3.81194e-07
4.01668e-07
2.82498e-06
4.4385e-06
2.7875e-06
1.28182e-06
-7.34374e-07
-1.45781e-07
-5.01515e-07
4.60832e-06
9.00859e-07
-1.19108e-06
-4.44156e-07
-2.23582e-06
2.63517e-06
-5.88153e-06
8.0842e-06
-6.80898e-06
-2.21266e-08
-5.67811e-07
-1.87855e-06
6.46473e-06
1.88811e-07
1.70677e-06
4.72084e-08
-1.47219e-06
-2.81796e-07
-7.54678e-07
-1.66676e-06
4.12821e-06
-1.99435e-06
1.28688e-06
2.78582e-07
3.12906e-06
-4.87983e-06
3.78597e-06
-3.78919e-06
4.04503e-07
1.71471e-06
1.53921e-06
-2.88302e-06
-1.74108e-06
1.92804e-06
2.69606e-06
3.01753e-06
-4.36134e-06
2.56333e-06
-1.17435e-07
3.52531e-06
-1.18857e-07
-2.00152e-06
-3.17966e-06
5.30003e-06
1.15397e-06
-4.93004e-06
3.65721e-06
-1.01573e-06
1.68188e-07
-9.73057e-07
2.29987e-06
-2.34254e-06
3.77557e-06
-4.58044e-06
3.67384e-07
-2.99756e-06
9.63294e-07
-1.27816e-07
1.1995e-06
6.13107e-07
-1.68479e-06
1.05977e-06
-2.03439e-06
8.46803e-07
8.98615e-07
1.36066e-06
-1.23122e-06
1.07202e-06
7.72301e-07
1.52332e-06
-4.43934e-06
7.18998e-07
-1.23006e-06
2.68964e-06
3.47762e-06
2.78157e-06
-3.74462e-06
-2.51457e-06
-1.55917e-06
-5.33719e-06
1.0374e-05
-5.93093e-06
7.15333e-06
2.83712e-06
4.70305e-06
-1.12848e-05
5.59292e-06
-5.27037e-06
-2.79024e-06
3.04597e-06
-4.01811e-06
2.83566e-06
6.22528e-07
-2.64788e-06
-8.10309e-07
-2.36821e-06
-2.72291e-06
7.92678e-06
-2.78951e-06
1.04382e-06
2.61513e-06
2.46165e-06
-7.72466e-06
3.36728e-06
-1.56246e-06
-1.18252e-06
1.82689e-06
-1.51038e-06
-4.60701e-06
2.18495e-06
4.79416e-06
-2.3721e-06
6.22887e-06
4.17874e-06
-1.50146e-05
6.46898e-06
1.94484e-06
-9.35492e-06
-1.88995e-06
1.6039e-05
-7.14923e-06
-4.5778e-06
7.36127e-06
-1.03318e-05
1.19403e-05
3.70396e-06
-5.58175e-07
-4.18743e-06
1.04164e-06
-3.8135e-06
-3.22536e-06
1.07428e-05
-5.52561e-07
-3.81911e-06
-4.55627e-06
4.38143e-06
-3.7772e-07
3.51445e-06
-1.18898e-05
-2.09724e-06
3.25331e-06
-2.77022e-06
1.65132e-06
-5.64454e-07
-1.70264e-06
6.15768e-07
-2.82297e-06
-8.99155e-07
5.37345e-06
-1.96934e-06
-1.41809e-06
2.61619e-06
8.17002e-07
-5.13583e-06
1.73923e-06
1.49273e-06
-2.00331e-06
2.84338e-06
-3.15564e-06
-2.07912e-06
-1.59485e-06
-1.09878e-06
4.77275e-06
1.9482e-08
-2.0391e-06
-5.95025e-08
-1.55637e-06
-1.90003e-08
1.97734e-06
1.08948e-06
-4.62318e-06
1.94477e-06
1.35723e-08
1.78471e-06
-2.73433e-06
2.63069e-06
-1.18832e-06
-1.64963e-06
-1.01077e-06
3.84872e-06
-2.45867e-07
-1.21861e-06
2.76158e-07
-1.68341e-06
-2.12094e-07
3.55175e-06
3.44624e-06
-8.68139e-06
3.39822e-06
-5.85708e-08
-6.41554e-07
3.02901e-06
1.58607e-06
-4.5215e-08
1.9221e-06
-1.90971e-06
3.28246e-08
1.54075e-06
-1.5056e-06
-8.03559e-08
-7.87543e-07
4.25039e-06
2.12831e-06
1.01746e-06
-4.65137e-06
2.14355e-06
-9.55991e-08
2.25755e-06
-3.14979e-06
3.61355e-06
-1.19205e-06
-1.06218e-06
-7.89365e-07
3.0436e-06
6.143e-08
-1.16405e-06
-8.94272e-08
-1.05942e-06
5.86629e-08
1.4159e-06
9.5129e-07
-3.42661e-06
1.33848e-06
1.36083e-07
7.25553e-07
-9.38318e-07
1.27467e-06
-1.47039e-06
-1.00442e-06
-8.86695e-07
3.3615e-06
1.51121e-07
-1.2459e-06
-3.75605e-07
-1.00277e-06
1.49472e-07
1.20624e-06
5.97584e-07
-2.8066e-06
9.80511e-07
3.75205e-07
7.15522e-07
-1.36384e-06
8.09337e-07
-3.54624e-06
-2.08045e-06
3.02529e-06
2.60139e-06
1.03164e-07
5.03715e-06
-8.68656e-06
4.02265e-06
-5.99993e-06
2.54007e-06
-4.29613e-06
4.78135e-06
-1.77422e-06
6.91568e-06
-4.36075e-06
7.62368e-06
-4.63423e-06
-3.85864e-06
-8.14052e-06
1.79191e-06
1.02073e-05
-3.02501e-06
2.50076e-06
-3.3344e-06
-4.42062e-07
-1.07235e-05
-7.73107e-06
2.11289e-06
8.11895e-06
-1.53875e-06
-9.52672e-06
-6.1031e-06
1.00079e-05
-8.08391e-06
-3.33131e-06
4.73327e-07
2.1859e-06
6.72083e-07
1.63767e-06
-2.06884e-07
-4.7621e-06
8.37639e-07
1.27336e-06
7.26092e-07
-1.59609e-06
1.70764e-06
-3.10056e-06
5.10001e-06
1.756e-06
-3.55897e-06
8.41343e-07
-1.29235e-06
-5.46979e-07
1.41857e-06
4.2076e-07
-7.20463e-07
-6.40677e-08
-5.07819e-07
-1.01617e-06
-2.5127e-07
2.59282e-06
-7.86516e-07
-2.82248e-06
1.21508e-06
1.12647e-06
-1.44593e-07
1.2956e-06
4.87461e-07
3.79483e-07
2.04938e-06
-1.29395e-06
-1.13491e-06
8.0492e-07
-8.10249e-07
3.84811e-07
-2.38061e-08
2.87811e-06
1.91019e-06
3.55287e-07
-3.07573e-06
1.09602e-06
1.19898e-06
-2.38103e-06
3.45325e-06
-3.31969e-06
-1.6516e-06
-1.05922e-06
2.49262e-07
2.46156e-06
8.53679e-07
-4.82742e-07
-2.02253e-06
8.65179e-07
-1.07072e-06
-2.06025e-06
9.90228e-08
2.82641e-06
-8.97779e-07
-2.2332e-06
1.20843e-06
-2.58895e-06
1.55672e-06
-2.94927e-08
2.9722e-06
-8.78869e-07
-2.06384e-06
-2.36442e-07
-8.95877e-07
1.10283e-06
2.70988e-07
2.46477e-06
4.1994e-07
-6.07225e-07
-6.91584e-07
-6.49725e-07
-9.94171e-07
1.87421e-07
-1.73302e-06
-1.48816e-07
-4.93514e-07
4.81982e-07
-9.6543e-07
9.76963e-07
5.81822e-08
8.65839e-08
-6.3828e-07
-7.9565e-07
1.33581e-06
8.26604e-07
9.43388e-07
-2.73542e-06
2.02704e-07
1.60086e-06
5.95754e-07
-3.06466e-07
7.43492e-07
-2.38951e-07
1.36664e-06
3.89995e-07
-1.51768e-06
1.6047e-06
-1.42772e-06
-4.15929e-07
-8.88171e-07
3.85951e-06
-2.06929e-06
2.00289e-06
4.56393e-07
1.87862e-06
-5.4656e-06
7.22671e-07
-2.7177e-07
1.83739e-06
-3.35997e-06
-8.36435e-07
1.91055e-06
2.28586e-06
1.94419e-06
4.81855e-07
-5.78602e-06
-8.28202e-07
1.93596e-06
3.43511e-06
-1.89762e-06
-2.36569e-06
-4.79043e-07
5.85011e-06
2.70785e-06
-4.12361e-06
4.13935e-06
1.53643e-06
-1.70012e-06
4.40194e-06
-4.23825e-06
-2.9054e-06
2.76913e-06
1.6727e-06
4.04369e-06
-8.64921e-06
-1.58183e-06
-3.51227e-06
7.86323e-06
-4.47113e-06
4.562e-06
-1.48618e-06
2.37585e-06
-1.91362e-06
2.92184e-06
3.1274e-06
2.99615e-06
-9.0454e-06
4.74254e-07
4.35214e-06
-1.90455e-06
3.18438e-06
4.17281e-07
-3.11402e-06
-3.0569e-06
9.3553e-06
-3.99835e-06
1.30161e-06
-1.85191e-06
3.14715e-06
-2.85411e-06
1.90399e-06
2.49692e-06
2.92626e-06
-7.32718e-06
8.39454e-07
3.791e-06
-2.72647e-06
6.62349e-07
2.67403e-06
2.1576e-06
-3.42886e-06
1.93361e-06
-2.9505e-06
7.78212e-06
-1.17261e-06
2.01311e-06
-1.67521e-06
-2.3004e-06
-1.8024e-06
-1.08928e-06
5.19208e-06
6.23383e-08
-2.12736e-06
-2.35383e-07
-1.79243e-06
5.23664e-08
2.47319e-06
1.32616e-06
-5.59178e-06
2.28809e-06
2.37469e-07
2.05966e-06
-2.86086e-06
3.25847e-06
-1.48e-06
-3.63871e-08
1.31116e-06
2.05229e-07
1.4881e-06
8.99534e-07
-3.86764e-06
1.34681e-06
1.04905e-07
-2.61106e-06
-2.05677e-06
5.979e-06
-2.46718e-06
6.13455e-08
1.22052e-06
-2.78816e-06
5.10556e-07
1.51171e-07
2.38574e-06
-2.43201e-06
2.03854e-06
-2.12816e-06
2.4079e-07
4.93484e-06
2.94277e-06
-9.24242e-06
-1.97355e-06
2.04228e-06
2.06023e-07
-2.05525e-06
-1.93057e-07
-1.5868e-06
-6.52603e-07
4.28168e-06
-1.57769e-06
1.96919e-07
4.15517e-06
3.78096e-06
-9.99137e-06
4.24159e-06
-2.79479e-07
-1.84049e-06
5.42948e-06
3.62776e-07
2.44783e-06
1.43367e-07
-2.39428e-06
-1.95188e-06
-2.71669e-06
2.59459e-06
2.6546e-07
-4.74819e-06
6.07219e-06
-4.79746e-06
-1.63354e-06
-2.86151e-06
9.29251e-06
-2.28689e-07
-4.47759e-06
-9.11754e-08
7.67371e-06
-9.12229e-06
8.66091e-06
-8.72612e-07
1.99081e-07
8.59873e-07
-1.86342e-07
1.07417e-06
5.33537e-07
-2.48032e-06
8.02777e-07
4.70477e-07
-1.29951e-06
-7.69818e-07
2.9292e-06
-1.0857e-06
-4.00152e-07
5.38877e-07
-1.09104e-06
5.71836e-07
1.37721e-06
8.72683e-07
-5.96337e-07
-1.65355e-06
-9.35873e-07
-1.60082e-06
3.9139e-06
-3.02468e-06
2.96149e-06
-1.8515e-06
2.59613e-06
-1.34097e-06
2.19947e-06
-5.70451e-06
-1.88564e-06
2.88094e-06
-2.71085e-06
-9.87493e-07
-1.6636e-06
7.32949e-07
1.91814e-06
-9.42079e-07
2.43621e-06
-2.48163e-06
2.04973e-06
-4.65541e-06
1.43809e-06
-2.81161e-06
2.10647e-06
-2.68044e-06
6.03668e-06
-7.18507e-07
4.74276e-07
-1.48039e-06
8.56408e-07
2.79925e-06
-4.03971e-07
-3.25169e-06
1.95293e-06
-1.49152e-06
3.94998e-07
9.67751e-08
2.74976e-06
-9.07979e-07
-3.33331e-06
5.93883e-07
2.55088e-06
-2.20876e-06
2.89942e-06
-3.52071e-06
1.49736e-06
3.00408e-06
-6.57625e-07
-3.84382e-06
1.24949e-06
1.69232e-06
-1.44444e-06
8.84557e-07
3.36901e-06
-4.30144e-06
3.55098e-07
5.63866e-06
-6.723e-07
-5.07358e-06
-2.54234e-06
3.782e-06
-3.87226e-06
-1.73908e-06
-4.32289e-06
7.99913e-07
5.26206e-06
-1.95509e-06
-1.68662e-06
1.90263e-06
-6.09363e-07
-5.66862e-06
4.595e-06
-1.07304e-06
-5.20857e-06
5.39233e-07
5.95839e-06
3.09279e-06
-4.77519e-06
4.43193e-06
3.70416e-06
-2.96819e-07
-4.24251e-06
8.35166e-07
-6.37012e-06
-3.27839e-06
1.33527e-05
-7.57525e-06
9.08318e-07
4.27866e-06
4.84587e-06
-1.3367e-05
5.57999e-06
-4.6617e-07
-4.47214e-06
6.77375e-06
-7.20152e-06
-1.91157e-06
1.53374e-06
6.65629e-06
-6.27846e-06
4.30517e-06
6.45521e-06
-1.26719e-05
1.18832e-06
4.65059e-06
5.10887e-06
-6.03114e-06
2.11059e-06
-4.2888e-06
1.40483e-05
2.21829e-06
-1.79422e-06
4.58578e-06
-8.33667e-08
-1.44097e-07
3.99103e-08
1.87553e-07
-3.32138e-07
-6.31554e-08
3.11926e-07
8.81937e-08
-5.64429e-07
1.38564e-07
-1.62739e-07
6.40848e-08
1.155e-08
3.14566e-07
-2.79362e-07
2.27756e-07
-3.53908e-07
4.19272e-07
-5.08831e-07
1.53644e-07
-4.4083e-07
1.17467e-06
1.21446e-06
-2.0772e-06
1.04205e-06
3.26051e-07
8.28976e-07
1.69977e-06
7.87867e-07
-5.85414e-07
-1.90222e-06
-7.02879e-07
1.72035e-07
2.23061e-06
-7.20747e-07
8.05734e-07
1.91693e-06
-2.34663e-07
-2.40301e-06
3.72342e-07
2.35032e-06
-1.31435e-06
1.85872e-06
-2.13442e-06
-9.71902e-07
1.29352e-06
3.14358e-06
-3.46519e-06
1.85334e-06
1.80672e-06
-4.63196e-06
1.13135e-06
2.01551e-06
-2.5404e-07
-2.14506e-06
3.53046e-06
-1.99361e-06
3.75507e-06
3.5825e-07
-6.96598e-07
1.50822e-06
-1.6938e-06
-1.00773e-06
-1.15628e-06
3.85781e-06
4.40084e-08
-7.75472e-07
-9.62334e-07
-5.49979e-07
-4.13746e-07
2.58754e-07
3.74664e-07
-1.1834e-06
1.31262e-06
-1.46761e-06
6.88864e-07
-1.08967e-06
8.452e-07
-6.95181e-07
2.74641e-07
8.29895e-07
-4.09356e-07
2.49615e-07
-3.9185e-07
-5.52946e-07
-3.18452e-07
8.42709e-07
2.605e-07
2.16242e-07
3.53154e-07
2.42467e-07
-3.91323e-07
5.62854e-07
-7.38463e-07
4.86869e-07
-3.34382e-06
-2.205e-06
-5.3999e-07
6.0888e-06
6.89474e-07
-1.71308e-06
-2.32021e-06
-2.01043e-06
4.94907e-07
3.40753e-06
6.26879e-07
-6.04484e-06
2.11841e-06
1.78402e-06
2.63137e-06
-3.71757e-06
4.20979e-06
7.43982e-07
-9.35888e-07
-2.35658e-06
2.54849e-06
-1.4883e-06
-2.1192e-06
4.35148e-06
-1.15514e-06
-1.26905e-06
-2.22342e-07
2.61538e-06
-3.54818e-06
1.85173e-06
-3.34312e-06
-7.50962e-07
1.24714e-06
-1.25581e-06
2.11873e-06
3.11253e-08
-2.21208e-06
6.22193e-08
-2.29993e-06
-1.61638e-06
6.03504e-06
-2.6584e-06
3.89592e-07
2.80452e-06
2.16554e-06
-7.18213e-06
2.62315e-06
2.4359e-07
-1.55467e-06
2.56143e-06
-2.04752e-06
-2.29001e-06
6.88329e-07
2.97673e-06
-1.37506e-06
2.59724e-06
2.45321e-06
-7.34046e-06
6.82311e-07
2.60326e-06
2.39635e-06
-3.61055e-06
1.89652e-06
-2.81389e-06
7.8135e-06
1.44369e-06
-2.60103e-06
1.60654e-06
-2.37333e-06
1.87589e-06
2.20694e-06
-1.70951e-06
5.40548e-06
1.27979e-07
-7.90679e-06
1.63825e-06
5.64312e-06
-4.42503e-06
1.06744e-07
6.52523e-06
-1.70353e-06
-4.43101e-06
3.47304e-06
-5.04859e-06
5.21804e-06
-1.24202e-06
-2.73367e-08
1.13044e-06
1.38916e-07
1.28378e-06
7.49892e-07
-3.27569e-06
1.17937e-06
7.70688e-08
-2.32976e-06
-1.77119e-06
5.23139e-06
-2.06634e-06
-1.24505e-07
1.06455e-06
-2.38099e-06
4.72727e-07
4.05051e-08
2.13108e-06
-2.09451e-06
1.96581e-06
-1.93262e-06
7.31083e-09
4.56961e-06
2.59364e-06
-7.96385e-06
-1.71997e-06
-1.84204e-08
1.5898e-06
-1.84806e-08
-1.5529e-06
2.07371e-06
-2.03374e-06
-5.83834e-08
-1.09553e-06
4.75904e-06
-1.97569e-06
1.93564e-06
2.15646e-08
1.08667e-06
-4.61526e-06
1.78087e-06
-2.72794e-06
2.62098e-06
-1.53961e-06
-2.49938e-07
1.53569e-06
2.53857e-07
1.3234e-06
1.33796e-06
-4.20097e-06
1.5463e-06
-4.72845e-07
-1.66025e-06
-1.74908e-06
4.94502e-06
-2.04464e-06
6.38253e-07
5.60763e-07
-1.26744e-06
3.57988e-07
-1.47821e-06
-2.96344e-07
1.46096e-06
3.13593e-07
1.38687e-06
1.49217e-06
-4.35725e-06
1.78753e-06
-6.97004e-07
-1.42202e-06
-1.48602e-06
4.369e-06
-1.89068e-06
7.82248e-07
7.69664e-07
-1.16817e-06
1.07118e-06
2.14388e-07
1.88541e-06
-1.85766e-06
-2.42134e-07
2.55505e-06
-2.88979e-06
5.49128e-07
-2.94233e-06
-3.56306e-06
7.42783e-07
-5.49023e-06
-2.54044e-06
-6.44026e-07
-5.36071e-06
-7.33699e-07
-1.16695e-06
-1.12751e-07
2.0134e-06
1.97736e-07
-6.57273e-07
-2.74162e-07
1.64671e-07
-1.13389e-06
9.47376e-07
-1.4014e-06
-2.03246e-07
-1.82582e-06
2.66045e-06
-2.30518e-06
-4.84047e-06
-1.88502e-06
-2.64817e-06
-1.5725e-06
-5.8669e-07
-4.42391e-06
-1.24566e-05
-1.02552e-05
-1.05175e-05
3.32293e-05
-3.43658e-07
-1.30253e-05
9.12402e-07
-1.00499e-05
-5.48941e-07
9.78833e-06
7.64678e-06
-2.7485e-05
1.06721e-05
-1.4327e-06
5.54002e-06
-1.09186e-05
5.6946e-06
-8.97012e-07
-7.6314e-07
-1.76815e-06
3.4283e-06
1.61527e-07
-9.27134e-07
-1.31404e-07
-9.86579e-07
3.84965e-07
1.2079e-06
5.16802e-07
-2.71128e-06
1.4136e-06
1.79269e-07
-9.06593e-07
4.9626e-07
-1.26114e-06
9.2201e-07
-7.37206e-07
-8.24983e-07
6.40179e-07
-1.91927e-06
4.61343e-07
2.37993e-06
-2.26603e-07
-2.42987e-06
1.8428e-06
-5.19187e-07
-2.14859e-06
1.75544e-07
2.30743e-06
-1.36464e-06
2.00153e-06
-2.11044e-06
3.80887e-07
-1.11337e-06
1.12513e-06
-3.92649e-07
-1.08757e-06
4.5806e-07
1.0104e-06
1.16638e-06
-3.36733e-06
7.16983e-07
-1.36592e-06
1.107e-06
-1.17237e-06
2.89975e-06
3.93937e-07
-5.93481e-07
3.46699e-07
3.80351e-07
1.77546e-06
1.94264e-06
-4.09845e-06
9.94439e-07
2.28378e-06
-2.89787e-06
1.99692e-06
7.72977e-07
-1.55999e-06
-2.98491e-06
6.54182e-06
-2.68427e-06
1.89726e-06
8.11762e-08
-7.82306e-07
-6.60451e-07
3.11541e-06
-2.99039e-06
-2.77509e-06
2.65007e-06
-6.16561e-06
1.96978e-06
7.31124e-06
-2.35138e-07
-8.92086e-06
6.89292e-06
-2.10589e-06
-7.56212e-06
4.54107e-07
9.08888e-06
-4.54805e-06
6.97194e-06
-6.88908e-06
8.0561e-06
2.96993e-06
4.9871e-07
-1.15247e-05
-2.99105e-06
2.37417e-06
8.67298e-06
2.52612e-06
-2.54725e-06
-6.73789e-06
1.01641e-06
8.2476e-06
-2.42443e-06
-6.8607e-06
-6.29063e-06
9.68121e-06
-8.21635e-06
1.48841e-06
1.29265e-06
1.94821e-07
-2.97588e-06
-1.37546e-06
1.57003e-06
1.29384e-06
1.33777e-06
-1.42057e-06
-2.07168e-06
-1.52312e-06
4.93256e-06
-3.87963e-06
3.87379e-07
-2.3428e-06
2.3897e-06
-6.02761e-06
7.01823e-07
7.66335e-07
5.95264e-07
-2.06342e-06
3.59185e-07
6.8467e-07
-3.42031e-07
6.09802e-07
5.1572e-07
1.6007e-07
-5.79253e-07
1.02898e-06
-8.35453e-07
1.51124e-06
-2.96555e-07
4.01972e-07
-5.36744e-07
9.95947e-07
-6.19794e-08
-4.73e-07
-4.60967e-07
8.82516e-08
-6.12553e-08
9.68951e-07
2.72932e-07
-2.4666e-07
5.41251e-07
-1.23245e-07
-8.91006e-07
-2.15388e-07
2.95671e-07
5.15363e-07
-7.92006e-07
6.6505e-07
5.90795e-08
9.0548e-09
1.26112e-08
-8.07456e-08
-2.84878e-08
-3.57849e-08
1.23352e-07
-4.64565e-08
2.70235e-08
-9.82132e-09
-4.63406e-08
9.70545e-09
1.1967e-07
-1.02468e-07
-5.07382e-08
1.70089e-08
3.31473e-08
-5.2228e-08
-7.96165e-09
4.93046e-09
5.52592e-08
3.00347e-08
8.41035e-08
-1.66366e-07
-2.6805e-08
4.88781e-08
7.62174e-08
-4.32417e-09
-6.69627e-08
3.34688e-07
-1.74367e-07
4.85354e-07
-5.16483e-07
8.6892e-07
-8.12177e-08
-2.39896e-07
4.44466e-07
-1.44954e-07
-3.51703e-07
-4.08294e-07
-1.92241e-06
2.40635e-07
2.09007e-06
-1.72849e-06
2.54659e-06
-1.2264e-06
1.41788e-06
-5.06878e-06
1.94387e-06
-2.5691e-06
8.65861e-07
-2.04702e-06
6.08095e-06
-1.41317e-06
1.91275e-06
-2.56438e-06
1.9116e-07
-5.16049e-07
-8.16275e-07
1.14116e-06
-6.53442e-07
-7.48062e-07
1.59266e-06
-6.40014e-07
-5.29477e-07
1.45126e-07
1.38947e-06
-2.17461e-06
9.88805e-07
-1.37316e-06
-2.45768e-07
8.87176e-07
-7.32386e-08
1.27454e-06
2.03925e-06
6.947e-07
-4.00849e-06
4.19567e-07
1.17968e-06
-3.24703e-07
1.21088e-06
1.24793e-06
-1.75932e-06
-5.31041e-07
3.47004e-06
-1.37049e-06
-7.13536e-07
1.32381e-06
-1.99959e-06
2.00365e-06
1.59034e-06
2.05414e-06
1.23202e-06
-4.8765e-06
5.75272e-08
4.94715e-08
1.48334e-06
1.70853e-06
4.0314e-07
1.77852e-06
-2.09223e-06
3.63178e-07
-1.19905e-06
4.46091e-06
-1.43412e-06
1.9436e-06
-2.29432e-06
-9.9676e-07
1.68508e-06
8.77304e-07
-1.56562e-06
3.30097e-06
-1.05853e-06
-3.2392e-06
5.85243e-08
4.92752e-06
-3.02007e-06
1.04133e-06
2.85604e-06
-1.32142e-07
-4.45356e-06
2.35929e-06
-3.54996e-06
3.45915e-06
-7.54886e-07
-2.10739e-06
-6.44758e-07
3.50703e-06
-2.32169e-07
-7.52925e-07
2.30208e-07
-2.08406e-06
-2.55496e-07
-5.86977e-07
-3.17518e-06
3.1174e-06
-2.68292e-06
1.34302e-06
3.37009e-06
-8.13708e-06
-6.05904e-08
1.25033e-06
3.22904e-07
-3.20649e-06
2.33818e-07
-1.77015e-06
-1.61862e-06
-1.6299e-06
5.01867e-06
-3.04913e-07
-2.20154e-06
7.363e-07
-1.63742e-06
-2.86112e-07