/*--------------------------------*- C++ -*----------------------------------*\
| =========                 |                                                 |
| \\      /  F ield         | OpenFOAM: The Open Source CFD Toolbox           |
|  \\    /   O peration     | Version:  v2012                                 |
|   \\  /    A nd           | Website:  www.openfoam.com                      |
|    \\/     M anipulation  |                                                 |
\*---------------------------------------------------------------------------*/
FoamFile
{
    version     2.0;
    format      ascii;
    class       volScalarField;
    location    "0.5";
    object      alpha.water;
}
// * * * * * * * * * * * * * * * * * * * * * * * * * * * * * * * * * * * * * //

dimensions      [0 0 0 0 0 0 0];


internalField   nonuniform List<scalar> 
24700
(
1
1
1
1
1
1
1
1
1
1
1
1
1
1
1
1
1
1
1
1
1
1
1
1
1
1
1
1
1
4.47128e-05
5.69192e-05
0.000288855
8.04478e-05
0.00012827
0.000621604
0.00089038
5.83421e-10
1.99701e-10
2.08193e-10
2.06752e-10
4.58711e-10
1.99517e-10
7.39264e-10
0.000155607
0.000185521
0.000327868
0.000155738
0.000245085
0.000395244
0.000204712
0.00133761
0.00221811
0.00101018
0.00221011
0.00221859
0.00216007
0.00131256
0.00849023
0.00553993
0.005666
0.00664489
0.036869
0.00315559
0.0233898
3.22209e-05
4.32965e-05
3.63519e-05
2.13135e-06
1.26794e-05
4.27268e-05
1.12121e-05
7.10297e-09
1.63607e-08
6.00055e-10
1.03847e-08
1.47495e-09
5.94796e-10
6.25037e-09
0.505747
0.0749352
0.965309
0.472861
0.0515879
0.725768
0.930943
6.09021e-12
3.00064e-11
5.08865e-11
2.34261e-12
2.78502e-12
2.23464e-11
4.58138e-11
0.000951459
0.000563737
0.000567502
0.00107969
0.0015622
0.000922707
0.00167979
0.235143
0.269401
0.202972
0.73034
0.859531
0.452876
0.426937
0.0338339
0.0228763
0.0114946
0.0289726
0.0113217
0.0119303
0.0114031
0.765425
0.765425
0.76537
0.765417
0.765265
0.765425
0.765425
0.765304
0.525266
0.764144
0.0614123
0.0853416
0.0952126
0.0443326
0.0744189
0.0398306
0.041401
0.0862896
0.0389989
0.0483183
0.0511168
0.0729484
0.512427
0.741893
0.835341
0.872086
0.907401
0.838936
0.932247
0.00172116
0.00347515
0.0034789
0.00328229
0.00168636
0.00347746
0.00347515
0.00234811
0.00256598
0.00238205
0.00230692
0.00242068
0.00106492
0.00242115
0.010331
0.0375808
0.0518986
0.0261317
0.0525669
0.0225364
0.0220468
0.461641
0.0746291
0.464082
0.345647
0.0560932
0.0535448
0.453435
0.21701
0.270844
0.122891
0.0278567
0.0296026
0.0285389
0.0279818
0.000659718
0.00136294
0.00217496
0.00216956
0.00134595
0.00270119
0.000486242
0.0258743
0.0508713
0.0266435
0.109768
0.04455
0.0641848
0.0253342
0.0164394
0.0185753
0.0231323
0.00767619
0.0115639
0.00467355
0.0165884
0.00294937
0.00295272
0.00111166
0.00195713
0.00294028
0.00172726
0.00104065
0.880885
0.649768
0.972749
0.638993
0.952719
0.958532
0.920451
0.00048689
0.00097762
0.000469222
0.000736882
0.00169994
0.00164391
0.000356155
0.00246571
0.00420128
0.00418639
0.00268928
0.00304872
0.00268943
0.00159697
0.586879
0.225599
0.235973
0.249272
0.659742
0.411373
0.668641
0.0825962
0.0398812
0.0265947
0.0340414
0.112164
0.0715717
0.0729937
0.550764
0.0693015
0.0998767
0.723347
0.554529
0.59786
0.678346
0.439156
0.439156
0.446969
0.439156
0.439156
0.547772
0.795166
0.797182
0.698159
0.795166
0.795166
0.745238
0.360191
0.374779
0.259876
0.26014
0.259876
0.283433
0.706313
0.291851
0.189113
0.185608
0.368903
0.313722
0.3721
0.319651
0.0486278
0.0498402
0.0971736
0.143744
0.0542248
0.0674177
0.302916
0.118857
0.101278
0.118857
0.0744676
0.0361816
0.0362512
0.0430272
0.419227
0.286049
0.132245
0.508361
0.129939
0.300624
0.508322
0.541166
0.541166
0.541166
0.645255
0.746842
0.800788
0.689396
0.0213134
0.0213134
0.00506719
0.0133458
0.00429393
0.00262618
0.0182791
0.00212211
0.00278791
0.00220336
0.0030819
0.00264103
0.00227232
0.000931162
0.00103546
0.00105306
0.00103373
0.00178688
0.00203314
0.00182784
0.00103983
0.00127842
0.00234381
0.00259429
0.00254589
0.000964917
0.00258494
0.000471222
0.014228
0.00585354
0.00255049
0.00247224
0.00244107
0.00509331
0.00820446
0.00435955
0.00435971
0.00436048
0.00435705
0.00435955
0.00435817
0.00435971
0.0268529
0.0268529
0.0224584
0.00801188
0.00959087
0.00517387
0.010105
0.332927
0.760423
0.742542
0.344106
0.123368
0.311434
0.125843
0.729273
0.318327
0.263278
0.262108
0.305295
0.664465
0.723887
0.380473
0.736782
0.6144
0.650904
0.754348
0.670555
0.653229
0.026589
0.026589
0.019579
0.0125167
0.0137497
0.0237903
0.0121738
0.674967
0.62722
0.855131
0.876639
0.859138
0.886502
0.933262
0.0248362
0.0328614
0.0250563
0.0406102
0.083204
0.056444
0.0247206
0.00245612
0.00244131
0.00160627
0.00244232
0.00114217
0.00175146
0.0025842
2.62553e-07
2.14976e-07
1.34768e-07
1.41425e-07
1.2437e-06
4.80449e-07
4.83002e-08
0.982255
0.75816
0.433266
0.970836
0.982798
0.944055
0.751301
0.0550943
0.0543828
0.0543933
0.0725607
0.119946
0.0859126
0.0483147
0.272822
0.273756
0.267791
0.844354
0.785497
0.484763
0.276347
0.145902
0.131875
0.167327
0.0574346
0.10398
0.0554743
0.0961978
0.563733
0.568698
0.568698
0.182822
0.464342
0.184418
0.176023
0.409709
0.157788
0.375106
0.347258
0.176036
0.40403
0.230797
0.160045
0.339879
0.155072
0.156132
0.158148
0.172497
0.215601
0.157788
0.156226
0.157788
0.0181349
0.0178582
0.0219293
0.0181532
0.0219426
0.0172069
0.0177061
0.226556
0.171345
0.0570785
0.85443
0.586441
0.194441
0.175577
0.051027
0.0829732
0.0730631
0.051651
0.0506242
0.0829228
0.0928136
0.0054175
0.010288
0.00513764
0.00669347
0.00678374
0.00513555
0.00513764
0.00106083
0.00106115
0.00125371
0.00114363
0.001061
0.001061
0.00247476
0.0621327
0.0512981
0.0711484
0.382755
0.318179
0.382553
0.21516
0.0138027
0.00300472
0.0107089
0.0106605
0.00714513
0.0105811
0.0102445
0.00881059
0.0121586
0.00489296
0.00808741
0.00455312
0.00455313
0.0044829
0.52179
0.520053
0.520135
0.705831
0.525245
0.560886
0.656964
0.0850484
0.75447
0.355603
0.754477
0.760179
0.240613
0.316435
2.22866e-05
3.64988e-05
2.21339e-05
3.60177e-05
3.64615e-05
9.27288e-05
2.91034e-05
4.64361e-05
9.29113e-05
4.60896e-05
6.77298e-05
6.84903e-05
8.99743e-05
3.91294e-05
0.00208303
0.00188892
0.00121993
0.00153603
0.00177076
0.00095388
0.000483904
0.621247
0.518774
0.540213
0.761555
0.518774
0.829517
0.840435
0.112668
0.110906
0.111945
0.453087
0.116543
0.0745211
0.130636
0.728688
0.729902
0.729902
0.727504
0.307824
0.384577
0.729881
0.0615623
0.0474448
0.0538069
0.0597988
0.057385
0.0540963
0.0535833
0.0394927
0.0394927
0.0394927
0.109909
0.0394927
0.0395202
0.0408888
0.161845
0.356195
0.163249
0.162414
0.161853
0.35733
0.212117
0.41915
0.699474
0.715214
0.33608
0.715417
0.715417
0.715417
0.108902
0.135032
0.105588
0.1764
0.177141
0.132305
0.148317
0.000996275
0.00149825
0.00102342
0.00458209
0.00229242
0.00245696
0.00120067
0.922926
0.922628
0.922628
0.686821
0.142762
0.924267
0.732477
0.00159727
0.00159645
0.00159727
0.00159347
0.00103454
0.00159727
0.00144354
0.00361667
0.008751
0.00364777
0.00719268
0.0125029
0.00772835
0.0034664
0.00264917
0.0281967
0.0515749
0.0519865
0.0222461
0.0152574
0.00558768
0.721024
0.721024
0.721021
0.627129
0.464728
0.481014
0.721021
0.721024
0.211807
0.713915
0.720668
0.359851
0.723627
0.723627
0.723626
0.723609
0.715987
0.724489
0.723625
0.305356
0.723626
0.206034
0.723411
0.715065
0.659391
0.487671
0.665699
0.659851
0.64484
8.30256e-06
8.879e-06
9.1598e-06
7.47715e-06
2.94399e-05
2.41819e-05
6.69954e-06
2.90343e-10
3.12993e-10
2.86032e-10
6.63471e-11
1.00466e-10
2.42777e-10
1.67035e-10
0.000393117
0.000393117
0.000423856
0.000684598
0.000921093
0.000886178
0.000394275
0.00108561
0.00105008
0.000693782
0.000102468
0.000476163
0.000645725
0.000404847
3.71133e-05
6.54242e-06
7.98577e-07
7.13513e-06
1.40974e-05
3.19878e-06
4.07491e-05
0.00655437
0.00232305
0.00107509
0.00658034
0.0123648
0.00192015
0.0123783
0.0636576
0.0637342
0.1141
0.121027
0.0637342
0.0710935
0.212257
0.545653
0.411463
0.545653
0.321534
0.475091
0.321119
0.37602
0.654881
0.613779
0.654081
0.65516
0.65347
0.655159
0.655076
0.655157
0.65518
0.655264
0.65535
0.655224
0.0202698
0.0177711
0.0178353
0.154101
0.0675882
0.0314116
0.104182
0.00122271
0.00312045
0.00474429
0.00253674
0.00464823
0.00259092
0.00156689
0.0661646
0.0661617
0.0828628
0.387701
0.0695581
0.207953
0.0454814
0.222823
0.384083
0.222156
0.247094
0.416611
0.299256
0.664182
0.0534939
0.0534851
0.0552089
0.115712
0.215087
0.0534939
0.053518
0.246836
0.271959
0.0714549
0.089996
0.0230877
0.0892327
0.0301163
0.0334776
0.0271678
0.0305892
0.0198136
0.0241824
0.0275963
0.0199563
0.000356204
0.000184001
0.000134216
0.000134357
0.000175029
0.000138807
0.000312605
0.000729805
0.00109685
0.000717519
0.00153902
0.00166275
0.00209408
0.00101794
0.742939
0.742939
0.742939
0.742939
0.551357
0.741569
0.742858
0.742858
0.202505
0.496224
0.742623
0.528429
0.00646411
0.00637378
0.00479208
0.00646411
0.00545019
0.00465375
0.00458342
0.0252624
0.0252788
0.0258327
0.0253247
0.0410111
0.0435396
0.0253576
0.0401495
0.0527482
0.126299
0.0328165
0.0195199
0.0390827
0.0494717
4.8131e-08
2.76032e-07
1.01753e-10
1.10511e-07
1.81236e-08
9.8222e-09
2.56464e-11
3.95321e-09
6.56558e-09
2.15752e-09
5.27139e-12
1.0083e-08
8.28939e-09
1.31928e-13
2.90639e-09
1.17489e-09
0.985637
0.992497
0.971248
0.991888
0.971188
0.992488
0.980104
0.000670888
0.000675581
0.000670888
0.000284403
0.000617599
0.000504153
0.000421786
4.60454e-06
6.63717e-06
4.55377e-06
1.35998e-05
1.38959e-05
1.01401e-05
9.72771e-06
7.33472e-07
3.25051e-07
2.27883e-07
9.57183e-07
2.23223e-06
5.14865e-07
1.99751e-06
2.22153e-09
2.24402e-09
2.23668e-09
2.16871e-09
3.91586e-09
2.23775e-09
2.65201e-09
9.8837e-06
1.03786e-05
1.94259e-05
9.46963e-06
1.12994e-05
1.06029e-05
2.17772e-05
0.0517754
0.0395201
0.0347575
0.0381146
0.0417772
0.0273325
0.0892285
0.570256
0.324948
0.323959
0.323959
0.32099
0.442663
0.415949
0.579174
0.813271
0.537396
0.616733
0.540065
0.815155
0.731381
0.572316
0.843366
0.721378
0.645582
0.724567
0.736318
0.448994
0.7658
0.748351
0.765017
0.728415
0.727845
0.7658
0.728427
0.804222
0.804145
0.804145
0.804222
0.80312
0.803989
0.586048
0.760635
0.7658
0.745206
0.379913
0.489993
0.583167
0.583599
0.434035
0.583944
0.58402
0.818636
0.319131
0.91477
0.91477
0.91561
0.836181
0.91685
0.918157
0.918157
0.918156
0.683414
0.167243
0.825515
0.918156
0.0132049
0.0131757
0.0194875
0.0131757
0.013199
0.013199
0.0133038
0.0972083
0.0720473
0.077035
0.702807
0.221655
0.484526
0.810695
0.751819
0.751869
0.751819
0.751616
0.751869
0.751667
0.710946
0.751869
0.708587
0.257218
0.469121
0.726547
0.194349
0.752059
0.0718429
0.860981
0.101192
3.4772e-11
9.95124e-10
2.50313e-09
4.9677e-13
1.99059e-12
7.10136e-14
1.08086e-12
4.35918e-10
9.39187e-10
1.30742e-19
2.35962e-14
2.4993e-13
3.04897e-14
8.80168e-14
4.63601e-11
9.54875e-11
9.43987e-13
1.57126e-09
0.000375397
0.000971444
0.000964706
0.000526814
0.00101729
0.000439482
0.000726426
0.000973381
0.000463075
0.000788323
0.000347761
0.00033614
3.92272e-06
4.96188e-06
6.71048e-06
4.05888e-06
5.68588e-06
3.18366e-06
2.99044e-06
7.95686e-09
3.48688e-09
5.32467e-09
5.0396e-09
2.15747e-08
3.47772e-09
1.85263e-08
1.27651e-06
1.08216e-06
1.15941e-06
2.19716e-06
4.76473e-06
1.45772e-06
3.29711e-06
0.909031
0.897026
0.878329
0.922496
0.922188
0.922492
0.922456
0.00820945
0.0239687
0.0154699
0.012288
0.00795909
0.028075
0.0127835
0.00827908
0.0201036
0.00796023
0.00976708
0.00786691
0.0157106
0.00796023
0.00552571
0.0303676
0.102908
0.0515232
0.0144476
0.0154142
0.00268202
0.149364
0.127582
0.282496
0.380896
0.380896
0.377833
0.328053
0.804222
0.746926
0.804222
0.258775
0.424485
0.836787
0.832637
0.177941
0.812429
0.836787
0.803272
0.836787
0.836787
0.780675
0.809114
0.0493028
0.176956
0.0490096
0.132655
0.0950916
0.210398
0.0455074
0.0309493
0.01891
0.0107043
0.0300629
0.0161981
0.0139591
0.00664823
0.0129607
0.00778454
0.0082918
0.00302473
0.00539539
0.00690903
0.0126267
0.000858462
0.000858462
0.000858159
0.000858159
0.000858354
0.000858515
0.000858354
0.00140332
0.00193136
0.000925327
0.000925327
0.000933025
0.000944581
0.00251908
0.906505
0.89773
0.873927
0.89717
0.906541
0.906542
0.906542
0.0631356
0.0631844
0.0631844
0.0479671
0.0631074
0.0617848
0.0631844
0.017509
0.0238299
0.0140963
0.0269742
0.0126484
0.0222058
0.00886031
0.0248064
0.146439
0.241831
0.0490622
0.0227798
0.0425706
0.165832
0.0158142
0.0191519
0.0154021
0.022402
0.0322989
0.0325266
0.0324253
0.00190441
0.00316864
0.00455188
0.00297493
0.00171018
0.00483125
0.0065494
0.00387871
0.00567481
0.00240874
0.00442871
0.00237749
0.00545094
0.00268467
2.85564e-05
3.27238e-06
2.01553e-05
2.85564e-05
1.47094e-05
2.24051e-06
1.34632e-05
0.00033779
0.00102592
0.00154407
0.000261786
0.000132258
0.000268149
0.000598981
0.00010405
0.000110325
0.000122243
3.60006e-05
8.68635e-05
3.85371e-05
0.000126826
0.000101168
4.64713e-05
3.42844e-05
1.122e-09
1.78193e-09
5.83592e-10
9.21171e-10
3.71874e-10
3.39414e-10
7.88789e-10
7.31004e-08
3.5143e-09
6.66109e-08
4.3682e-08
4.29405e-08
1.88675e-09
4.33824e-08
0.74529
0.649359
0.649359
0.658909
0.649359
0.759432
0.688633
0.112885
0.0979095
0.0979918
0.0979918
0.0979918
0.125186
0.10322
0.286702
0.263908
0.0836269
0.115847
0.135764
0.111359
0.0679751
0.0235234
0.0243296
0.0658858
0.109763
0.0083935
0.00882692
0.201079
0.110554
0.0517732
0.0526551
0.108779
0.0327191
0.0513053
0.0116847
0.00334941
0.00543285
0.00264718
0.00256138
0.00563114
0.00312456
0.00129741
0.00497616
0.00482711
0.0142564
0.00482751
0.0128381
0.00691284
0.0101516
0.051408
0.121111
0.145177
0.0565593
0.0337636
0.170606
0.0127743
0.00513616
0.00739805
0.00128824
0.00177571
0.000572379
0.00217691
0.00138
0.000101352
0.000136489
0.000101352
0.000101352
0.00010266
0.00016001
0.000101843
1.17052e-32
8.52025e-34
9.41241e-52
9.32437e-24
1.94905e-23
1.00475e-22
6.16106e-23
1.27577e-14
5.33733e-15
6.2995e-16
1.70178e-16
4.01251e-16
4.17456e-16
1.72572e-16
0.000815575
0.00326756
0.00249576
0.00197948
0.00325191
0.00195317
0.0010345
0.420062
0.618598
0.617487
0.140708
0.0935471
0.0935199
0.618034
0.477693
0.756506
0.620356
0.423281
0.418421
0.731155
0.837608
0.876672
0.690505
0.715121
0.564473
0.872425
0.880328
0.880487
0.222699
0.214594
0.224622
0.440634
0.421932
0.438148
0.734996
0.171751
0.102695
0.0536688
0.0849004
0.774402
0.660209
0.0354493
0.0085385
0.00339319
0.0074586
0.00515035
0.0482655
0.00297982
0.0249636
0.00151653
0.00105776
0.00104748
0.00172086
0.0010361
0.00108448
0.00107205
0.00100972
0.00100972
0.00100972
0.00100972
0.00115742
0.00125802
0.00100973
0.0506773
0.0506773
0.0637976
0.0506773
0.0506773
0.0677188
0.0567981
0.884311
0.884566
0.884311
0.884487
0.884566
0.879826
0.88026
0.88372
0.883737
0.884653
0.88455
0.884568
0.884566
0.88464
0.539181
0.877446
0.884322
0.847273
0.000642747
0.000641623
0.00114995
0.000700035
0.00102179
0.00199818
0.000795362
0.0317601
0.0375376
0.0312061
0.0381793
0.142808
0.107563
0.0187467
0.030741
0.0620507
0.016936
0.0462884
0.0167391
0.0490543
0.0211804
0.661936
0.779351
0.774487
0.750657
0.78135
0.782316
0.777277
0.000653752
0.000470848
0.000485944
0.000503768
0.000812452
0.0005064
0.00079477
0.733632
0.736492
0.503337
0.419412
0.454947
0.421379
0.43675
0.737913
0.738914
0.376094
0.00281792
0.00459854
0.00466123
0.00466123
0.00466092
0.00466093
0.00421587
0.974245
0.975208
0.960194
0.270362
0.763295
0.945965
0.827477
0.00468092
0.00767496
0.0081315
0.00812767
0.0081315
0.00743317
0.00272108
0.000795349
0.000834312
0.00120743
0.00119805
0.00119002
0.00100331
0.00126247
8.20594e-06
8.2005e-06
3.0338e-06
6.0636e-06
8.52186e-07
8.20473e-06
4.73919e-06
1.00427e-06
9.54967e-07
8.48019e-07
9.0369e-07
3.18343e-07
1.88852e-06
7.07071e-07
1.82274e-16
4.68827e-17
2.34241e-18
2.79946e-17
3.94401e-21
1.73296e-49
1.12478e-17
3.02888e-20
6.50876e-20
4.77026e-24
1.24223e-23
1.93013e-25
3.90373e-41
1.55821e-27
7.03277e-41
1.02013e-27
3.49284e-50
9.64404e-41
2.98563e-40
2.55254e-30
1.58432e-30
1.05626e-28
4.80411e-29
2.02862e-30
2.93045e-32
1.3529e-51
1.79261e-31
1.34711e-29
1.07244e-32
6.1191e-11
3.40147e-11
2.47602e-10
1.27327e-09
5.1721e-10
1.77921e-10
1.658e-10
5.50732e-07
1.44663e-06
1.56565e-06
8.17074e-07
8.474e-07
1.05564e-06
3.31931e-07
0.0375772
0.0540235
0.228994
0.0375009
0.157503
0.234597
0.234565
0.140877
0.234565
0.422758
0.47587
0.618598
0.0128423
0.00540854
0.00539953
0.00831088
0.0140369
0.00304302
0.00421814
0.658675
0.272651
0.489748
0.272651
0.498807
0.332538
0.290797
0.0246949
0.0132069
0.0168511
0.0787192
0.034226
0.0558625
0.0243168
0.0208416
0.0208544
0.0208416
0.0438319
0.0221802
0.0208495
0.0581074
0.889512
0.889512
0.889512
0.835793
0.888886
0.767131
0.0255024
0.034056
0.00726163
0.00871689
0.00726165
0.0220139
0.0112501
0.262652
0.130243
0.263316
0.263317
0.263434
0.263222
0.263434
0.756882
0.729481
0.758931
0.696286
0.742831
0.768629
0.758935
0.744436
0.632301
0.748058
0.00553075
0.00645526
0.00126949
0.00334864
0.00506357
0.0074705
0.000947606
0.00327703
0.00526057
0.00226617
0.00388589
0.0022121
0.0068438
0.0030753
0.000581042
0.000908554
0.000299248
0.000308337
0.000281351
0.000575469
0.000644775
0.954232
0.910612
0.682059
0.95526
0.958509
0.876631
0.916923
0.000620454
0.000749745
0.000617305
0.00180822
0.00308184
0.0019746
0.000918504
0.000709079
0.000827013
0.000806084
0.0007803
0.000709079
0.000712436
0.00110649
0.000773029
0.00288101
0.00126134
0.000768981
0.00103034
0.00268426
0.00153777
4.08306e-06
4.13719e-06
5.61614e-06
7.93384e-06
4.04586e-06
3.88564e-06
8.0083e-06
7.95271e-07
1.38815e-06
6.74641e-07
9.25891e-08
1.55277e-07
3.49568e-07
2.26515e-07
9.04514e-22
3.57137e-24
1.70276e-23
2.84636e-20
7.80117e-20
4.78689e-21
2.41743e-21
1.14937e-09
1.06202e-09
2.66449e-09
1.32906e-09
8.54247e-10
8.154e-10
2.2185e-09
2.91953e-07
3.32562e-07
3.32698e-07
2.25342e-07
2.78216e-08
2.68666e-07
4.94216e-08
0.0218675
0.0641732
0.0131107
0.0103737
0.010453
0.0124183
0.0281444
0.143414
0.143401
0.040163
0.131042
0.09861
0.0398176
0.0145514
0.106766
0.233524
0.109829
0.234566
0.234565
0.231892
0.106168
0.234627
0.234418
0.15122
0.0060862
0.00849206
0.00610386
0.00790203
0.00790289
0.0149108
0.00784339
0.00965927
0.00977102
0.000775541
0.00546451
0.00224791
0.0224069
0.0013268
0.0646702
0.0263111
0.0263489
0.062214
0.019727
0.0141921
0.0254927
0.0163861
0.0233599
0.0248399
0.116222
0.0703271
0.034673
0.0730331
0.0391271
0.0391271
0.0401512
0.0878693
0.122487
0.0647694
0.0382445
0.0019807
0.00243719
0.00267484
0.00124521
0.0012739
0.00140968
0.00166058
0.00352532
0.00114368
0.00131567
0.00152237
0.00387947
0.00148541
0.00114997
0.91843
0.91843
0.91843
0.438871
0.788445
0.886323
0.91843
0.86234
0.904529
0.863923
0.894428
0.902713
0.905103
0.905039
0.904941
0.904941
0.904941
0.904941
0.90494
0.90494
0.90494
0.90173
0.904653
0.905129
0.905129
0.905129
0.905129
0.905057
0.181452
0.798602
0.122992
0.53556
0.639863
0.0635085
0.0374149
0.0143162
0.0143162
0.0139187
0.0162119
0.0211218
0.0408701
0.0409582
0.0414102
0.0472496
0.0409582
0.0408701
0.087054
0.0901383
0.0895078
0.0832722
0.0901383
0.0700188
0.0653088
0.0649391
0.0202323
0.00635738
0.0225783
0.00355797
0.00698891
0.00957509
0.024376
0.0564372
0.0357901
0.035915
0.0378612
0.068211
0.0321836
0.0497849
0.0100018
0.045784
0.00790344
0.0574781
0.105742
0.0934168
0.0267972
0.000339563
0.000413077
0.000347112
0.00145415
0.00090946
0.000927138
0.000423887
0.000225548
0.000158218
0.000349769
0.000128039
0.000198332
0.000127701
0.000144713
0.00125245
0.000959003
0.000370022
0.000367404
0.00048802
0.000457386
0.00116799
0.0229004
0.0125637
0.0130072
0.110342
0.210035
0.0308032
0.0950323
0.000450542
0.000429412
0.000960664
0.000647557
0.000616268
0.00041559
0.000535408
8.21443e-13
4.26732e-12
1.20634e-13
2.16614e-13
9.40434e-13
2.38462e-12
1.0274e-13
3.00022e-10
5.83232e-10
1.59906e-09
9.96471e-10
5.55837e-10
5.35783e-10
3.28625e-10
0.0244506
0.0261593
0.11608
0.0205054
0.0291789
0.000519198
0.00061172
0.000519608
0.00184432
0.000872925
0.000801241
0.00051347
0.000767741
0.000775784
0.00134771
0.000789274
0.00126931
0.000789018
0.0015959
0.00184026
0.00211585
0.00185324
0.00186598
0.00441268
0.00519886
0.00306234
0.000945397
0.000678662
0.00178251
0.00206061
0.00092846
0.0014924
0.00092341
0.904941
0.871474
0.905034
0.780625
0.780632
0.780625
0.692332
0.729758
0.780575
0.780019
0.77849
0.77836
0.778325
0.778325
0.778604
0.77827
0.751851
0.780597
0.780438
0.780431
0.779981
0.771784
0.778601
0.766054
0.786228
0.766054
0.779879
0.766057
0.787442
0.839911
0.785841
0.828379
0.804234
0.837417
0.810178
0.83767
0.83767
0.83767
0.83767
0.74983
0.834183
0.74983
0.74983
0.834533
0.767117
0.815839
0.697257
0.841601
0.724286
0.608403
0.848792
0.845013
0.841601
0.841524
0.840288
0.74863
0.841524
0.841601
0.7158
0.588695
0.58849
0.591244
0.592184
0.587632
0.587627
0.63458
0.688817
0.586569
0.586569
0.587129
0.82794
0.827545
0.781744
0.675275
0.0987497
0.827949
0.715305
0.0765254
0.0760227
0.333085
0.118926
0.079999
0.0760227
0.196701
0.0786575
0.0786575
0.0789301
0.478508
0.716752
0.0893276
0.483183
0.0424161
0.0418347
0.0433014
0.116966
0.325542
0.0904608
0.410618
0.0140768
0.0294225
0.0142283
0.020842
0.026639
0.0444238
0.0173841
0.00117554
0.00218365
0.00117554
0.00117554
0.00212727
0.00147019
0.00302775
0.000649255
0.000886117
0.000889376
0.000510298
0.000546086
0.000510304
0.000528235
0.000502213
0.000749578
0.000508234
0.00121701
0.00067221
0.000788284
0.000514446
3.06954e-11
4.40682e-12
7.68476e-12
6.48217e-11
1.60404e-10
2.34392e-11
2.14236e-11
0.0216368
0.0559627
0.0345747
0.234708
0.051532
0.234679
0.0779625
0.234708
0.234708
0.234708
0.20343
0.109921
0.268379
0.292002
0.291994
0.214639
0.292003
0.062628
0.210434
0.0709433
0.000713789
0.00175525
0.00135295
0.00238441
0.00143276
0.00106021
0.00248921
0.000683697
0.000422852
0.000521778
0.000422852
0.000422901
0.000798564
0.000771795
0.790316
0.926821
0.371208
0.926827
0.926831
0.926838
0.911063
0.0291333
0.0399092
0.0169247
0.00582892
0.0383149
0.0155449
0.00395876
0.064929
0.0576671
0.064987
0.0160635
0.0505333
0.0208576
0.040547
0.0191638
0.022111
0.0321955
0.0191638
0.0195463
0.0117308
0.0325
0.858985
0.858984
0.858949
0.858985
0.859308
0.858905
0.859476
0.854225
0.854439
0.854225
0.854268
0.854268
0.843743
0.804735
0.858961
0.858985
0.696377
0.196617
0.45718
0.197234
0.307303
0.335723
0.247427
0.196288
0.203736
0.204794
0.0759359
0.145563
0.151805
0.0906753
0.0315984
0.847235
0.8472
0.844079
0.847235
0.847248
0.847248
0.847197
0.847248
0.839178
0.846714
0.785281
0.832568
0.785281
0.828981
0.784863
0.829153
0.839136
0.845453
0.844768
0.801225
0.834744
0.831111
0.758195
0.835209
0.362247
0.336157
0.117026
0.347864
0.101282
0.101821
0.103008
0.746598
0.440299
0.471046
0.409066
0.710687
0.720838
0.470159
0.734987
0.844955
0.845036
0.844955
0.84504
0.844946
0.842828
0.810676
0.235687
0.844964
0.84465
0.854223
0.854249
0.856183
0.299387
0.147637
0.116735
0.266006
0.162399
0.0608721
0.0820311
0.861919
0.861919
0.862111
0.309058
0.589725
0.861739
0.819363
0.016384
0.0265087
0.0254012
0.010072
0.0120188
0.0217185
0.0142533
0.001472
0.00199729
0.00107907
0.00153673
0.00182283
0.000993359
0.00102575
0.00520981
0.0046235
0.00376188
0.00345651
0.00422309
0.00323651
0.00351531
0.000686727
0.000690387
0.000816103
0.000991646
0.000921234
0.000817054
0.00237204
0.000832169
0.00136619
0.00144979
0.00162094
0.000849337
0.00103376
0.00162532
7.04751e-08
4.4875e-08
1.56014e-08
5.5755e-10
1.90692e-08
9.53572e-09
6.18539e-10
6.38416e-09
2.29928e-10
2.94319e-09
1.32964e-09
2.42769e-09
3.39788e-10
5.14878e-09
2.51454e-08
2.68302e-08
7.13688e-08
3.7741e-08
6.99879e-08
5.87215e-08
1.38426e-07
1.19581e-08
1.685e-09
4.18737e-09
6.40464e-09
4.91886e-09
2.51504e-09
4.02277e-09
0.00135132
0.00024234
0.000851817
0.00119302
0.00106632
0.000721647
0.000732639
3.7947e-05
0.000148161
2.99632e-05
0.018579
0.0212571
0.0185109
0.0466087
0.0197976
0.0703745
0.0954951
0.134429
0.133913
0.134556
0.133997
0.134556
0.0377198
0.0335409
0.136418
0.0246533
0.0466375
0.00928615
0.0142747
0.0161439
0.0105761
0.0238402
1
1
1
1
1
1
1
1
1
0.00187416
0.00108448
0.00315229
0.0480873
0.0170941
0.000251139
0.000897409
0.00102217
3.8355e-05
3.86753e-69
0.000311231
0.000539656
1
1
1
1
1
1
1
1
1
1
1
1
1
1
1
1
1
1
1
1
1
1
1
1
1
1
1
1
1
1
1
1
1
1
1
1
1
1
1
1
1
0.548983
0.212926
0.970704
0.993026
0.99356
0.93354
0.954659
0.694075
0.693999
0.694075
0.677156
0.667811
0.662872
0.694075
0.593082
0.521389
0.584689
0.775496
0.584689
0.584689
0.666657
0.742709
0.790655
0.792199
0.65314
0.651735
0.840743
0.81996
0.58976
0.789416
0.587769
0.694075
0.670935
0.600157
0.680442
0.151065
0.47833
0.00314828
0.00144077
0.0015082
0.013375
0.015738
0.0158471
0.0475339
0.037117
0.0397758
0.0574378
0.000571268
0.000547237
0.000758639
9.52626e-08
9.54938e-08
1.33234e-07
0.00124649
0.0025196
0.00386228
0.000476835
0.000527508
0.000561779
0.000861778
0.00119472
0.00055798
0.00059285
1.28868e-09
1.74369e-09
5.67179e-10
2.44405e-07
1.29757e-07
1.13282e-07
9.20058e-07
0.0021851
0.0155486
0.0242213
0.00134974
0.0022899
0.0012468
0.00234522
0.00124707
0.00381428
0.00388454
0.0186077
0.0111374
0.0404369
0.0155063
0.0888682
0.0805539
0.0091228
0.0245213
0.0137206
0.00894019
0.0153272
0.0210778
0.00470812
0.0206271
0.00121043
0.00158599
0.00276736
0.00319842
0.00198607
0.00275983
0.00246431
0.00764187
0.0237997
0.0102965
0.239501
0.239501
0.12157
0.0334695
0.0763304
0.133946
0.11942
0.0766611
0.225095
0.154897
0.108318
0.225816
0.000273507
0.000650438
0.000269415
0.000337336
0.7652
0.76426
0.813721
0.526844
1.13996e-16
1.56394e-16
2.99038e-16
0.0283512
0.0114761
0.0174615
0.0180759
0.0563578
0.146945
0.0795319
0.372509
0.00754117
0.0101596
0.00377703
0.00460921
0.226199
0.189545
0.123008
0.0315453
0.0766438
0.00374403
0.00715947
0.00281062
0.00132557
0.917915
0.863222
0.767727
0.917851
1.49929e-08
8.93279e-09
0.329913
0.52755
0.0556524
0.307421
0.839421
0.89016
0.74265
0.89016
0.193581
0.291994
0.0491532
0.270387
0.285744
0.33006
0.290828
0.408517
0.236514
0.235935
0.236514
0.221948
2.33729e-11
7.15332e-11
2.57364e-11
1.80094e-10
0.000406722
0.000243646
0.000526119
0.000911269
0.00100261
0.000472965
0.880535
0.771438
0.875492
0.441817
0.0673233
0.0373658
0.108692
0.0281538
0.00616489
0.00797133
0.999981
0.999999
3.31804e-20
2.88103e-18
6.52245e-21
1.08383e-19
0.00271009
0.00542643
0.00884886
0.0159446
0.00514083
0.00314936
0.0143151
0.014915
0.000483312
0.000499584
0.00107682
0.0016932
0.000695811
0.000495906
0.0122923
0.0117236
0.00456035
0.00272675
4.24367e-21
1.78321e-21
0.000514104
0.000822535
0.000530175
0.00271748
0.0832835
0.0642391
0.215582
0.341121
0.720237
0.59143
0.590329
0.0951125
0.32148
0.716162
0.803435
0.37811
0.801658
0.840923
0.770536
0.83767
0.837153
0.837229
0.337497
0.345221
0.584917
0.143571
0.735255
0.279758
5.35411e-10
4.50301e-10
0.526659
0.795078
0.13036
0.409253
0.344652
0.104781
4.28986e-05
1.8324e-05
0.000279127
7.63436e-16
2.89776e-16
9.24659e-17
0.703406
0.688633
0.0208255
0.0606461
0.0246886
0.075288
0.0884933
0.210146
0.215205
0.214591
0.0160364
0.025945
0.0111859
0.0463582
0.0262943
0.0220799
0.0263608
0.0262959
0.880487
0.880514
0.0404765
0.0320806
0.856855
0.829921
0.0351304
0.0378499
0.000483209
0.00116186
0.926671
0.523215
0.00147332
0.0023968
0.00110669
0.00105195
0.123731
0.921044
0.0214244
0.0372528
0.780842
0.9608
0.0056212
0.00237872
0.00832242
0.00552851
0.00170276
0.000726863
0.000992896
0.000718328
0.000640863
0.000756061
0.000284855
0.000252228
0.000451467
0.000242861
0.000547039
0.000721694
1
1
1
1
1.91873e-11
1.6199e-11
4.60092e-11
2.97843e-11
0.916371
0.349281
0.916329
0.89721
1.70224e-16
6.68703e-16
6.52054e-16
2.29926e-14
0.827677
0.361702
0.0019003
0.00145222
0.0235753
0.0250369
0.0600367
0.0560066
0.162157
0.0545104
0.443836
0.440387
1.24057e-09
4.96403e-10
2.1563e-09
6.99453e-10
0.0232102
0.0197682
0.0402351
0.0289748
0.0124483
0.0121738
0.339034
0.198362
1
0.924728
0.932376
0.941894
0.872629
0.650039
0.369402
0.691073
0.691073
2.2905e-07
1.29301e-07
0.0208115
0.0545559
5.55253e-07
8.32673e-07
0.000929182
0.000485047
0.000535804
0.000361955
0.0311401
0.0748419
0.0187628
0.0153817
0.00779921
0.012528
0.849445
0.891011
0.891109
0.00415592
0.0101508
0.00143918
0.00285942
0.112934
0.0384944
0.109612
0.0183688
6.98468e-10
1.7673e-09
1.59512e-09
6.13243e-09
0.00187883
0.00158653
1.29756e-07
1.30614e-07
8.98357e-07
2.33199e-07
0.000889238
0.000470396
0.000531735
0.000838038
0.000147782
7.86802e-05
0.0118201
0.0123477
0.00126505
0.000870227
0.0011208
0.00231352
0.00309172
0.00140959
0.00048193
0.000481925
0.856062
0.854489
0.854664
0.459322
0.0801567
0.452721
0.171932
0.0892646
0.838087
0.792271
0.00107622
0.00104208
0.00114279
0.000515443
0.000195531
0.000394035
9.75163e-05
0.000151147
8.31763e-09
1.98003e-09
3.07199e-08
7.0725e-09
0.00160506
0.00158332
0.116229
0.0833459
0.00424362
0.00648277
0.00514126
0.00423171
0.00112289
0.0018566
0.000558894
0.00136032
0.0821669
0.0742297
0.00883268
0.0143352
0.0154712
0.0319439
0.00290238
0.00237818
0.399755
0.000789174
0.000790912
0.000744704
0.00106826
0.00237572
0.00275877
0.00435873
0.00466088
0.00436937
0.00440609
0.0766605
0.142668
0.645125
0.821229
0.0179251
0.0216431
0.0166516
0.0149962
0.0013545
0.000751569
0.000438732
0.000444014
0.280197
0.0606249
0.1655
0.199354
0.00480551
0.00480037
0.267651
0.556999
0.663692
0.463866
0.343671
0.390089
0.207013
0.21442
2.2792e-07
6.38516e-08
4.18526e-07
3.89633e-07
0.958911
0.978845
0.975856
0.983262
0.988674
0.999414
0.370842
0.372065
0.0450405
0.0521455
0.634304
0.633016
0.00532023
0.0122311
0.641163
0.859148
0.0051745
0.00752275
0.00926197
0.0179314
0.0136385
0.0373491
0.999989
0.999999
0.00311136
0.00350029
0.00310924
0.0031152
0.00196976
0.00249298
4.57483e-08
4.622e-08
0.03486
0.0138377
0.0314765
1.6056e-05
9.40265e-06
0.0552588
0.0384413
0.00748874
0.00393341
0.0234253
0.00626773
0.00112672
0.000523417
0.00127145
0.0016203
0.000968839
0.000969395
0.0026112
0.00126063
0.00290058
0.00159713
0.561936
0.667554
0.00315486
0.00601929
0.00364999
0.00851488
0.934277
0.933611
0.93326
0.933264
0.000895917
0.000440183
0.000518483
0.000296814
0.00277089
0.00238254
0.00196746
0.00195762
0.000996552
0.00196936
0.0574877
0.067221
0.240201
0.0345222
0.411235
0.140303