/*--------------------------------*- C++ -*----------------------------------*\
| =========                 |                                                 |
| \\      /  F ield         | OpenFOAM: The Open Source CFD Toolbox           |
|  \\    /   O peration     | Version:  v2012                                 |
|   \\  /    A nd           | Website:  www.openfoam.com                      |
|    \\/     M anipulation  |                                                 |
\*---------------------------------------------------------------------------*/
FoamFile
{
    version     2.0;
    format      ascii;
    class       volScalarField;
    location    "0.5";
    object      p;
}
// * * * * * * * * * * * * * * * * * * * * * * * * * * * * * * * * * * * * * //

dimensions      [1 -1 -2 0 0 0 0];


internalField   nonuniform List<scalar> 
24700
(
-400.959
-441.389
-354.248
-416.088
-434.118
-316.183
-366.223
-425.626
-452.944
-462.395
-428.316
-454.749
-446.29
-383.834
-410.886
-434.813
-418.341
-225.453
-256.307
-262.9
-209.544
-191.574
-253.613
-242.349
-175.636
-216.845
-207.182
-214.51
-202.254
-3.99204
-3.09522
-3.63788
-4.48987
-4.25395
-4.92263
-5.17803
-0.90015
-1.0621
-1.01029
-1.06178
-0.978402
-1.05578
-0.934688
7.39967
7.48255
7.37828
7.26035
7.37379
7.40081
7.29954
4.74751
5.10592
5.71695
4.43932
5.51565
4.54493
5.68932
4.43727
1.29011
-0.972149
-1.15296
9.26585
-1.32897
-0.631343
-0.694082
-0.527375
-0.752107
-0.866335
-0.662134
-0.601887
-0.828788
-2.02563
-2.01332
-2.0176
-1.90371
-2.03089
-2.01799
-1.97456
-28.8055
13.3614
-26.0263
8.76959
-3.99311
12.3598
-24.1029
-2.60905
-2.50056
-2.60912
-2.58725
-2.57583
-2.53941
-2.62579
-2.44011
-2.49117
-2.45059
-2.75565
-2.64361
-2.6061
-2.54874
3.65941
-4.25341
-9.40233
23.4183
1.2333
-4.95525
0.889909
-13.2081
-8.05184
-7.30453
-13.1663
-7.79394
-11.4448
-14.5967
-291.269
-520.976
-233.21
-219.642
-266.315
-239.286
-337.287
-395.423
-456.506
-746.051
-331.074
-218.113
-281.491
-269.065
-309.151
-257.92
-309.185
-240.495
-227.61
-170.6
-383.046
-327.791
29.6594
-81.6635
-69.624
-92.6262
-111.438
-82.0483
-45.2136
-2.77875
-2.8969
-3.03373
-2.68264
-2.77432
-2.77092
-2.93059
7.83993
7.63151
7.6701
7.50088
7.23546
7.32067
7.25328
-3.44785
-10.2802
-5.49086
-7.48987
-8.59093
-8.52559
-5.21567
-70.7872
-82.2844
-81.8431
-75.6985
-85.11
-78.7973
-57.5569
-102.219
-91.9562
-111.637
-109.869
-109.349
-101.725
-108.392
-112.609
-112.106
-112.324
-111.864
-112.44
-111.785
-112.702
-110.235
-106.43
-104.907
-101.846
-103.74
-105.447
-108.804
5.49009
5.06047
5.8597
5.08821
4.88601
4.66006
4.56842
7.35083
7.31918
7.05373
7.02507
7.57144
7.61883
6.92466
-2.91839
22.9842
22.3655
21.0966
6.72835
16.8076
14.566
6.65728
6.61396
6.70126
6.68531
6.67455
6.67295
6.64251
9.88976
9.56641
9.1581
9.51561
10.1569
9.42029
10.1373
0.366966
13.3132
9.10711
-55.7383
-9.10011
-22.7138
-8.36982
-94.553
-98.0695
-99.245
-98.7355
-93.5863
-98.5685
-98.8006
-108.245
-113.106
-107.478
-112.139
-102.063
-101.975
-112.108
142.255
246.093
58.2559
14.7293
-81.4014
-42.7784
304.55
243.541
266.949
142.106
267.235
211.294
189.185
63.1925
129.947
151.563
121.948
99.3684
157.447
-12.8271
-4.5375
37.0083
48.6851
91.041
29.7464
19.5002
-65.9193
-71.1721
-71.4983
-71.3973
-69.8128
-78.4283
-68.8691
-19.976
16.9292
-34.9089
-7.74228
-8.45545
-13.1682
-19.3464
60.7796
-4.93917
41.8495
37.7518
22.9004
0.517992
41.4579
96.7179
138.519
59.3021
96.8695
116.6
163.94
74.206
-4.07407
-3.24956
-5.36244
-3.79617
-4.57236
-5.52456
-4.86001
6.13343
5.85123
6.2154
6.75768
6.26796
6.19313
6.70276
5.19129
4.95274
4.90645
4.65893
4.75379
4.86624
5.03973
0.39563
0.547599
0.517198
0.70968
0.340363
0.621534
0.356084
-8.73825
-9.4719
-8.72995
-9.26551
-6.86851
-8.51967
-7.62384
-80.5529
-76.9904
-79.8276
-80.4397
-79.9702
-78.2802
-79.5088
-71.5888
-70.4192
-69.017
-71.4853
-70.9432
-69.8655
-71.8358
-57.8802
-85.2468
-38.3141
-53.3242
-62.1384
-57.6151
-58.638
-90.5627
-40.0405
-57.0991
-60.6792
-51.7696
-44.6806
-37.7542
-111.107
-114.148
-147.951
-66.6292
-124.392
-145.46
-102.228
-44.7755
-37.7078
-38.3566
-32.8127
-36.4188
-44.6488
-36.863
-65.1384
70.727
-49.9508
-104.317
-81.3642
-60.0576
-40.2657
-3.05515
-3.9388
-3.07799
-2.89408
-4.10387
-4.25145
-3.46676
-2.46948
-2.44708
-2.32522
-2.61079
-2.68193
-2.60242
-2.47088
-2.19078
-2.21218
-2.09162
-2.20699
-2.24283
-2.23464
-2.11844
6.21199
-4.32056
9.89706
-3.82366
11.4827
10.5151
17.2582
12.5442
12.1951
13.2828
12.8289
13.7606
15.157
13.0711
-17.3121
-28.1054
-21.9949
-63.3454
-45.7411
-25.6972
-26.5208
-92.2967
-94.1996
-80.0775
-84.4176
-87.3228
-103.912
-95.1316
-11.1285
-162.545
-121.276
-152.689
-169.919
-62.5753
-99.2109
-64.2511
6.27666
-116.894
-136.074
-118.223
-5.61361
8.79462
22.964
-41.3897
-61.186
-23.6924
-28.4842
-33.356
-37.8103
28.6922
17.6512
2.113
-68.0175
-71.7992
-79.5308
-87.846
-90.857
-81.1388
-81.2643
216.891
185.254
200.174
225.099
166.226
162.339
188.662
8.70306
7.13384
5.0895
6.74751
7.32282
6.64407
6.65245
9.05454
9.06659
8.62683
9.971
9.67444
9.79162
9.45113
4.13104
4.22467
3.97588
4.15879
4.27037
4.26065
4.0701
2.86961
-0.32464
6.97399
1.69444
3.03828
16.467
5.6406
-6.35056
-6.45579
-8.67448
-6.97442
-5.19908
-6.20301
-7.40037
-96.0933
-99.0615
-99.1476
-104.608
-99.5153
-101.288
-97.3624
-41.6714
-115.678
16.8301
72.5677
-70.3318
-148.929
-236.275
-65.7775
-45.848
-48.7372
-40.0693
-75.0701
-62.4753
-57.2946
-2.86208
-2.85082
-2.84588
-2.84675
-2.85014
-2.85553
-2.86514
-2.7841
-2.78792
-2.77656
-2.77088
-2.78642
-2.78855
-2.79201
5.55868
5.59769
5.52446
5.41783
5.54025
5.58254
5.50433
-68.2603
-58.0678
-102.204
-32.4794
-60.7775
-46.5331
-94.6449
-86.3983
-72.7596
-49.5986
-96.5806
-77.0887
-110.62
-105.971
-93.6933
-100.016
-79.2922
-103.94
-90.1203
-124.474
-54.5695
-86.4561
-83.9446
-81.2439
-89.4868
-87.4327
-81.3643
-86.5123
-95.5552
-101.138
-105.875
-113.534
-107.82
-107.361
-93.5719
119.404
82.7848
79.9227
175.565
140.222
142.666
147.045
231.442
170.809
222.442
161.719
74.4762
154.181
194.113
134.795
156.939
152.015
137.398
137.355
141.268
139.781
10.7101
11.0244
11.4316
11.7298
13.2648
11.161
11.7937
14.6772
17.5282
-3.67354
-0.500896
3.89099
-8.60892
-6.88027
6.68513
6.50807
6.49088
6.13709
6.83068
6.71267
6.86927
0.0805395
-2.20446
-1.58297
-2.24158
-1.53258
-1.68563
-0.868847
-10.2549
-9.04349
-9.00743
-11.2434
-10.1489
-10.1252
-10.6854
-12.7721
89.3659
-38.1503
-46.3756
-49.2495
-3.18199
-89.0146
-21.7513
-63.2947
-85.247
5.36872
37.6108
-261.657
-193.581
-100.579
-54.9565
-176.063
-85.3844
-48.0343
-27.467
58.2373
-61.3931
-7.47626
1.02498
-31.0253
-144.617
-227.157
-20.2047
31.1977
-2.75351
-2.7412
-2.73782
-2.76692
-2.7639
-2.75221
-2.75015
-2.00427
-2.02655
-1.90915
-2.01702
-2.00924
-2.01854
-1.95454
4.33095
4.46629
4.54892
4.1208
4.27286
4.39724
4.43983
4.39328
4.43535
4.55812
4.39165
4.34589
4.4139
4.4569
4.85217
4.93138
4.71139
4.98904
5.23049
4.757
4.96734
6.60388
6.98229
6.87158
6.6147
6.79509
6.82564
6.95352
13.4254
8.98799
9.90816
12.8033
14.4282
11.8658
16.0601
20.7714
23.3919
29.7437
37.5131
34.2003
29.5735
26.6475
-48.7104
-51.8943
-23.6361
-63.4551
-18.897
-38.4553
-79.1948
-49.5772
-20.82
-68.1223
-69.4485
-39.3831
-105.94
-104.129
-99.7912
-105.097
-100.604
-106.064
-110.818
-112.705
-113.077
-112.514
-112.01
-112.052
-112.548
-112.339
-9.60879
29.1466
-1.68801
-7.73799
-20.5689
8.7033
-21.4396
223.207
195.995
192.545
237.496
217.297
238.398
228.689
40.8353
35.3922
44.3482
49.9514
48.5118
47.9925
46.1479
67.92
52.3973
60.5818
57.5108
64.5133
58.2508
68.7819
75.8483
78.7456
74.0883
69.597
78.9229
83.4783
74.2413
5.66789
5.66837
5.64098
5.69913
5.70602
5.69369
5.62568
4.87382
4.85468
4.63629
4.88104
4.96858
4.86944
4.7566
-4.44325
58.756
-5.67425
2.03781
-19.5149
6.01277
-9.47962
19.2706
1.52657
-7.90806
-56.0916
13.6017
-101.188
-100.101
-97.5187
-100.494
-108.228
-103.38
-99.3788
-71.237
-74.5209
-73.1659
-69.4806
-68.4297
-71.0145
-71.1931
-6.131
-7.05382
-6.6248
-7.2576
-5.09214
-5.64223
-6.18908
-2.92682
-2.90892
-2.93568
-2.905
-2.91138
-2.92274
-2.93093
-2.91264
-2.91161
-2.90884
-2.92834
-2.91002
-2.89188
-2.9388
-2.91447
-2.91677
-3.87272
8.60755
7.09336
-0.624104
11.8827
4.19651
5.59372
4.67925
3.99721
4.01369
3.52868
4.07443
3.83671
4.65837
3.85441
3.81561
3.89855
3.71844
3.85779
3.78127
3.83313
3.5754
3.79787
3.91356
3.87301
3.86025
3.86717
3.66907
4.366
4.76512
4.46907
4.28585
4.19187
4.54695
4.16706
5.52076
5.28421
5.54065
5.70614
5.74107
5.4379
5.61364
5.57494
6.79379
7.69557
7.15961
7.63171
5.80722
7.38538
65.9108
70.7755
69.6644
71.6679
60.7259
71.9602
60.7748
174.488
195.386
199.9
186.755
226.707
185.01
193.67
209.853
228.036
228.163
131.533
212.108
221.279
214.153
203.136
76.7522
45.4619
439.526
284.894
319.19
208.768
280.731
219.822
127.71
275.429
167.884
340.342
117.311
502.61
323.045
263.899
63.5405
69.8031
84.0291
53.8179
48.4917
63.1565
66.8521
46.3161
53.8651
65.8817
51.4606
55.3355
50.4976
49.9632
29.5252
51.0449
44.1
30.7434
29.3558
27.6149
33.4268
38.7065
37.7668
39.005
37.8909
34.7827
32.5832
38.7888
10.309
1.00852
-7.62962
-3.23806
-0.127381
17.4878
27.7062
-63.6866
42.1182
23.3783
18.9684
112.075
13.4767
28.0534
39.3949
-142.621
-24.9609
-49.9571
-59.4162
-48.6863
-60.0462
-56.7467
-57.7214
-55.6109
-2.86214
-2.83944
-2.83979
-2.91434
-2.8844
-2.88445
-2.87405
-2.8437
-2.87805
-2.93963
-2.85887
-2.90464
-2.90532
-2.88609
-2.8499
-2.81331
-2.8633
-2.8663
-3.07407
-5.17411
-3.9419
-4.23587
-3.55606
-5.6102
-4.40148
-5.3285
-4.47989
-5.10734
-4.90546
-5.42986
1.74182
2.52471
1.89136
1.55756
1.50318
2.11865
1.53735
2.6374
2.29921
2.41555
2.19421
2.5716
2.23649
2.61955
5.60919
5.48392
5.41902
5.22322
5.59645
5.3036
5.57543
79.9136
107.731
95.9333
81.4582
77.8533
86.4195
64.3587
-82.2213
-87.9983
-88.6207
-79.0759
-75.0772
-85.1929
-85.596
-110.954
-109.416
-110.032
-108.842
-110.371
-108.228
-110.672
-6.96806
-7.8016
0.712427
-7.86272
-4.94754
-6.5729
-6.16312
149.471
147.341
149.858
130.179
109.187
143.198
141.817
402.778
312.353
515.935
230.249
277.384
166.525
198.648
121.193
183.02
227.06
175.156
251.284
100.379
239.237
273.776
29.7773
29.0987
30.6992
22.7235
32.6507
31.2992
30.5198
14.9533
12.666
12.2358
12.9594
14.2748
13.6643
12.7898
-2.44348
3.01743
-0.719912
2.8842
2.17655
0.809038
0.256266
6.57652
6.91714
6.70163
7.01909
6.29528
6.83015
6.22782
6.88019
7.71122
6.92773
6.61674
6.69623
7.04722
6.87622
3.25175
0.450095
4.72039
7.42869
12.3893
6.17756
13.7569
-10.2631
-10.185
-6.44013
-1.66988
-4.44172
-8.48723
-9.4252
8.072
13.1961
8.5891
-0.698365
5.63272
6.45983
8.16996
-1.77297
-4.53499
-23.1178
-0.521514
10.4255
1.46116
-1.75491
-0.972891
0.514114
-1.39154
-3.53138
-2.12191
-0.739471
-1.34866
0.808166
0.854298
1.27352
-0.819207
1.32886
0.666698
0.718022
-1.32893
-0.599597
-0.573443
-1.42342
0.26193
-0.896816
-0.36575
-1.21297
-1.32287
-1.2276
-1.13124
-1.24193
-1.27254
-1.1923
-1.5244
-1.69101
-1.12518
-1.65666
-1.70853
-1.64944
-1.49246
-3.1245
-3.06708
-3.15102
-3.05622
-2.66829
-3.14708
-2.9268
-2.9972
-3.02384
-3.17778
-2.41961
-2.30021
-2.5083
-1.907
-2.08328
-2.28933
-2.19952
0.0895113
0.116939
0.599963
0.0159454
-0.364251
-0.289916
0.416492
59.4433
68.2354
74.4195
111.285
65.9512
92.0131
54.8021
1.318
3.59135
15.0533
23.8804
24.2776
16.645
17.2341
-79.0994
-103.337
-88.1536
-82.4639
-84.5848
-97.0273
-84.6141
28.1229
27.933
24.7905
26.5697
29.6539
28.9282
31.8698
17.7
18.6569
12.1382
12.6698
14.1953
17.7611
14.5172
4.33833
4.78527
4.92048
5.61096
3.93223
3.84983
5.37577
-1.32341
-1.60174
-3.67245
-2.74457
-0.969932
-4.16262
-0.624957
4.23892
11.7465
11.12
10.9151
-7.06726
18.0708
4.69901
3.24177
3.04152
3.62937
3.30391
3.78648
3.25411
3.60038
4.11675
3.63235
4.1492
4.13486
4.66939
3.85787
4.60962
-2.79464
-2.91526
-2.86234
-2.67612
-2.68575
-2.69672
-2.66625
-1.42952
-1.14509
-1.43498
-1.56171
-1.42392
-1.29276
-1.50665
2.78825
2.67582
2.45012
2.67206
2.615
2.50053
2.67073
11.2958
24.1954
26.7686
0.712333
7.87324
6.82663
0.611987
79.465
79.9755
86.3709
46.9903
81.4292
76.617
70.4869
-77.6609
-57.3835
-77.0393
-29.0527
-85.5638
-88.8846
-90.8263
-2.5606
-10.5259
11.7028
41.9866
24.1608
12.4506
20.8483
-1.13329
-15.8891
1.91978
-3.61823
-3.44971
21.2651
3.02768
-4.65759
-3.42298
-4.03654
-2.06323
0.978846
-2.18803
-3.19673
-3.3508
-4.58585
-3.33991
-2.41958
-3.05265
-3.81063
-2.5729
-6.5734
-6.25632
-6.36982
-6.72915
-6.70211
-6.50653
-6.64067
54.4528
46.3848
52.7125
57.7697
55.8767
53.2419
51.4036
1900.21
1697.14
1479.02
2438.45
1101.61
2217.12
1146.11
1275.68
2243.62
2559.54
2557.9
1880.65
742.22
789.888
1160.36
438.193
1828.3
2315.56
29.0762
29.6748
29.5574
30.0737
29.6572
29.7328
29.448
10.5011
12.1449
11.779
11.5767
10.5331
16.0845
12.2059
11.9207
16.4114
17.1594
18.7166
22.2915
17.2612
16.5548
21.2359
26.1521
14.1358
18.0867
26.1906
15.6468
13.3404
7.26608
8.07255
7.19057
7.08085
6.8984
7.72401
7.03835
16.643
-68.8149
15.4732
26.3732
-2.20315
157.786
101.6
-21.1493
57.9473
-3.20065
4.4536
4.82533
4.79982
4.95639
4.99822
4.98491
4.67194
7.71204
1.5859
-11.622
-1.2609
-3.39063
-2.46171
2.93608
5.88141
5.15773
5.81294
1.10304
4.25184
3.21833
4.57073
2.86776
3.15439
2.72199
3.37339
3.76391
3.79565
3.16333
3.7969
3.30216
3.41655
3.13586
3.26399
3.12382
3.58295
2.52343
1.7512
1.89584
1.48912
1.53318
1.51437
2.10295
-2.68017
-2.64439
-2.78792
-2.58096
-2.68223
-2.87608
-2.55222
-2.6543
-2.67116
-2.51446
-2.59719
-2.6679
-2.78872
-2.70168
-2.67461
-2.61026
-2.83348
-2.68438
-2.71501
-2.74204
-2.6642
-2.6659
-2.60004
-2.75003
-2.78692
-2.79894
-2.76932
-2.68337
-2.81059
-1.51799
-1.52061
-1.45248
-1.33265
-1.36587
-1.43141
-1.43072
0.670863
0.870453
0.763355
0.796401
0.589164
0.821962
0.581403
5.51321
4.88494
11.0294
3.68216
5.16563
6.39267
7.5525
-0.219454
3.77975
7.2564
0.691013
15.6405
4.36002
4.65889
4.7989
4.95078
4.51995
4.61853
4.27012
23.624
23.3386
-2.46532
16.561
24.8155
21.2032
11.8066
4.65962
3.95828
5.95496
4.54243
6.24447
3.84067
4.53888
56.4382
53.564
54.4169
57.2669
51.1434
52.7009
54.7434
-37.3743
87.0052
-69.4835
78.6692
-26.228
34.8132
25.5823
25.5802
24.8299
24.1497
21.2035
25.6587
22.4989
15.9648
7.10969
11.9622
21.3223
13.3026
14.551
22.7363
63.8314
151.411
165.931
86.7449
155.95
59.211
146.376
-8.68029
44.8172
96.6173
3.96538
4.37085
5.10085
2.40722
4.2115
3.96978
3.5304
3.90743
4.04581
4.08408
4.13764
4.14981
4.19076
4.01136
1.90879
2.19833
2.0697
2.36754
1.96378
2.2579
1.80614
12.7083
-1.32209
12.4166
-0.844677
13.6476
8.43023
-1.87473
5.40602
5.41698
5.45868
5.15606
5.2733
5.4214
5.30162
4.38735
4.12787
4.38159
4.44562
4.29196
4.11866
4.38085
4.93749
4.71634
4.85908
4.64492
4.61028
4.5557
4.5853
3.82182
3.86176
3.65284
3.95853
3.82598
3.79499
3.82746
3.23013
3.20318
2.949
2.87761
2.62818
3.08487
2.99099
-2.19727
-2.31896
-2.2592
-1.98147
-2.07049
-2.16793
-2.05525
-1.00545
-1.05047
-0.900095
-0.978702
-1.05745
-1.05634
-0.931248
0.00981922
-0.0394708
-0.12656
-0.23491
-0.228258
-0.134408
-0.116971
0.353443
1.01889
3.39555
-0.037072
0.399303
0.765667
-0.305156
-1.1144
8.53151
-1.4205
6.84836
-3.14999
1.33331
0.414219
7.15729
4.06923
9.75221
4.52092
5.84854
4.78297
12.5867
4.45584
15.2591
5.57697
3.35965
3.43622
3.4565
3.49905
3.23165
3.30144
3.30226
4.81161
5.636
4.77838
4.8703
4.68941
5.36294
4.78618
8.11652
4.10284
7.34925
5.23714
5.10161
4.44197
4.85906
18.2585
15.7889
14.2088
13.2504
12.3852
13.9437
13.1918
6.04111
7.99621
10.5972
8.05
5.79429
9.96375
9.24711
13.3225
13.3658
12.8491
12.0796
12.0681
12.5403
12.6196
11.1778
10.1134
10.1232
13.4197
11.5753
10.6133
11.5254
36.8905
27.2867
35.5772
29.8229
27.6824
39.0083
33.5153
71.9905
78.8928
88.5991
126.727
62.9335
57.8225
96.9622
97.6809
177.48
97.3118
46.3665
69.6394
76.6849
-54.4059
60.3359
49.9691
42.9841
97.9285
122.888
-47.6026
85.2037
88.8462
48.0846
38.7086
150.687
96.0213
-4.87966
-16.0567
-9.09068
0.185974
-17.286
-16.2548
-0.428109
36.5324
28.5366
42.2913
38.1646
33.8734
26.993
39.1265
27.0832
22.8385
27.3396
31.2179
29.8826
27.7269
28.0729
20.8312
22.4705
21.7335
24.2975
23.7254
24.2693
22.8763
78.3543
73.1243
74.7997
68.8732
75.1214
72.253
76.7954
12.3479
15.0921
13.4374
19.1686
22.9845
13.0832
13.8403
5.3448
4.85469
5.08785
5.44333
4.61124
5.01225
5.08849
5.70646
5.87775
5.79049
5.78926
5.75602
5.82344
5.71201
6.09233
6.19198
6.41675
6.26771
6.4444
6.22405
6.27733
6.29078
6.37711
4.86014
5.95882
-1.33517
4.89316
3.66402
5.54497
5.45222
5.49266
5.59102
5.62503
5.53917
5.57005
0.178915
0.415326
0.0239145
-0.253752
0.203022
0.27914
-0.198512
-1.63
-1.87853
-1.8254
-2.07084
-1.9327
-1.96779
-1.74907
1.92827
0.0441393
6.92366
-0.390403
-1.919
7.84192
7.97818
8.10556
8.01787
7.79086
7.85989
7.7089
9.29444
9.6649
9.87636
9.42036
9.88719
9.27169
9.87046
28.702
28.5215
28.8492
28.5139
28.6515
28.7064
28.8019
28.7131
28.6572
28.6598
28.5788
28.5694
28.6392
28.6705
55.1571
90.9734
-0.269676
103.426
149.717
76.1215
25.34
-47.1308
19.747
73.5981
-103.703
34.4243
-74.3258
-22.6823
-46.8424
49.2025
-27.0357
99.2368
110.321
39.0606
86.5227
80.1403
27.5949
113.741
162.976
194.791
121.146
164.087
221.412
189.534
101.463
64.681
232.023
133.097
188.073
44.1802
252.354
195.168
101.123
274.829
81.5171
385.673
447.209
351.823
337.385
110.382
1845.89
2106.51
1540.87
1783.86
1445.77
1616.08
1579.8
1542.5
1956.81
1722.04
2272.18
1794.76
1131.19
1075.16
1627.43
1155.61
1111.23
1069.39
1518.07
1720.18
1284.59
1313.07
1195.39
1185.09
294.15
234.115
280.284
201.054
232.235
271.964
244.756
57.9172
56.9106
32.7428
72.2512
56.7239
56.7437
65.7901
19.7118
23.062
30.3914
19.0024
33.0378
27.5377
31.7855
5.24055
5.61106
12.3183
11.1013
3.95265
8.74822
12.2043
19.3462
17.0286
16.4619
10.8817
13.1197
13.4459
15.168
3.17757
2.14696
3.32005
2.92293
3.85795
1.90938
3.12708
5.83585
6.00115
6.12908
6.32603
5.96311
6.23042
5.82357
5.90893
6.01004
6.01912
6.08881
6.07827
6.06584
5.98484
-1.45141
-1.51979
-1.51678
-1.35632
-1.33152
-1.43052
-1.43114
-4.45517
-7.48936
-0.0796879
-10.4511
-6.95784
-7.00558
-4.20972
-11.1892
-8.58182
-4.50546
-8.56012
-11.9728
-3.37359
1.40415
0.780589
-0.974241
2.11234
-3.1388
-3.90097
-0.825656
6.88425
6.9417
7.01179
7.05833
6.91243
6.82831
7.10236
4.51795
4.53445
4.91884
4.605
4.26203
4.40088
4.33037
7.30529
14.5739
18.5018
-4.68959
14.1466
13.9603
10.8956
17.1112
17.2968
12.4021
15.8622
14.6894
18.2988
14.8745
23.8047
21.8151
21.1494
18.1316
15.7031
22.1615
20.6328
27.4754
27.3393
25.7849
25.932
28.0765
27.8297
25.898
266.86
162.715
252.343
319.991
250.957
228.51
280.988
350.766
368.102
341.682
305.114
262.715
195.672
295.266
89.8688
246.527
224.883
284.476
246.305
269.471
259.235
307.164
275.959
308.67
88.2418
82.6183
61.2334
136.6
77.0716
102.478
67.3816
176.928
60.497
149.538
88.2258
113.509
101.196
94.2732
34.3757
46.7273
-17.528
267.075
17.2922
107.741
89.1245
98.8451
172.436
-108.709
-31.892
-18.7801
-6.13374
-20.0511
566.207
353.757
478.5
250.498
235.758
240.997
244.19
255.412
240.08
245.983
428.882
281.403
366.514
269.359
222.531
320.217
310.415
329.253
302.546
374.665
452.286
397.737
268.021
441.733
432.454
270.32
313.023
205.292
309.707
287.928
206.878
152.897
177
152.219
118.274
134.979
176.079
138.232
30.6681
26.8736
26.2643
25.6337
3.49448
14.6689
24.3222
13.511
13.0232
14.5312
10.6971
12.8112
13.1376
11.3545
8.31722
7.87154
6.82238
8.6436
7.65872
8.51101
6.95247
12.2576
12.4223
13.0249
14.0827
13.2453
13.5386
13.015
7.6139
7.27017
6.96067
7.31024
7.17785
7.52718
7.10264
6.89256
6.87399
6.67852
6.90729
6.97757
6.9287
6.78879
3.75159
4.36776
3.92042
3.74944
3.52676
4.04466
3.88737
0.495485
0.0314087
-0.0293293
-0.43607
-0.0875917
-0.310488
0.30444
-0.745874
-0.420462
-0.366515
-0.447848
-0.261065
-0.625021
-0.29707
-0.482214
-0.566863
-0.632442
-0.360273
-0.304206
-0.440242
-0.477932
-4.6029
-3.41982
-4.36529
-4.91997
-4.74911
-3.91863
-4.65976
-4.37761
-4.18662
-3.61746
-11.7594
-31.1532
-23.1604
-24.3161
-26.6199
-20.4193
-32.8883
-27.1019
-19.1283
-26.8481
-14.8647
-22.7041
-21.9911
-19.8108
-16.1441
-18.9803
-15.8485
-9.67843
-25.2428
-36.6182
-3.85164
-26.5835
-148.659
-139.025
-130.254
-103.777
-132.777
-149.003
-177.066
-126.557
-121.977
-3.45424
-1.7114
-2.34221
-1.55443
-2.96015
-1.35079
-3.29772
-2.04768
-1.60566
-2.63528
-3.73825
-2.98011
-169.098
-143.046
-152.896
-483.464
-503.728
-483.822
-479.541
-464.61
-466.213
-473.45
-485.068
-500.676
-496.005
-510.693
-488.516
-484.479
-473.461
-485.92
-495.872
-472.174
-486.602
-475.587
-504.77
-483.962
-484.144
-452.266
-475.507
-482.131
-465.211
-491.074
-514.612
-501.371
-505.474
-494.668
-489.09
-500.471
-490.986
-481.3
-494.673
-489.18
-481.763
9.82002
-8.77
-11.8511
-28.9056
-22.8367
-13.0791
-31.3372
-877.752
-747.009
-1047.45
-1550.77
-395.975
-722.533
-1469.7
-1677.83
-748.592
2353.41
2637.49
2483.99
2470.91
2455.75
2586.68
2645.12
2613.45
2525.07
2457.92
2513.16
2515.15
2547.4
2623.74
2244.88
-829.583
-695.179
-694.768
-1892.85
-452.58
-966.666
5.57085
5.61295
5.60194
12.7215
12.9464
12.2068
14.6006
12.8164
10.329
14.2188
5.72414
5.89459
5.84739
3.7934
3.81831
3.81186
13.0419
12.5843
13.2884
5.20203
4.97836
5.65634
5.81362
5.81751
5.6701
5.44641
-1.54384
-1.56308
-1.59625
3.69965
3.63484
3.90472
4.04385
5.20991
4.12993
4.97272
4.40053
12.4286
12.4758
13.4246
13.3556
15.337
13.8185
19.1942
16.332
21.0482
18.2726
18.6007
15.9465
16.6305
18.8277
12.2918
12.2169
13.2995
13.5826
4.37724
4.13006
4.5186
5.38858
4.9534
5.40072
6.01937
6.04434
5.82911
6.23704
14.0347
13.0976
18.9175
16.8051
18.9219
15.8854
8.6191
5.24702
10.5426
10.4318
8.4592
10.3354
8.73388
7.25494
4.1997
4.38719
4.25132
4.34693
253.893
188.957
370.647
310.385
-1.65601
-1.69296
-1.43832
-85.1807
-84.0125
-85.8126
-85.5569
136.975
130.036
110.883
127.839
-3.30956
-2.50782
-3.72187
-3.62949
-77.5489
-68.3092
-52.2751
65.8775
68.3515
6.92655
6.17905
5.04906
5.08588
31.197
26.1655
22.0577
27.7848
-0.302504
-0.434922
-524.801
-150.465
-310.582
-173.777
2893.1
2737.56
3271.67
2882.51
-4.87303
-3.63729
-6.75789
-1.2446
35.339
36.583
26.3658
32.5745
-76.4441
-73.9711
-69.7974
-82.5208
-2.03597
-2.07646
-1.97006
-1.97092
5.26717
5.46028
29.0633
29.0814
28.6109
28.8591
84.7494
24.4835
66.766
2.45027
21.4972
27.357
19.3539
21.9342
-82.3757
-73.76
-97.3744
-91.1277
-2.19921
-1.95264
-2.37788
-2.15442
-7.53518
-8.12042
-7.55183
-9.81525
-8.392
-7.28214
-9.50052
-5.42171
5.4741
5.53201
-2.83665
-2.79066
-2.79943
-2.78931
9.4358
7.68914
8.89934
6.90659
-2.10052
-2.28636
-4.27129
-4.40576
28.8992
28.9737
-15.2546
-4.31006
-21.2038
9.74249
2089.21
1965.37
2564.52
241.143
297.898
229.4
259.957
7.50004
39.5529
58.9797
123.167
142.75
178.83
323.148
99.0559
78.5844
246.758
204.917
234.598
193.4
-1.89947
-1.93625
9.50909
13.8286
3.0706
-8.63685
4.41823
3.71072
-3.42854
-3.33516
-4.37983
-2.59799
-2.77087
-2.52016
-77.2784
-54.4289
51.3345
46.993
38.8484
38.5849
43.3815
40.8046
40.0931
34.1545
42.6708
48.8814
37.9826
44.9911
6.23406
5.78449
6.33434
5.89147
-82.1888
-103.502
-85.4495
-82.0656
-129.862
-153.54
19.7098
21.6221
5.51956
5.46393
3.47421
5.29627
-6.20276
-6.44263
-5.76281
-6.02641
11.0704
5.1474
9.38077
2.94873
15.3381
-9.49507
3.80021
4.36852
4.3708
6.84865
-101.366
-101.298
-101.922
-103.618
28.8085
28.6769
-2.84503
-2.60315
-2.9796
-2.69355
4.45493
4.43723
-179.574
-177.378
-139.147
-142.107
0.313546
0.120899
0.964428
0.55478
230.626
186.578
542.257
218.562
-3.52194
-1.51239
-4.45825
-4.37492
155.261
140.201
-5.4428
-5.19314
8.29033
8.66215
7.35338
7.95149
245.562
228.44
249.294
200.131
1.75006
1.56709
2.00039
1.79994
-72.2784
-73.2139
5.27585
7.9574
-31.7427
-34.7642
36.3808
63.0975
-393.061
-0.238389
-0.973315
9.16549
16.1749
1.31538
-15.0432
8.51322
40.3001
-0.156592
-0.19381
5.45782
4.35178
3.49581
3.58142
5.68044
5.61438
5.91004
5.63449
28.1108
31.4272
-93.7282
-89.1727
-103.356
-101.454
2177.45
2338.9
2792.66
-5.442
-5.96121
-3.95767
-4.17832
28.5917
23.4302
16.0371
14.1418
1.64145
1.66645
1.85723
2.09646
10.4907
10.5588
3.36456
3.2395
3.47419
3.2623
8.63447
8.8983
8.11401
8.46362
4.80543
4.92459
6.66702
6.82861
3.78447
3.63238
3.39075
2.72898
29.1753
29.1298
5.67316
5.71326
-25.2053
-11.4987
5.99984
-4.63673
-10.2701
-6.58864
75.8885
50.5414
53.3137
51.4024
1.80737
1.73234
2.04925
2.07229
-2.80866
-2.81513
-2.80467
-2.82975
1.6635
1.64186
2.0406
1.82623
10.5149
10.4784
10.1428
8.56323
4.78382
4.71113
3.98454
4.8037
5.16119
5.08352
5.07875
4.80243
6.52142
4.46073
2.19446
1.30635
3.78934
2.85617
1.96352
1.95523
-107.48
4.61896
5.1009
-114.097
-114.373
-114.57
-115.243
-76.9635
-80.0623
-80.0864
-80.7588
48.7291
68.512
50.9372
50.778
67.2387
63.4607
64.2322
63.2311
-114.109
-114.086
-114.663
-114.314
188.697
199.225
169.627
162.154
-81.3246
-81.4588
-13.5741
-45.6377
262.997
210.599
29.7879
33.8976
29.0509
33.9009
4.701
4.77331
4.83446
5.05913
0.483712
-4.11758
5.27066
8.22674
-79.1619
-84.4723
75.5614
65.9505
-2.55328
-2.1669
-6.36709
0.0343067
-0.147504
-0.367302
-19.9504
-25.0061
-111.334
-110.806
17.3753
17.6311
18.2483
18.0972
-75.8225
-69.3685
16.4297
16.3871
16.9356
16.3849
7.0926
7.18881
-2.74132
-2.78338
-107.999
-110.78
59.0454
5.58582
5.45162
3.08109
2.63039
17.7872
17.1884
18.1647
17.5852
4.77889
4.80916
7.25782
7.28107
7.24272
7.1885
5.92237
6.0847
5.89107
6.19984
-36.6146
-59.8757
5.82698
5.52807
5.97036
5.66925
-124.061
-74.4035
-73.7561
-119.988
1.66858
1.5474
1.35808
1.24136
-6.65864
-6.23314
7.24093
7.50548
6.82095
7.00247
-9.71124
-11.0272
-45.6895
-37.119
21.2816
-20.4187
5.87132
6.49576
162.472
162.992
151.995
166.797
167.922
160.798
161.782
147.843
22.4762
20.6878
-1.14701
-1.40262
1.30386
1.3682
2.13093
1.78711
5.48048
5.34561
5.6319
5.5833
5.95931
6.18764
-2.01725
-2.043
78.1127
82.92
234.022
213.83
2.14522
3.5818
3.27918
14.7547
2.41997
12.692
-18.77
-8.67916
-41.2209
-48.9405
6.827
6.62009
16.3623
18.4171
20.0854
20.5945
5.08926
5.24689
4.9286
5.07532
0.908543
1.13771
-0.258175
0.191214
-63.6927
-64.7169
-2.28847
-2.3325
50.2476
47.3606
44.7641
43.2144
-2.39853
-2.35114
31.803
23.5516
35.0588
30.2159
6.86335
6.86958
29.0661
28.8118
27.4593
26.7155
15.4835
21.8438
-1.16987
-1.22019
-45.6325
-35.7217
-71.0021
-70.9244
4.55489
138.224
139.537
90.6915
2.85709
8.73192
5.27545
5.2789
4.9828
5.11175
-82.0962
-78.0219
-88.2481
-93.0091
34.4322
33.9148
39.2093
40.7928
21.7555
26.1061
-2.66533
-2.60886
4.65694
4.45107
-60.4655
-25.3259
-85.5755
-29.0171
-17.2383
-25.9046
-30.6796
-59.1375
-2.62053
-2.56158
-10.2763
-10.7523
28.7572
29.0072
-3.63792
-4.15182
-3.89131
14.7637
8.85737
5.35781
6.06252
1.8383
2.95367
0.934221
0.0753191
4.98474
4.60529
5.25401
5.62341
6.10554
7.95682
6.33992
12.0612
-414.795
-402.885
6.27519
6.18336
4.33263
4.40909
7.27034
7.3912
7.18268
7.0471
7.66598
5.19029
3.56508
3.57586
4.21665
5.2954
4.25473
3.59192
4.65426
4.69881
4.77458
4.82652
4.74004
4.96397
42.276
30.1154
8.12691
8.0037
0.0423767
-0.00114273
0.0389573
0.00911872
-343.183
-347.223
56.0621
43.151
105.406
66.53
3.68905
3.65097
-91.1046
-89.9175
5.12241
4.50651
6.15849
4.37241
17.3375
18.2144
-115.992
-127.682
-110.091
-111.501
5.03476
4.94479
31.1012
-93.3425
-94.0994
30.4109
149.624
147.365
5.70845
5.7328
5.79191
5.78897
-84.7546
-87.2482
-2.99281
-3.03261
-2.83252
-2.90175
-92.5586
-90.8227
2.18994
2.3559
-387.776
303.016
227.867
182.511
28.5152
28.3115
7.14466
7.38178
-1.81392
-2.24697
-1.46855
-1.4992
4.64805
4.6217
4.34244
-1.48145
-1.50405
-1.50295
-1.53914
-16.2087
-10.7774
29.8282
25.0701
-76.709
-76.4533
61.2466
64.1897
49.3846
60.4462
2.69762
2.57071
7.52379
5.51132
41.9471
39.4113
6.81022
6.61713
-3.54242
-3.61456
-3.23949
-3.74004
7.5806
7.90204
14.458
0.343993
5.3036
5.25388
11.1339
8.37993
-86.9614
-85.4342
-89.2932
-84.4532
5.79017
7.57642
5.06006
4.91044
7.82409
5.02122
6.60754
6.65023
-42.2687
-39.0981
5.06777
4.92182
5.42322
7.25272
7.80309
7.58416
31.1694
50.937
187.252
188.692
28.8534
19.4469
-6.31788
-6.46124
7.53812
8.51346
19.1599
19.8869
19.8617
21.0433
28.5982
28.472
16.2691
17.2268
21.3994
19.8982
5.81215
5.83759
6.64079
6.65133
0.377757
0.356311
-104.328
-100.907
-61.4823
-59.3402
-2.80113
-2.79153
-63.2423
-65.8144
0.109271
-0.409784
0.0745153
-0.437285
9.48686
8.6852
8.94451
8.33968
59.2152
61.1491
-76.9057
-79.1506
53.4948
55.4587
227.708
200.196
248.844
218.016
6.28601
6.36111
5.62151
5.63705
-1.27321
-1.28286
-1.23051
-1.17432
1.43664
1.11857
78.2157
80.5698
79.7478
63.1143
248.39
222.863
15.1464
14.155
14.8283
13.6184
25.8671
28.3833
-3.41871
-3.63837
6.03306
5.9964
7.56804
13.5486
4.23021
3.65672
3.23136
3.35515
-1.1856
-1.21396
-12.3917
-19.5016
-16.2563
-21.7349
22.2112
35.8751
1.26972
1.87818
819.065
574.682
515.006
296.646
10.4222
14.0044
52.7694
52.0502
3.05086
2.5039
49.5245
50.3877
2.02325
2.2335
-0.924267
-0.67678
5.54726
5.45211
3.60279
3.83904
-93.7845
-107.952
8.12532
8.60813
13.1656
7.89905
-96.3329
-96.4283
-70.5798
-69.7737
14.4634
30.636
55.3358
73.3051
78.0099
72.4557
5.97828
3.23434
84.989
70.1471
-1.66574
1.34855
-5.1026
-4.34408
4.83321
4.70045
3.1603
3.28132
6.51569
7.04426
18.2448
18.9488
5.60526
5.61376
36.969
37.8296
-5.91274
-3.52821
-43.0892
-46.6106
-73.0351
-94.7991
-92.468
4.61964
4.38959
-23.493
-22.9242
-23.6123
-25.4314
-67.2185
-86.1381
6.35807
6.52024
4.49198
3.69237
62.1228
61.0035
4.17826
4.08107
-2.16649
-2.24649
22.8974
23.9404
-64.1259
-69.7707
19.2935
22.8483
4.74514
5.89705
-108.751
-112.585
42.1856
36.2642
-111.485
-112.288
-1.12473
-1.92679
-1.93095
-1.8895
7.16963
7.15546
-37.3297
-35.7137
4.49405
4.5542
4.53704
-3.01822
-2.98134
-2.99274
-2.93619
-2.74722
-2.7338
-6.77425
-5.91389
-0.543486
-0.729444
3.66512
3.74148
3.77853
3.75318
7.15193
6.95391
52.735
81.9532
7.03472
6.71955
-101.286
-101.172
-38.1423
-33.7772
-73.8805
-74.9067
77.8652
87.1168
-2.80276
-2.80133
5.92117
6.15325
5.04947
5.00758
16.9881
18.3953
12.2118
13.7544
4.51778
3.60915
-1.70953
-1.68148
-106.376
-106.207
-107.449
-106.581
7.98577
3.56017
-2.69221
-2.39567
6.01136
6.08652
-78.6454
-79.4804
-76.8454
-78.6493
-2.47264
-2.89686
-11.5549
-11.8389
5.68917
5.75693
-94.0211
-93.9041
34.2436
43.226
5.7605
5.77671
-111.836
-112.043
13.4561
13.4554
-3.57631
-0.279212
5.47942
5.46672
-2.99976
-3.03371
5.68524
5.81321
69.4731
64.5619
-97.9529
-97.9472
20.1494
15.3788
8.28712
7.46587
1.66494
1.91033
1.89692
1.68932