/*--------------------------------*- C++ -*----------------------------------*\
| =========                 |                                                 |
| \\      /  F ield         | OpenFOAM: The Open Source CFD Toolbox           |
|  \\    /   O peration     | Version:  v2012                                 |
|   \\  /    A nd           | Website:  www.openfoam.com                      |
|    \\/     M anipulation  |                                                 |
\*---------------------------------------------------------------------------*/
FoamFile
{
    version     2.0;
    format      ascii;
    class       volScalarField;
    location    "0.5";
    object      p_rgh;
}
// * * * * * * * * * * * * * * * * * * * * * * * * * * * * * * * * * * * * * //

dimensions      [1 -1 -2 0 0 0 0];


internalField   nonuniform List<scalar> 
24700
(
2817.64
2796.79
2862.39
2782.93
2784.48
2871.09
2840.63
2823.64
2766.96
2767.3
2791
2793.94
2782.82
2814.4
2806.92
2802.57
2799.46
2846.96
2835.66
2799.76
2882.42
2880.83
2807.02
2798.73
2904.58
2843.82
2852.18
2815.5
2847.35
-0.929754
0.00281594
0.148844
-1.3428
-0.967719
-0.188853
0.339876
1.76346
1.6199
1.67546
1.64757
1.71255
1.64062
1.74332
9.2274
9.33134
9.47329
9.11333
9.347
9.59378
9.21542
6.37081
7.35343
7.07602
6.75117
7.77445
6.77894
7.28186
31.0836
19.8033
17.8676
20.6741
116.68
10.48
68.216
1.54603
1.71246
1.4919
1.33025
1.53892
1.64972
1.37344
0.519181
0.525488
0.545589
0.612457
0.503652
0.531788
0.556839
1394.05
228.227
2705.03
1358.7
144.851
2060.16
2619.01
0.15054
0.238759
0.148581
0.194702
0.187732
0.213112
0.145114
2.21828
1.21339
1.2968
2.2259
3.54026
1.97568
3.88547
515.566
586.877
432.757
1592.92
1863.79
981.584
923.186
48.5555
34.7224
15.1835
41.3675
14.3995
11.8567
7.52685
1878.04
1662.42
1934.54
1941.2
1880.02
1915.94
1832.02
1774.48
1038.53
1441.66
-149.801
34.2476
-2.30038
-138.051
-92.5745
-139.435
-186.922
13.7401
-111.11
-25.9222
-231.116
-113.771
1471.07
2020.4
2293.71
2395.84
2461
2285.63
2602.64
3.72528
7.9073
7.69719
7.45789
3.63729
7.98227
7.7348
13.1199
13.1894
13.0162
12.7391
12.7166
10.5654
12.6911
6.93397
24.3574
43.1251
18.0608
40.8691
12.9228
16.2102
320.118
-16.8651
311.904
209.53
-37.0827
-32.3212
321.298
50.1279
97.1628
-27.723
-89.5224
-87.2092
-80.7183
-88.3141
-111.898
-111.138
-111.038
-110.644
-111.493
-110.309
-112.082
-97.1709
-80.2629
-91.67
-48.9162
-82.8109
-73.2262
-96.2705
24.0829
26.2901
31.5437
14.2271
17.8887
10.699
22.9642
12.8108
12.696
9.93491
10.9846
12.9194
11.3563
9.68405
1760.62
1338.51
1987.51
1317.51
1956.18
1966.08
1869.55
9.4456
10.3623
9.45943
9.9032
11.7253
11.6485
9.17065
14.532
16.6404
16.1998
14.6093
15.6723
14.4718
13.6457
682.054
271.907
279.033
223.833
741.135
442.606
759.555
-17.6799
-61.2426
-73.8796
-65.691
11.0475
-32.1617
-29.7328
236.585
-69.4514
-46.6913
344.246
258.164
278.448
306.96
275.711
391.681
202.312
160.317
76.3189
143.778
309.427
263.097
284.079
168.928
286.742
243.29
223.567
105.869
159.225
183.615
158.761
137.273
238.709
40.4906
33.569
71.0443
113.242
140.184
98.1671
72.4103
-52.9731
-58.0966
-44.0843
-37.431
-55.8385
-60.2355
6.35903
10.8118
40.7006
-4.8493
13.3106
1.23383
-4.02943
-7.73621
190.784
89.1393
85.9928
209.917
69.5644
104.169
207.123
315.685
344.626
275.372
371.68
420.867
478.503
357.754
9.99497
10.7003
-1.42499
4.8647
-1.27862
-3.21555
7.05911
9.92314
10.4645
10.1758
11.7108
10.6193
10.1475
9.07245
8.36188
8.18847
8.121
9.11914
9.55223
9.35312
8.23922
4.88975
7.08079
7.52281
7.5543
4.17022
7.59124
3.24458
26.8935
6.43986
-0.504663
-1.28996
1.09871
5.56317
13.8175
-68.1433
-64.464
-67.398
-68.065
-67.6883
-65.8358
-67.1593
-4.84721
-3.86797
-12.374
-49.9867
-45.8729
-55.0376
-45.3707
807.08
1901.03
1902.49
856.204
263.351
762.441
271.962
1877
826.185
652.328
645.474
764.666
1754.05
1908.27
941.77
1918.91
1561.88
1712.27
1950.67
1708.52
1691.91
31.2223
38.362
17.9536
4.56018
4.63397
24.0556
-0.593663
1847.55
1834.41
2369.3
2381.01
2370.2
2441.7
2610.47
66.2654
86.243
66.7961
109.608
222.009
149.395
65.8024
5.79011
5.70268
3.89547
5.69641
2.4492
3.95324
6.13402
0.127424
0.102921
0.204902
0.113409
0.0985383
0.0927555
0.189558
2138.51
1624.73
949.75
2127.27
2150.73
2052.69
1656.73
88.7341
86.401
88.5992
114.23
178.256
132.444
80.527
336.72
325.412
330.472
1020.81
948.475
604.795
328.364
8.35585
-5.59959
37.2306
-43.4897
-11.8656
-65.5388
-27.3024
325.471
192.716
228.751
-37.7206
129.672
49.9846
11.5058
188.092
100.92
118.78
91.7488
-5.66216
216.856
140.277
111.355
135.61
22.7221
62.1651
55.5504
60.1976
75.0056
116.163
108.595
90.6528
-63.0822
-67.2818
-73.5918
-82.6637
-84.2278
-76.3998
-76.0515
292.162
238.318
219.123
527.7
363.234
225.206
248.706
45.0308
63.856
56.4786
44.6952
43.5819
64.4486
72.9935
14.0043
17.492
13.3211
16.0671
15.6991
14.4447
14.2186
7.38864
7.49085
7.58848
7.53414
7.47778
7.49508
9.586
121.397
98.8225
142.191
719.172
593.918
738.345
408.499
25.7325
2.2933
16.6865
18.0241
12.4133
18.9277
16.7934
-74.6174
-70.4992
-86.3695
-85.1107
-87.4982
-89.308
-85.4334
1140.07
1052.57
1184.46
1636.78
1103.91
1110.87
1226.85
152.519
1869.84
862.475
1860.63
1853.96
547.89
750.443
0.0610105
0.0938041
0.0499013
0.0640405
0.080957
0.233117
0.0627556
0.125465
0.230641
0.109075
0.1479
0.154093
0.204883
0.0810308
12.0201
11.5735
10.1577
10.8067
11.3768
9.66349
8.63145
731.022
610.735
583.045
966.303
610.463
1031.8
982.401
50.508
59.9679
87.2676
454.247
67.6569
-20.2581
53.9506
811.031
792.783
807.906
779.309
278.628
342.417
843.876
-42.6372
-50.1825
-41.8497
-48.9463
-47.4288
-42.9152
-49.4242
-69.3541
-75.6814
-80.5742
-44.6468
-83.4127
-82.4082
-67.007
149.484
157.92
111.454
202.499
170.056
214.203
185.676
277.107
226.543
292.59
205.001
153.301
218.726
271.822
163.136
189.356
179.374
187.26
184.151
174.903
180.2
12.261
13.011
12.9942
16.0168
15.7332
13.864
13.4742
936.595
934.37
934.919
667.549
146.164
903.35
729.525
10.0305
9.9001
9.83155
9.4591
9.39962
10.0681
9.98127
7.94799
14.5899
6.44643
11.9464
22.0986
13.4659
6.80312
-2.79057
50.1271
97.3111
94.9756
36.8796
22.6867
2.73265
1448.02
1537.1
1422.84
1242.84
898.086
972.991
1386.49
1437.9
369.241
1380.97
1444.41
764.418
1309.54
1391.85
1471.53
1501.75
1377.44
1494.13
1516.28
637.204
1650.36
387.466
1549.76
1566.63
1468.67
956.138
1268.49
1468.39
1497.85
0.0278133
0.016583
0.0392858
0.0332219
0.0782935
0.0593873
0.0320144
0.534501
0.507988
0.606997
0.546169
0.535556
0.531236
0.576846
7.55827
7.66028
7.83951
8.05897
8.72824
8.7439
7.67915
9.17262
9.18234
8.47113
6.94506
7.79117
8.23042
7.68932
6.95944
6.96889
6.76335
7.02564
7.26251
6.80255
7.07024
20.6976
13.2091
10.7062
20.8276
32.0977
12.2521
32.0535
120.342
117.391
200.536
211.832
121.202
131.629
366.405
842.454
635.793
853.534
525.111
762.69
512.342
598.626
648.993
594.859
653.478
634.264
689.052
657.578
604.695
649.471
696.339
611.266
622.09
664.081
-93.1225
-92.4721
-88.0193
-7.37352
-56.1279
-85.4736
-45.9343
-111.596
-111.096
-109.772
-110.407
-109.389
-110.877
-111.097
7.23584
44.7563
19.8539
93.5524
-0.88561
59.9645
-9.18228
247.919
246.869
217.926
264.284
254.714
274.577
296.616
63.2877
58.8423
67.1101
96.8632
131.396
70.782
67.9457
180.441
181.341
95.207
103.228
76.1728
102.26
83.3867
102.457
99.8639
98.3522
86.114
98.4439
105.278
90.6023
7.28276
7.10012
7.01743
7.09942
7.13486
7.08412
7.20398
7.3545
7.87133
7.13905
8.50863
8.72393
9.2759
7.66807
1336.68
1386.46
1335.7
1365.14
982.408
1346.38
1346.89
1359.07
370.344
902.358
1262.79
963.367
-85.0039
-84.0947
-84.8386
-84.3421
-94.3883
-91.1836
-87.2311
-10.4404
-14.3208
-11.2038
-7.97591
28.9511
31.5612
-10.0055
95.1718
123.994
306.09
76.6751
45.4621
92.5277
118.352
-0.0173901
0.0103614
0.00119434
-0.00458849
0.00715605
-0.00423186
0.00165081
0.00156159
-0.0029113
0.00536143
0.00423578
0.00787382
0.00762348
0.000522942
0.00647016
0.00417115
2549.19
2597.69
2544.54
2615.27
2555.37
2608.7
2559.59
9.1618
8.46152
8.49992
6.98375
8.45487
7.8653
8.49266
6.3311
6.29403
6.35336
6.22375
6.38249
6.28404
6.31631
5.81597
6.04247
6.1346
6.12259
6.13112
6.10161
5.92525
6.45983
6.84055
6.56597
6.38559
6.31001
6.63442
6.27292
7.49031
7.27942
7.53496
7.65333
7.71038
7.42127
7.60012
95.515
76.5933
69.4537
75.5591
81.6497
54.9636
162.268
913.442
560.351
559.24
568.239
546.843
743.818
684.516
959.15
1281.69
931.696
1028.36
973.801
1283.93
1193.26
273.15
319.206
292.887
205.073
307.965
310.121
260.106
211.121
98.3251
71.7374
457.844
316.591
327.175
229.767
290.102
229.192
131.162
299.597
192.019
358.586
130.616
519.405
325.863
280.353
189.515
243.136
279.52
233.941
190.526
261.81
254.781
354.221
180.009
435.147
440.268
427.656
390.549
405.915
556.129
557.636
553.813
392.531
121.382
490.107
530.868
47.9285
46.633
51.929
46.7347
43.3801
41.3875
47.921
158.272
111.422
111.757
1052.81
329.87
743.928
1257.07
1250.97
1343.02
1322.82
1319.44
1399.15
1291.91
1250.4
1341.22
1103.93
423.912
1047.68
1625.9
403.461
1664.12
111.372
1925.37
181.374
0.0434578
0.0385769
0.0566122
0.0142232
0.0257821
0.0349229
0.026947
0.0435133
0.0275375
-0.00122803
0.0703512
0.0245824
0.0147153
0.0247482
0.0563558
0.0653722
0.0337631
0.0491325
0.967966
0.602267
1.81474
0.232237
2.34646
-1.40922
0.636343
0.405963
-0.258821
0.0842206
-0.975707
-1.55023
4.3631
5.13022
4.52078
4.18048
4.14884
4.7292
4.16585
4.86285
4.54305
4.66049
4.46372
4.82276
4.4957
4.8604
7.54094
7.43371
7.37163
7.2024
7.56221
7.26944
7.52643
1513.98
1506.38
1485.6
1545.45
1558.32
1537.74
1532.59
-73.0914
-63.9939
-72.4839
-65.8312
-65.9824
-56.8168
-71.8901
-104.669
-94.7336
-103.77
-101.052
-104.118
-96.3438
-104.464
-2.75461
11.8726
65.6159
23.794
4.64733
3.5138
-3.83233
188.067
177.983
222.962
230.5
216.525
238.783
230.889
430.892
345.338
536.65
240.158
292.447
180.789
239.701
133.293
228.32
258.321
196.657
273.68
105.777
258.639
310.32
61.2719
143.786
61.9236
105.604
90.4719
164.696
59.0129
39.6152
28.4565
21.3037
36.2981
27.5127
25.3582
18.6284
11.3692
11.7353
8.30293
6.96485
8.54266
8.73082
13.6538
8.83232
9.20711
8.95554
9.26612
8.50839
9.09623
8.45954
10.027
11.4952
9.40633
9.0573
9.18209
9.53732
11.4462
1323.92
1291.83
1258.66
1274.17
1309.03
1297.84
1322.1
86.2251
87.5561
90.2126
71.8498
90.6313
86.2659
86.2608
37.7118
52.5012
32.4396
42.8057
27.1097
42.8344
23.8079
38.9941
231.489
361.15
77.3066
47.832
70.5195
259.599
24.42
31.3176
23.3176
31.5736
47.2168
49.9859
48.6093
5.18549
7.0341
9.60546
5.26353
5.42686
9.39285
12.1536
7.12064
11.0827
5.31589
7.92734
6.0181
10.3018
5.96373
1.17183
1.03016
1.14622
1.23189
1.10808
1.06619
1.15394
1.77186
3.34177
5.14736
1.42387
1.07685
1.48473
2.4293
0.112911
0.168307
0.112875
-0.0372124
0.518771
-0.135957
0.360769
0.218954
0.0519421
-0.156798
0.411813
0.531015
0.341503
0.896957
0.739066
0.542408
0.613829
2.33384
2.35686
2.82163
2.26501
1.9032
1.964
2.6521
1256.23
1099.23
1102.23
1139.07
1090.82
1287.07
1151.27
144.894
130.106
142.306
153.091
151.669
179.385
149.731
269.934
224.58
15.048
56.6715
80.779
40.5685
-1.41351
39.8181
40.0362
57.9789
78.6942
33.9022
33.472
129.012
79.0394
47.6939
42.6464
70.0436
32.4379
45.5967
21.5013
7.47043
9.27723
7.47997
8.01826
8.53582
6.76547
6.95788
7.28567
6.75644
18.5836
5.60607
18.6034
7.29763
15.3205
76.4616
177.78
209.889
88.1209
40.2014
249.808
23.5542
18.2217
23.6968
9.267
10.207
7.66907
11.1145
9.44587
7.10006
6.68984
7.10718
7.07015
7.62845
6.96535
7.58169
0.136709
0.0160965
0.0763693
0.236846
0.22721
0.223597
0.254071
1.32967
1.59201
1.32051
1.22016
1.33956
1.45782
1.26232
6.73344
11.9306
10.1085
9.06512
11.8155
8.92933
7.06293
854.405
1276.22
1277.69
291.232
199.97
197.826
1262.88
800.652
1217.75
1008.23
687.538
722.348
1185.35
1325.01
1033.59
832.389
842.825
711.595
1042.38
1055.42
1037.49
251.437
230.308
268.699
545.976
514.58
507.983
864.867
157.63
77.2062
52.0053
77.2743
712.491
623.793
36.9128
3.18057
0.268267
3.11155
3.26618
42.757
1.20464
18.4546
-1.22568
-2.88582
-1.60746
-0.0560893
-1.32119
-2.06055
-0.795143
-5.16861
-4.89547
-4.97203
-5.27594
-5.18181
-4.944
-5.21293
71.5436
63.2573
72.6778
75.0638
74.1204
76.5798
69.9706
1941.46
1730.27
1536.54
2451.23
1130.67
2237.93
1183.12
1325.04
2276.71
2563.61
2570.11
1892.86
762.561
818.368
1195.1
478.548
1860.83
2338.95
29.4194
29.9783
29.967
30.388
29.9938
30.2766
29.8067
26.1514
30.7161
27.891
30.1159
75.9373
66.91
21.814
31.9163
57.2888
28.3658
48.0129
32.9557
48.9899
30.2074
484.682
575.828
574.636
543.162
558.331
559.806
568.3
8.94614
9.53987
8.66654
8.54334
8.69422
9.20939
8.84089
907.157
811.614
627.753
535.992
558.871
682.209
637.063
873.648
933.562
449.983
10.0085
12.8673
12.9129
13.0342
12.9716
13.0293
12.1798
2122.64
2124.33
2096.14
586.032
1636.68
2043.84
1808.42
18.4827
24.5587
26.2779
21.7171
24.7067
22.1467
12.8556
7.02589
7.35647
7.81893
8.51107
8.84256
8.40944
8.41528
6.33395
5.85774
5.96248
5.71039
5.80678
5.69109
6.12292
5.11869
4.36475
4.50996
4.12222
4.14634
4.13998
4.70706
0.227885
0.254477
0.129333
0.328322
0.236254
0.0607874
0.347872
0.264175
0.247322
0.363012
0.298674
0.237271
0.137887
0.206545
0.233497
0.279452
0.103369
0.233965
0.203334
0.176419
0.23576
0.231783
0.279245
0.156847
0.129154
0.135522
0.146754
0.214311
0.105482
1.1912
1.17018
1.23303
1.32922
1.31439
1.24494
1.26402
3.06011
3.24342
3.15838
3.19343
3.00468
3.207
2.98312
93.1078
128.811
526.909
91.1034
362.148
530.092
535.507
320.368
531.735
851.35
959.344
1266.91
30.595
16.6881
16.7925
22.1748
32.6116
12.1477
14.083
1015.19
435.723
726.168
435.287
780.409
521.086
454.494
22.4886
13.5553
18.4199
60.534
31.6335
43.0068
22.4423
66.8763
63.8883
64.3337
78.9671
62.7897
63.3579
82.4857
-7.37372
108.824
-64.0289
114.548
-4.42483
53.6333
40.7676
45.0221
29.3859
29.3057
25.7392
38.1543
29.3756
201.452
101.855
196.593
205.006
192.208
201.919
205.396
941.677
984.095
1030.79
881.59
990.184
913.892
1004.26
862.511
773.319
951.395
10.9291
12.4936
7.53256
6.95242
10.6602
13.0969
5.594
10.7619
13.9634
9.24609
11.7391
9.20678
16.496
10.4803
4.79297
5.64449
4.41182
4.70104
4.27275
5.08734
4.79021
1943.7
1862.06
1396.07
1911.43
1950.05
1791.33
1846.01
8.92287
9.16843
8.95608
11.3325
14.175
11.8584
9.4893
8.34618
8.39884
8.57046
8.5272
8.24177
8.09716
9.23559
8.91469
13.3409
9.92685
8.6168
9.20598
12.7848
10.301
6.29724
6.36218
6.13844
6.4216
6.29803
6.28228
6.30641
5.67558
5.6685
5.41533
5.36272
5.09504
5.55865
5.44607
0.633691
0.527697
0.569063
0.823656
0.753028
0.662085
0.756373
1.6803
1.63154
1.76352
1.71225
1.6519
1.64006
1.74677
2.5275
2.49671
2.4131
2.32911
2.31686
2.41704
2.41553
55.0297
158.041
37.1182
27.2495
27.6655
32.8496
69.9139
348.022
353.655
98.097
322.232
232.94
99.5784
37.5609
248.394
529.413
255.81
527.511
533.164
520.113
252.677
525.838
544.829
345.198
17.6862
22.43
17.8025
21.6883
21.259
35.3348
21.2701
24.8132
25.8269
8.14431
16.8603
10.774
49.0311
9.17154
121.537
51.1492
53.9581
114.616
41.3477
30.8007
50.3367
46.6322
56.072
56.853
209.48
130.477
72.5592
136.197
63.5281
64.5712
69.3722
136.999
182.705
103.296
65.6604
17.1529
17.7195
17.5809
14.9898
15.0573
15.6351
16.0854
14.6716
11.8181
11.9221
15.3109
15.3228
12.5569
13.1672
543.632
554.046
545.442
270.426
444.99
535.527
531.105
121.904
114.606
120.21
139.317
92.2462
81.5067
137.294
108.858
188.658
101.83
74.1914
97.4643
89.5272
-41.5636
89.7211
79.4495
58.528
113.472
127.487
-26.3524
117.396
95.5516
84.818
46.6833
165.476
125.462
0.496285
-12.1494
-7.41288
1.91758
-15.3252
-14.2855
1.69649
47.3305
39.5487
54.2013
50.5701
43.8902
37.5643
62.9761
84.0098
81.3265
80.2495
86.0851
73.9426
69.688
68.5885
35.8121
27.6127
38.803
27.4673
29.1338
31.791
40.458
91.8536
82.4472
84.3115
79.8593
93.4154
81.1878
89.536
20.0887
47.7723
19.8655
58.7331
97.1639
80.0378
33.042
6.80055
6.36429
6.52353
7.99392
6.63108
7.03807
6.61174
7.30765
7.36975
7.52745
7.21627
7.29391
7.26171
7.19301
8.93629
8.70162
8.17951
8.05472
8.36156
8.10744
9.03855
51.61
31.8478
31.1175
212.31
393.655
64.2324
184.605
8.58613
8.49053
9.62334
8.99991
8.99894
8.52243
8.7774
2.71773
2.95732
2.5843
2.28452
2.7229
2.81139
2.35213
1.18154
0.951407
1.00708
0.781505
0.90125
0.872828
1.07315
61.9872
64.6342
286.431
50.7541
69.2975
10.1682
10.4164
10.3974
12.2463
10.6101
10.5633
10.0085
11.6955
12.0809
13.0215
11.8915
12.9792
11.7219
13.3774
30.057
30.0767
30.2209
29.803
31.1852
31.6878
30.6812
29.4948
29.3009
29.7878
29.8486
29.4051
29.6413
29.4793
86.7873
129.451
23.0391
706.193
738.126
680.324
567.662
537.894
636.838
675.898
569.991
693.685
583.472
636.548
598.299
685.475
601.5
701.025
704.807
619.182
769.638
741.885
688.015
450.643
494.273
507.181
423.381
475.068
567.708
543.423
420.465
416.169
501.044
428.61
457.163
339.782
532.544
465.672
387.039
524.951
382.76
620.618
695.951
628.627
605.969
405.008
1871.61
2134.3
1551.46
1808.98
1496.42
1655.46
1603.53
1558.42
1972.71
1726.03
2292.15
1826.17
1157.6
1110.31
1651.73
1164.26
1130.79
1096.79
1534.65
1732.19
1297.62
1316.2
1209.32
1207.01
425.973
381.1
423.468
337.54
250.534
427.069
365.621
89.2608
89.7926
169.227
118.046
89.1424
88.6047
143.937
71.1258
73.0122
80.2937
306.921
477.198
82.8522
337.182
36.6212
35.7843
43.2892
91.34
232.062
72.2854
305.714
28.41
35.8763
25.9766
24.6415
31.0391
42.2396
26.484
4.81518
4.60158
5.00315
4.67114
6.3131
3.86531
6.24178
7.8709
8.29361
8.42187
8.12904
7.83725
8.05022
7.69307
8.86722
9.42297
8.9578
10.352
9.32503
9.5258
8.94313
1.23411
1.171
1.1924
1.32394
1.33035
1.24582
1.2636
59.5531
152.529
100.587
656.799
142.719
657.49
219.877
662.596
658.707
657.945
569.74
303.845
722.014
795.789
786.865
571.63
788.221
168.202
569.339
191.585
9.30541
10.8919
10.3787
11.979
10.4051
9.76154
12.1333
6.55886
6.26187
6.7356
6.36451
5.99543
6.60496
6.46909
775.876
935.579
386.852
938.171
939.961
928.453
926.6
33.6915
39.7915
22.5945
19.5571
35.2368
27.104
17.605
60.0427
52.9836
57.5822
27.681
45.4893
34.139
44.1626
37.0915
37.7909
41.4069
35.9375
37.8942
33.716
42.0023
275.815
187.472
281.841
328.946
275.724
250.105
318.41
360.719
378.058
345.349
330.783
288.385
214.817
313.527
108.832
249.688
240.261
320.728
338.775
305.733
313.929
360.712
322.442
341.959
140.787
136.039
82.6185
170.554
115.279
124.827
75.928
643.499
503.669
606.609
571.942
581.646
553.746
562.382
503.552
519.159
474.719
625.096
412.161
483.979
423.134
407.88
483.633
316.456
373.139
366.327
373.888
391.207
839.911
582.551
745.869
290.486
279.99
254.312
274.882
266.29
252.241
256.372
447.199
296.27
369.405
286.941
239.968
337.903
322.746
348.516
306.873
387.145
464.765
428.032
298.312
473.122
472.281
286.284
336.719
246.787
339.567
325.646
228.93
208.349
205.425
176.898
167.139
161.88
187.245
154.742
253.206
232.877
248.174
112.705
158.529
232.488
246.517
21.7371
26.1648
26.5389
16.2365
19.0853
23.7741
18.7764
9.87422
9.74538
8.17021
10.1741
9.4137
9.74139
8.24007
17.069
16.8829
16.7013
17.5135
17.1702
16.8509
16.4622
9.904
9.57036
9.39293
10.0644
9.79933
10.0178
11.6615
10.0597
10.9737
10.9681
11.4315
10.1363
10.4296
11.3558
5.84843
6.44131
6.01231
5.86794
5.6269
6.13075
5.99184
2.71702
2.27132
2.21484
1.83129
2.16138
1.94342
2.53997
1.64401
1.97104
2.00508
1.96502
2.13349
1.77708
2.08683
2.12937
2.05459
2.00741
2.23913
2.2768
2.15985
2.14056
2.05205
0.0950631
0.906611
1.28241
1.05712
0.931706
0.253381
-1.35932
-0.858688
-0.61289
45.2315
34.0417
33.5247
113.912
33.384
187.331
249.753
368.589
372.576
366.265
374.148
370.616
90.299
79.7256
378.828
55.4629
121.075
20.0781
19.2242
13.7259
29.9305
45.9034
2855.12
2844.94
2851.96
2858.09
2848.9
2834.99
2787.12
2834.97
2859.36
4.89616
4.38372
9.71026
140.287
48.9947
2.28186
2.17509
3.84367
1.42088
0.301085
0.0870514
1.47797
2815.45
2871.2
2841.57
2809.68
2808.99
2810.58
2813.6
2808.95
2798.83
2811.17
2790.12
2794.08
2800.71
2804.33
2806.93
2810.28
2840.87
2809.53
2819.15
2792.75
2807.69
2808.92
2807.94
2809.18
2810.27
2812.78
2809.11
2811.01
2808.35
2804.38
2800.41
2795.35
2789.29
2780.52
2806.36
2814.55
2803.77
2833.04
2799.62
2775.75
2802.74
1592.95
610.919
2808.33
2873.95
2863.45
2701.86
2727.53
1127.5
1270.79
971.845
435.577
1550.71
1204.9
561.091
62.2591
771.907
2385.7
2666.03
2504.44
2477.37
2475.38
2614.01
2659.67
2622.2
2544.3
2472.31
2531.72
2518.16
2575.63
2654.24
2283.83
1187.16
1235.9
1043.95
108.129
-8.8512
432.025
9.90861
8.2105
8.28058
30.1857
32.9472
32.6475
77.1656
61.2766
61.7846
89.5653
7.39667
7.57269
7.72229
6.03618
6.06466
6.07669
15.7722
16.8556
19.0993
8.84339
8.77267
9.49917
7.77435
8.10471
7.3397
7.13596
0.940535
0.900874
0.869734
5.95059
5.87277
6.13697
6.26513
7.66736
17.1582
24.4412
6.27134
16.461
15.2543
17.4633
16.0931
17.9371
16.5031
29.3825
22.7831
41.804
26.737
63.5855
57.1892
21.8183
32.0802
30.4891
24.398
33.1825
40.2305
8.80285
20.5638
6.28414
7.41079
7.96195
8.69331
8.32543
8.89003
8.49292
12.7198
27.4261
19.3056
139.303
138.428
82.5668
33.5493
108.004
177.405
168.55
111.64
300.971
218.604
152.748
308.504
7.17395
8.20675
7.21167
7.43774
359.524
309.12
477.265
389.574
1.1238
1.08012
1.31461
-21.6115
-56.6894
-45.8138
-43.7671
144.429
145.714
121.176
166.623
1.56209
3.6589
-0.947257
-0.471277
531.93
438.774
276.657
74.4124
87.4827
10.7003
12.8497
8.10368
7.00187
493.744
465.461
412.812
490.299
2.29744
2.1841
441.13
1381.1
-146.774
714.262
2920.42
2782.91
3286.2
2924.49
536.534
801.458
132.792
744.478
155.695
169.451
152.279
197.971
167.251
168.233
165.585
139.63
0.536306
0.492654
0.566063
0.571222
8.33749
8.14941
29.4599
29.5363
29.1268
29.1929
504.288
408.482
483.377
226.388
53.076
45.7941
68.7719
35.8719
-75.1271
-64.4981
2847.37
2853.52
0.643021
0.871311
0.474807
0.670794
-4.98357
-3.59486
-0.890958
2.07997
-4.06753
-4.4285
1.25085
5.3413
8.60074
8.66328
2.87237
4.65202
1.84699
1.34573
20.2303
18.1536
13.6025
10.0634
0.721992
0.554428
0.0547059
0.7802
29.6056
30.7564
130.865
107.594
354.894
594.409
2157.32
2021.31
2591.68
249.342
325.407
268.935
296.912
221.514
477.916
530.846
534.317
425.503
446.007
585.001
115.585
97.6707
296.963
217.305
275.186
206.298
0.629267
0.6059
1050.89
1584.95
267.387
839.937
719.371
219.473
-0.411523
-0.37043
-0.686742
0.294246
0.139764
0.367674
1727.01
1719.38
66.6354
89.0843
56.8694
90.0079
104.486
188.824
185.828
185.39
46.5645
55.1915
41.1195
57.0133
33.1898
28.9922
33.3769
33.6102
1020.17
1011.13
-43.3364
-48.6023
954.851
885.587
45.1952
48.5316
8.61871
10.0194
962.236
540.681
-4.38059
-3.90337
-4.13626
-4.43861
138.46
958.094
71.9577
110.276
2252.86
2730.88
10.3852
7.68242
13.7792
13.2872
-99.0095
-99.7809
-100.234
-102.167
29.4677
29.4153
0.0188966
0.210547
0.240307
0.0976161
7.99064
8.36556
2841.49
2843.69
2852.66
2840.01
2.59352
2.39513
3.20792
2.80173
433.101
261.7
710.597
386.031
-0.661877
1.35225
-1.62005
-1.54117
1255.31
620.798
-3.12351
-3.21368
45.3905
47.5231
99.4142
92.4344
269.994
236.94
331.092
278.727
4.09515
3.91847
4.31969
4.11634
-14.3232
-23.7715
120.776
92.0589
5.41656
1.48127
101.221
97.7131
2813.58
1432.54
1451.66
1500.71
1397.62
1175.21
646.373
1255.75
1269.1
2.2112
2.1616
28.6644
62.3353
5.74083
5.83982
8.09119
7.47864
7.88456
7.38067
41.0103
63.2609
-87.1206
-83.907
-100.311
-97.0717
2244.4
2409.11
2838.06
5.56864
17.9215
1.33596
4.18585
213.189
87.7154
199.164
46.1764
4.04684
4.0542
4.27362
4.48604
14.2963
14.0075
5.45696
5.34534
5.55629
5.36566
10.3922
10.2415
9.55705
10.1468
7.13466
7.10152
30.6038
31.8925
7.52491
6.75479
6.89326
8.29048
30.0788
29.6536
8.69273
8.71414
1956.57
1979.08
1982.94
1069.82
178.308
1041.09
157.857
94.9406
452.316
450.095
5.60922
5.48349
5.91566
4.80208
0.450204
0.977872
0.217425
0.345093
4.05127
4.04725
4.43023
4.24263
13.9882
13.8935
208.172
149.988
10.2988
12.7117
10.3825
10.394
7.43175
8.08842
6.74523
7.26206
81.693
73.8123
10.9947
15.4478
18.9742
32.6335
5.56282
4.97931
1046.42
6.75347
7.21356
-113.154
-113.223
-112.781
-113.159
-64.5119
-66.9914
-67.7997
-68.4558
86.9287
136.609
375.675
441.764
72.8653
70.3343
70.0716
68.476
-112.8
-113.139
-113.865
-113.548
242.271
210.041
198.989
200.657
-68.0619
-68.186
333.458
667.705
321.591
245.758
590.827
667.056
373.005
390.188
6.74779
6.82836
6.85712
7.08113
2048.04
2092.16
2123.45
2139.66
2828.17
2854.6
140.4
137.138
118.353
136.444
1666.74
1652.54
8.94312
18.5219
1445.15
1939.64
-108.325
-106.793
29.53
39.915
35.9835
64.6294
2864.94
2871.23
21.2701
21.7181
21.9227
21.3715
11.4572
12.28
0.0661686
0.0293354
-89.5918
-103.192
67.7959
7.56116
7.42948
124.513
88.2779
25.116
21.3551
39.4281
23.7091
8.82554
7.72479
10.7187
11.2256
10.2592
10.1519
12.5614
10.2238
12.9165
10.8817
1269.55
1480.78
13.4327
18.431
14.3516
22.8042
2554.37
2590.01
2589.66
2555.54
5.16239
4.21383
4.20738
3.67389
-3.99778
-3.88884
11.4786
11.7682
9.65054
11.2766
110.722
129.118
-10.4181
-32.0796
67.126
-4.02375
7.43178
7.77916
169.921
187.503
197.364
214.358
174.804
168.17
168.726
155.523
38.7213
39.892
30.4943
37.4002
143.788
210.272
226.43
279.066
7.24569
7.67819
7.3387
7.72109
7.25708
7.51889
0.555029
0.526104
250.373
201.737
470.455
432.821
7.82726
12.2667
2158.76
1431.98
2272.55
568.594
736.015
760.413
703.526
690.442
12.4455
11.237
49.4382
31.9269
78.8682
81.505
13.9355
13.3093
13.8121
13.8411
3.24093
4.22961
5.49047
3.71864
428.491
262.444
1.26471
3.08362
60.2073
60.0998
48.4019
49.6517
1.84193
5.79178
112.482
48.9306
58.3688
41.6163
11.6124
9.59418
29.5193
29.3904
1091.23
1317.83
1264.26
1311.7
1.14215
1.10986
2857.02
2853.71
2850.2
2857.01
9.09833
499.099
491.016
445.717
163.563
86.661
7.43526
7.41155
7.09661
7.28612
-9.33233
136.593
-38.7335
-7.48854
195.525
357.941
303.756
362.936
307.333
574.789
2.61635
5.03574
6.94929
7.73023
-1.10148
32.3211
-21.1707
35.3215
-3.24839
-10.6207
21.263
-7.98514
7.78716
7.72274
6.63384
17.8349
29.94
30.8844
28.305
20.5496
202.958
23.318
16.1399
78.3548
45.9439
46.8373
24.8633
29.1732
17.8218
20.0213
19.9658
22.196
13.2491
147.483
347.214
100.583
247.426
2762.36
2774.27
7.87175
7.51461
6.63448
6.28516
11.5264
9.7531
10.621
9.09886
297.761
50.0603
7.5201
7.07852
49.4341
76.4102
10.7332
7.65532
10.4534
6.90849
7.02513
9.40259
7.66751
11.6077
254.081
102.109
13.3158
12.2578
2.5752
2.54899
2.57247
2.55964
2834.05
2830.01
60.5581
46.8774
116.247
86.146
6.57553
6.67283
-76.313
-77.827
14.6449
9.29032
17.1813
6.76976
82.1036
83.27
100.658
435.123
137.303
882.73
7.10167
7.01845
515.643
-8.05486
-11.0651
514.837
211.969
235.027
7.05398
7.08043
7.12268
7.14886
-20.938
-17.0369
8.75423
3.85457
8.94399
7.38572
-80.4971
-78.7348
4.51215
4.66342
2789.38
372.099
277.728
255.223
29.3033
28.9567
29.4615
29.6581
22.7305
12.8175
1.10976
1.08301
7.9803
7.96135
9.91761
1.09687
1.07815
6.9348
2.94787
122.828
158.453
109.671
105.269
-60.5039
-61.9116
779.976
786.989
1222
1579.71
4.93888
4.82734
25.8453
20.339
55.9444
49.1285
10.8192
9.61492
-0.660827
-0.710078
-0.352589
-0.830255
11.1618
11.0345
711.691
707.949
11.637
11.6489
83.4662
137.843
-4.59215
-42.7513
-23.2182
-41.3286
77.927
77.3727
7.05876
6.91144
33.1108
21.0943
10.9039
10.8573
222.615
153.795
7.06553
6.92257
76.0287
78.2558
13.8507
13.8872
57.5464
131.213
1308.83
1323.72
578.667
502.821
1.44727
-2.0894
76.5371
101.568
38.6926
35.8798
25.8551
24.4454
29.4727
29.3914
28.4625
40.0613
24.3537
24.668
9.63408
9.85594
9.19452
9.8526
2.90919
2.79162
-40.5628
-63.4806
112.698
187.554
0.0137889
0.0187469
18.7885
84.0046
2.34687
1.84576
2.31211
1.81826
12.1288
11.2956
18.8297
11.2189
227.811
226.243
-58.7217
-46.271
80.6138
113.103
610.989
794.152
1074.02
1311.58
7.95643
8.38475
8.36048
8.99905
1.41465
1.39177
1.4718
1.50555
11.7889
9.03637
1550.06
1537.23
1536.4
1463.5
325.548
240.525
17.7025
16.5625
25.8042
23.5415
35.1417
39.4247
4.8659
2.94148
10.8569
10.9427
408.27
188.839
8.90184
6.52419
12.6041
12.7005
1.13599
1.12142
237.08
228.851
233.891
153.784
58.7421
134.636
15.1586
8.98656
887.39
650.567
611.067
390.221
874.9
259.472
60.7372
79.1307
163.863
57.923
206.244
201.063
35.3044
62.6985
1.42195
1.66011
7.63784
7.50371
6.18871
6.41892
197.112
-24.0167
68.5809
45.0592
134.522
90.654
-56.2741
-56.9755
116.748
19.2308
245.73
531.207
157.269
111.441
90.792
81.1392
16.8884
22.0268
97.8959
106.577
2243.19
2525.3
39.5168
50.7676
8.88317
7.2492
5.5949
5.72125
16.0557
13.5117
95.3358
34.7711
9.02608
9.09699
65.1754
54.783
70.3343
78.6915
2838.88
2855.8
2856.42
2857.76
2860.43
13.6914
18.1697
1128.63
320.799
379.594
1575.69
-25.7257
-0.232275
13.6884
12.5421
9.34012
9.35179
410.299
456.338
12.3252
12.0858
0.687697
0.61541
161.002
90.7438
-22.6329
-12.026
33.9367
36.5932
32.7796
25.6985
-32.6307
-91.594
139.756
146.607
-96.3439
-105.065
74.6899
70.173
41.5908
26.1702
18.9801
22.2687
9.1527
8.93945
7.46085
11.3262
8.73941
0.442257
0.246183
0.244086
0.28102
0.02652
0.0259195
78.5293
71.982
1.95928
1.78059
6.12179
6.17928
6.20518
6.18199
9.47589
9.29262
212.315
227.651
16.9396
11.7198
-98.7027
-96.7296
5.06645
-18.5063
-39.5839
-47.8546
447.569
346.878
0.542286
0.528974
25.0422
25.9651
6.48394
6.50475
136.082
88.5996
167.536
77.7433
29.5634
20.6368
0.721532
0.757935
-82.7929
-60.7813
-93.3928
-92.9292
41.6795
26.0116
7.57583
6.60127
10.2974
10.3291
-28.1547
-42.9096
-6.6966
-36.0863
2.49268
4.22933
-3.78467
-3.96883
7.19821
7.44508
-88.253
-90.2883
746.559
713.786
8.0784
8.42117
-108.374
-108.924
27.8623
26.9997
1787.31
2075.37
7.22987
7.55698
0.575977
0.984587
8.49015
8.82561
84.2537
79.642
-94.8969
-95.8168
1222.31
1205.12
17.8893
24.0807
4.47603
5.06138
4.10671
3.83767
2113.91
2020.73
11.791
9.78213
203.812
537.365
150.773
42.7628
279.811
211.918
439.833
442.511
-112.349
-113.123
110.841
44.0544
574.985
553.032
845.374
1296.87
25.6868
21.1102
2.00486
2.21578
7.42862
7.49079
265.25
165.138
71.1554
113.071
6.36833
6.47792
33.2993
41.2417
10.1255
9.22694
1081.99
1019.22
27.8561
63.2844
0.52127
0.908553
3.91323
4.09904
29.9709
52.9538
37.8333
3.03789
3.04304
3.04205
3.05617
2.60777
2.41797
15.9442
9.62487
-5.68656
85.9282
-69.4647
-48.9442
7.40029
7.67551
3.68787
3.91429
7.00956
7.12379
1966.35
2066.61
24.1118
22.6222
6.00229
9.64703
439.427
1211.35
3.8879
3.66474
246.042
448.908
235.701
213.701
60.5845
47.5365
49.4163
71.4783
5.54795
21.2964
429.173
286.952
29.9901
29.5185
29.7579
29.8213
7.66197
7.48551
7.32308
7.37974
31.0034
31.4514
39.6603
58.6362
6.00594
8.49104
8.38192
8.83509
92.1746
99.2115
262.609
123.668
4.51458
7.05309
31.285
36.0607
95.8593
98.9252