/*--------------------------------*- C++ -*----------------------------------*\
| =========                 |                                                 |
| \\      /  F ield         | OpenFOAM: The Open Source CFD Toolbox           |
|  \\    /   O peration     | Version:  v2012                                 |
|   \\  /    A nd           | Website:  www.openfoam.com                      |
|    \\/     M anipulation  |                                                 |
\*---------------------------------------------------------------------------*/
FoamFile
{
    version     2.0;
    format      ascii;
    class       surfaceScalarField;
    location    "0.55";
    object      alphaPhi0.water;
}
// * * * * * * * * * * * * * * * * * * * * * * * * * * * * * * * * * * * * * //

dimensions      [0 3 -1 0 0 0 0];
oriented        oriented;


internalField   nonuniform List<scalar> 
13152
(
9.72006e-07
2.02725e-05
-1.60526e-06
-1.96393e-05
1.86932e-05
-1.7117e-05
-6.04245e-07
-3.47562e-06
4.24414e-05
-3.46548e-05
3.54118e-05
-2.36225e-06
2.12096e-05
-7.55037e-05
2.85211e-05
-2.44285e-05
6.04573e-05
-1.61105e-05
-2.95629e-05
-2.84221e-05
7.40955e-05
3.87147e-07
-1.67971e-05
2.99432e-07
-2.99102e-05
7.3442e-07
7.85134e-06
5.16025e-06
-2.98087e-05
7.82351e-06
3.27262e-07
-5.07865e-06
-1.55199e-05
-2.98286e-05
-8.65046e-06
-1.46312e-05
-5.13665e-06
2.84183e-05
-7.24637e-08
-8.66562e-06
8.762e-08
-1.41564e-05
-5.47241e-07
5.65964e-06
-3.057e-05
1.62448e-05
-2.93476e-05
2.98706e-05
2.9369e-05
-5.25811e-07
3.55887e-08
-1.52282e-05
-2.99045e-05
1.11501e-07
-7.49414e-05
3.26474e-07
1.60059e-05
3.02316e-05
-3.45183e-08
7.46558e-05
3.58051e-05
1.26673e-05
2.53896e-05
-7.3862e-05
3.50399e-07
-6.97128e-07
3.61518e-05
1.24134e-05
2.63939e-07
-1.87639e-05
7.36187e-05
7.78453e-05
2.91376e-05
-7.325e-07
-2.93791e-05
9.74016e-07
-1.63941e-05
-2.68837e-05
7.24154e-05
1.79043e-07
-1.73056e-05
-8.07372e-06
8.00523e-06
2.47538e-07
5.29682e-06
-3.06762e-05
-4.96083e-06
-1.39176e-05
-2.90432e-05
-1.37998e-05
1.29755e-07
2.91427e-05
2.29306e-07
4.71746e-05
3.43376e-07
-2.61873e-05
-2.11028e-05
-3.15809e-05
-1.56531e-07
8.09648e-05
-1.39367e-05
-1.56041e-05
-5.88225e-05
-3.25583e-05
9.12725e-05
-7.01959e-06
-7.78432e-05
8.46216e-06
-4.07914e-06
-1.85154e-05
1.94429e-06
-9.22427e-06
-1.65313e-05
-1.43332e-05
-2.80256e-05
-2.97001e-13
1.49784e-12
-1.75093e-14
-7.35267e-13
2.17024e-12
-3.87924e-13
-1.79706e-12
-4.6259e-14
-2.26365e-12
5.22596e-13
1.18907e-12
-1.86456e-12
1.48427e-12
-8.92508e-13
-5.77354e-12
7.45931e-12
-7.66548e-12
-2.55583e-13
-8.61553e-13
-7.97154e-14
1.31346e-12
-5.33983e-13
-3.47542e-13
7.81418e-13
-7.74054e-13
-7.73085e-14
4.20091e-13
9.09853e-13
-1.20093e-12
5.96789e-13
-1.45445e-13
-3.83339e-13
9.34171e-13
2.43846e-13
1.8509e-15
9.33538e-15
3.51721e-14
-4.59017e-14
2.93108e-15
8.11904e-16
-1.86897e-15
1.12054e-14
1.27247e-14
4.26449e-16
8.41929e-16
-5.45153e-16
1.8112e-15
3.37168e-14
3.08873e-16
2.58429e-14
1.48113e-14
-4.74179e-08
-2.37297e-08
2.91672e-09
7.45602e-08
6.98913e-09
1.65872e-08
-6.08892e-08
2.34937e-09
-8.69424e-09
2.79979e-08
6.74393e-09
-2.85036e-08
-7.84697e-09
4.37e-08
-1.40969e-08
1.61284e-08
-9.27029e-09
6.0309e-09
-1.748e-08
-7.41069e-09
7.51878e-09
-9.88212e-08
2.95244e-08
5.80633e-08
1.26706e-08
-9.44971e-08
2.91702e-08
-2.33384e-09
-2.43579e-08
-7.44572e-09
3.5629e-08
-1.43915e-08
2.81513e-08
-2.28538e-10
-2.17853e-07
1.09735e-07
3.825e-07
-3.07131e-07
5.12481e-07
5.10821e-07
-2.4966e-06
2.84803e-07
2.51326e-07
1.84591e-07
-4.39068e-07
5.88418e-06
-4.07279e-07
2.84866e-06
-5.99646e-07
6.3978e-07
-6.55822e-07
-1.19321e-05
-9.4575e-06
-6.86976e-06
2.8064e-05
8.41418e-06
-1.07536e-05
-1.13426e-05
-8.75766e-06
8.55145e-06
-2.41546e-06
1.96678e-05
-2.93274e-05
9.79772e-06
-2.43565e-05
1.4742e-05
-1.30628e-05
2.81614e-05
1.01451e-05
-2.69389e-08
-1.15001e-05
-7.14586e-08
-1.91485e-05
-7.36518e-06
3.49579e-05
-1.55045e-06
-2.54058e-05
-5.23764e-06
-3.71101e-05
3.63979e-05
-4.06187e-05
2.27987e-05
-3.53203e-05
-8.09364e-06
-9.88721e-05
1.98056e-05
1.74445e-05
3.42902e-05
-7.14825e-05
-1.77661e-06
9.05113e-06
1.2609e-05
6.62403e-06
9.13656e-06
1.47976e-05
2.17231e-05
-1.30931e-06
2.21853e-05
1.96079e-05
3.48714e-14
1.18805e-13
2.66481e-13
-2.16793e-17
1.22106e-14
9.47079e-15
1.27328e-14
9.86535e-15
6.1852e-14
5.87298e-16
5.29119e-15
3.07961e-15
1.34949e-15
1.17266e-14
-8.0302e-13
5.86364e-13
-1.63841e-12
2.11599e-05
1.03415e-07
-2.34359e-05
-1.27146e-07
-2.54492e-05
-2.70482e-05
7.25881e-05
-3.41179e-07
-2.52664e-05
-2.83643e-05
2.82349e-05
-3.40722e-07
2.51244e-05
-7.91449e-05
-1.78964e-06
2.97634e-06
-1.0893e-07
-2.06695e-123
-2.40948e-144
-2.51861e-112
-4.85349e-112
-1.54185e-144
8.47208e-123
1.25459e-122
1.77177e-144
7.06532e-144
-2.58662e-46
-2.03884e-47
1.45045e-46
-2.11953e-47
-2.81138e-46
1.0951e-45
6.67929e-47
1.0739e-45
-6.57206e-06
-7.75939e-06
7.3279e-06
6.18134e-06
-5.61527e-06
1.67779e-05
-1.77296e-05
1.18924e-05
-2.52919e-05
3.98519e-06
-1.85942e-05
2.19378e-05
-1.04848e-05
2.06509e-05
-1.61323e-05
2.24308e-05
-2.28407e-05
1.50944e-06
6.68742e-07
2.94405e-06
-2.62328e-06
-1.23436e-06
3.73823e-06
2.89176e-06
5.2019e-06
-3.10387e-06
7.99587e-08
-4.86623e-06
2.36595e-05
-4.54793e-06
1.67692e-05
-2.28045e-06
6.91925e-06
-2.86547e-06
-1.15826e-07
-3.39513e-09
-1.87998e-09
1.211e-07
-4.0593e-10
3.52207e-08
-2.22245e-08
-5.0738e-09
1.26981e-09
-5.24463e-08
2.39582e-08
5.21449e-07
-8.15514e-10
-7.39712e-08
7.60816e-09
-1.34994e-08
2.96845e-08
7.87042e-07
2.25578e-07
-6.60872e-07
-1.19354e-06
-2.9555e-07
-2.46426e-07
6.37496e-07
9.56957e-09
-4.35712e-07
1.64536e-07
-2.28248e-07
-5.05317e-07
-5.82512e-08
-7.78272e-08
-4.19727e-07
2.43299e-07
-1.50689e-08
-1.1118e-09
-2.31138e-06
-2.16406e-08
1.59795e-07
-9.75639e-07
1.05041e-07
-3.78939e-09
-1.34524e-07
-1.95048e-09
-8.88829e-08
-1.83821e-08
1.06046e-07
-5.12338e-08
-6.06082e-08
8.28317e-08
4.1977e-08
8.14802e-08
-4.95191e-08
6.16423e-09
-9.29831e-08
-2.1224e-08
1.45713e-12
-5.594e-13
-2.3435e-10
2.33094e-10
-1.40035e-12
-2.14118e-11
2.30985e-11
-2.63096e-13
-2.03146e-12
-3.74049e-11
-1.4882e-09
1.27966e-09
-2.89759e-11
-2.40977e-11
8.78479e-13
6.09922e-13
-1.83937e-12
-1.62336e-11
-5.7344e-13
-2.2464e-10
1.75761e-10
-1.71242e-09
1.63331e-13
6.34941e-14
1.00007e-14
-5.67364e-13
-2.10272e-14
6.38708e-14
6.57369e-14
1.27692e-14
4.0661e-15
2.29413e-14
6.55892e-15
-1.57439e-14
5.58826e-15
6.79197e-14
5.33609e-15
4.47807e-15
3.32173e-16
-2.17209e-14
5.47362e-14
5.86613e-16
-1.26844e-14
7.85902e-15
-9.09142e-15
3.30036e-14
-9.20478e-14
2.64892e-14
3.12332e-14
-4.79419e-14
-3.10579e-14
-2.07373e-13
2.46347e-13
2.80027e-14
1.25092e-13
-1.74928e-13
8.84929e-14
1.496e-13
-1.94697e-13
1.40995e-13
7.79107e-18
-4.97806e-17
-1.19561e-17
1.28273e-17
-1.54988e-16
4.76227e-17
9.45966e-17
4.91513e-17
-5.83373e-16
4.36971e-17
-3.43803e-17
-1.30889e-17
-1.78115e-16
2.43608e-16
5.46163e-17
-2.09369e-16
7.18232e-17
-2.29075e-16
-1.9476e-18
1.89274e-16
2.54414e-17
2.23728e-16
-7.00524e-16
-1.00176e-16
2.20963e-16
5.03297e-19
-1.5983e-15
-5.33642e-17
9.55255e-15
-3.01739e-14
9.86151e-16
2.69647e-15
4.86503e-16
5.92462e-31
5.19235e-31
6.97188e-31
-1.44541e-30
-1.27231e-25
9.66799e-26
1.23781e-26
4.01442e-23
-4.02714e-23
-4.18498e-22
-1.03359e-23
4.64357e-22
-2.69965e-22
-1.89676e-22
1.08756e-23
-2.80841e-22
6.24034e-25
7.88297e-14
1.87227e-14
-1.24697e-13
-2.39846e-14
-9.52665e-14
-6.42928e-14
2.00021e-13
-1.51328e-13
4.56989e-14
1.7272e-13
8.92339e-14
-3.46245e-13
2.18134e-13
-1.1127e-13
-1.6704e-13
2.37972e-13
-2.07874e-13
1.5623e-13
7.22693e-14
-8.15734e-14
-1.34422e-13
-7.95668e-14
-3.74158e-14
-1.15364e-13
4.27558e-14
-4.20118e-14
-6.13276e-14
5.87575e-14
-1.64411e-14
-1.14714e-13
2.21279e-13
-3.21449e-13
1.47032e-13
-3.00049e-13
-1.60334e-13
1.16924e-13
1.39525e-13
8.4495e-14
3.73951e-13
-1.25763e-12
1.40279e-13
-8.29131e-13
-6.27545e-14
-1.37338e-13
2.09159e-13
-3.90871e-13
2.76696e-13
-1.01524e-12
2.65974e-13
-1.72001e-13
-1.46072e-12
9.50762e-13
6.73344e-13
-9.59164e-13
1.69199e-13
7.91665e-13
1.41201e-12
-3.85019e-12
7.79903e-13
-9.0438e-13
2.85007e-13
-5.51276e-13
2.10564e-12
2.72201e-13
2.26359e-13
6.62962e-13
-1.15601e-08
3.52592e-09
5.30138e-09
-9.30546e-10
5.818e-08
-7.37083e-09
2.50706e-09
5.63001e-08
-8.99683e-09
9.18495e-10
9.64677e-09
-1.18387e-08
-5.74456e-12
-7.13627e-09
-2.95255e-09
9.17022e-09
-8.40407e-09
-1.18797e-08
2.02728e-08
-4.6147e-08
1.63624e-08
-6.20112e-08
-3.07121e-08
2.00699e-07
1.82387e-07
-1.05971e-07
2.33725e-07
5.21328e-08
-1.24657e-08
3.60846e-07
-5.14596e-07
-2.41498e-07
7.74353e-07
3.60375e-07
-2.08698e-07
1.03599e-07
1.05153e-06
6.51399e-07
-3.59007e-07
-9.73114e-09
-1.0385e-06
-2.98734e-07
3.05601e-06
-5.59968e-07
1.16755e-06
1.27223e-06
6.58912e-08
-1.72734e-06
8.8007e-07
2.08146e-06
-8.41731e-07
1.40111e-06
-1.35975e-06
-4.75093e-06
3.23701e-06
3.74885e-06
-2.23404e-06
1.10255e-05
9.05063e-08
-1.58663e-05
3.27794e-06
1.09879e-05
-3.23507e-06
6.04718e-06
7.26581e-07
6.07113e-06
-9.2158e-06
1.27401e-05
-7.75102e-06
5.34951e-06
-1.4486e-05
3.95573e-05
3.54263e-06
-4.86692e-06
-4.72608e-06
-4.05202e-06
-3.78942e-07
6.28846e-06
-2.2468e-06
1.39529e-05
-3.28972e-07
-1.8457e-05
-1.97085e-06
1.33488e-05
4.75744e-06
1.17227e-05
-1.66893e-05
2.62252e-05
-1.5055e-05
2.75706e-05
-1.77911e-05
6.8297e-05
-4.2375e-05
-1.27217e-05
-2.52428e-05
6.95665e-05
3.38495e-07
-1.54284e-05
-6.89752e-08
-3.65164e-06
1.07691e-06
6.65634e-06
8.45318e-06
-2.75204e-05
1.00635e-05
1.51109e-06
5.44432e-05
-2.36299e-05
-3.24839e-05
-3.47958e-05
7.66173e-05
3.83645e-06
-2.40096e-05
-1.40424e-05
1.10367e-05
5.76143e-06
-3.42024e-05
-5.92134e-06
-1.72785e-05
9.40947e-07
3.8746e-05
-3.06236e-05
-1.01072e-05
2.03174e-05
-2.0185e-05
9.32988e-07
-3.49728e-05
9.41554e-05
7.98198e-06
3.23781e-06
-3.13693e-05
9.23447e-06
-2.92738e-07
-6.58403e-06
-1.91187e-05
-3.39331e-05
1.35846e-07
4.33779e-08
3.48191e-07
-6.41005e-07
6.53492e-08
1.15964e-07
-5.20986e-07
1.57053e-07
2.04866e-07
-1.21054e-07
2.38048e-07
7.22862e-08
1.2738e-06
-2.03584e-06
1.49619e-07
1.59508e-06
7.99153e-07
1.81155e-06
-2.85398e-11
-4.87613e-06
-3.65758e-07
-3.35447e-09
-3.54316e-07
1.97659e-06
-2.37423e-09
-1.30294e-09
3.97569e-07
-3.53378e-08
-5.49688e-06
-7.38695e-09
5.64004e-08
4.77138e-10
2.68486e-09
-5.8919e-09
7.15596e-09
-2.60491e-10
-5.60361e-10
1.73849e-09
-3.32803e-08
-1.00402e-08
3.46886e-08
-3.47317e-09
1.99779e-08
3.65871e-08
-1.96904e-08
-2.94196e-08
-3.75541e-09
9.4672e-08
2.99509e-08
-9.27927e-09
-2.70617e-08
3.55839e-09
4.4456e-08
2.58256e-08
-5.00195e-08
2.3684e-08
-1.07663e-05
-1.47107e-05
-1.36785e-05
3.97299e-05
5.36639e-06
-2.55224e-06
-1.70119e-05
-3.74625e-05
2.65987e-05
-1.11941e-05
2.19515e-05
-1.59525e-05
2.13437e-05
-4.94196e-05
3.66635e-05
-5.26657e-05
4.37268e-05
5.80711e-09
-2.40359e-05
1.34438e-05
1.01024e-05
-1.08815e-05
6.36947e-06
3.9657e-07
4.55232e-06
-1.32853e-05
-6.87824e-06
1.79266e-05
-1.4809e-05
7.64216e-07
-2.5264e-05
-1.07721e-05
2.88167e-05
-8.44709e-06
-3.22084e-05
6.69906e-06
-1.09191e-05
3.73914e-06
2.44834e-05
1.81286e-05
3.81768e-06
-4.65533e-05
1.69218e-06
1.95589e-05
-1.81187e-06
7.12385e-06
7.97881e-06
1.04593e-05
7.80614e-06
-1.43793e-05
5.43423e-06
1.90295e-05
-3.79012e-06
-1.69649e-05
1.52196e-05
-9.31064e-06
9.08534e-06
-4.72244e-07
-5.43809e-06
-1.20821e-05
3.48347e-06
2.00061e-06
-3.73454e-06
-1.83388e-06
-6.84402e-06
-1.97888e-06
1.23698e-05
9.0543e-07
-5.68643e-06
-1.48563e-06
-1.20688e-05
1.16114e-05
-1.03701e-05
5.18501e-06
-1.06918e-05
-1.05452e-06
-2.66903e-05
-4.33019e-06
-5.6162e-07
5.72491e-06
8.27025e-07
-4.90557e-06
7.33931e-07
-1.96263e-06
1.01214e-05
-2.79476e-05
-3.90547e-06
-3.03447e-06
-1.86177e-06
4.1987e-07
4.88067e-06
-1.18952e-05
5.50622e-06
7.05938e-06
-3.13523e-06
-3.8887e-06
-1.42142e-06
7.97413e-06
2.45881e-07
-4.19819e-06
1.10253e-07
-5.38021e-07
3.56059e-07
1.83261e-06
1.52734e-06
-5.68354e-06
3.0831e-06
-6.41408e-07
2.83576e-06
-5.97782e-06
4.0648e-06
-2.42074e-05
-9.33944e-06
-7.90437e-07
3.3773e-05
4.46624e-06
-4.21096e-06
-2.50562e-05
-4.08691e-06
9.12467e-07
3.18341e-06
1.19745e-06
-8.99534e-06
2.97328e-06
-7.38324e-06
4.07592e-06
-7.59149e-06
5.80233e-06
1.9359e-08
1.49099e-08
1.45004e-08
-5.82795e-08
1.49022e-09
1.63103e-08
-7.60104e-10
-2.04009e-09
1.65747e-08
-5.65371e-09
4.22908e-08
1.78346e-08
3.34038e-09
-9.81353e-09
-1.98588e-09
1.1143e-08
3.86721e-08
2.74893e-09
-1.41129e-09
6.9778e-10
-5.54781e-12
2.59746e-08
1.19436e-08
-5.53651e-09
-1.97294e-08
8.07717e-09
-2.98082e-08
-1.43453e-08
4.83996e-08
-3.69188e-09
-1.37134e-08
-6.16249e-09
1.57098e-08
-1.03914e-08
1.34877e-08
-4.08825e-08
5.63418e-09
-1.526e-08
-5.77463e-09
-2.13035e-07
1.87221e-07
-6.51091e-07
1.00262e-06
4.53453e-07
-1.66382e-07
-5.45156e-07
-3.89633e-07
1.35219e-06
1.94153e-07
9.25752e-08
-4.12741e-07
1.00766e-06
-1.334e-06
5.07833e-09
9.29718e-08
5.79421e-09
1.45465e-07
4.21661e-07
-1.93821e-09
-2.24316e-07
-5.24434e-07
1.30851e-06
8.44749e-08
-8.11005e-07
-2.50932e-08
-4.64631e-06
-5.66459e-07
6.56113e-06
-4.09232e-06
5.08007e-07
3.26828e-07
2.47471e-06
-2.45703e-06
6.0085e-07
-3.70959e-08
2.36658e-08
1.79176e-09
4.55415e-07
1.23342e-06
-3.97427e-05
-1.59399e-06
4.01327e-05
-4.11e-05
3.88892e-05
3.45915e-06
3.76159e-05
-0.000118436
4.31671e-05
-3.92118e-05
-5.31183e-06
-3.86311e-05
0.000121968
-2.82911e-06
3.10354e-06
-4.41003e-06
-3.01761e-09
9.42128e-10
-1.13544e-09
1.79137e-09
2.33463e-09
1.82512e-10
-8.18148e-09
1.36467e-09
1.27591e-09
1.04121e-09
-3.00863e-09
-4.6116e-10
-7.51634e-10
2.28841e-09
1.91897e-10
-4.49439e-09
2.71832e-10
-1.52251e-10
3.8056e-11
1.72029e-10
-5.22824e-11
1.05968e-10
1.6198e-10
-6.63985e-10
7.01297e-11
4.07889e-11
-2.18162e-12
3.69139e-11
4.43428e-11
2.97133e-11
5.53913e-12
3.61725e-13
7.28307e-11
6.00631e-11
6.62469e-10
-3.27302e-10
-7.51862e-10
6.88962e-10
-1.55294e-09
1.16579e-10
4.37729e-09
1.94749e-10
-2.26214e-09
7.12588e-09
-3.71421e-10
-1.97993e-08
2.58224e-10
7.6176e-09
-3.25694e-09
8.34817e-09
-3.57552e-09
-1.50685e-06
-3.15133e-06
-1.48008e-05
6.46011e-06
-3.73072e-06
-1.37891e-05
1.02534e-05
-7.18543e-06
-1.06866e-05
-9.02223e-07
-7.80299e-06
-6.04292e-06
-6.65201e-06
-7.8978e-06
-2.68335e-06
1.58353e-05
-2.45397e-05
1.82711e-05
-2.94503e-05
-3.31548e-08
1.05872e-05
1.04652e-05
-2.20928e-07
-8.75593e-07
-1.28695e-06
1.94806e-06
-6.66789e-07
-1.29599e-06
1.45277e-06
-1.70882e-06
-4.11714e-07
5.06094e-08
2.50505e-06
-1.0992e-05
1.26872e-06
-4.26425e-06
-1.91197e-07
7.6394e-07
-4.99052e-07
-1.24793e-07
7.11446e-07
-2.74428e-07
2.68731e-07
9.48677e-07
7.51852e-07
-1.83755e-06
1.69893e-07
3.52346e-06
3.60416e-09
-2.32188e-07
-4.71554e-08
3.10996e-07
-3.69504e-07
2.16391e-07
3.00903e-07
6.94317e-07
9.44671e-07
5.1364e-07
-1.47658e-06
-5.68177e-07
-9.40454e-08
-5.94925e-07
4.154e-07
-1.13199e-06
9.69211e-07
2.12858e-06
-1.04775e-07
2.49124e-06
-6.60449e-07
-4.44416e-06
8.47642e-06
-2.06273e-06
-1.29361e-07
2.02358e-08
1.14172e-07
-6.28936e-09
1.56876e-07
7.54507e-08
-3.62753e-07
-5.76609e-07
9.7617e-07
8.82198e-09
3.66556e-08
6.84307e-08
-1.24955e-07
1.27133e-07
1.49854e-08
-8.20564e-08
-4.04138e-07
-5.63209e-08
-2.66114e-07
-1.70231e-07
4.18473e-07
-2.73732e-07
-1.80242e-07
3.34307e-07
-6.88215e-08
-5.76897e-08
-2.4671e-07
-4.26817e-07
5.11456e-07
-7.19172e-07
3.00245e-07
5.92105e-07
-3.96982e-08
6.64996e-08
-1.2048e-07
2.42853e-07
9.44577e-08
-9.57047e-08
-2.22125e-07
9.63449e-07
-2.05498e-07
4.36777e-07
1.84305e-06
-9.4177e-11
-2.07663e-10
-1.5057e-10
4.70499e-10
-2.32679e-10
-9.03062e-10
1.07211e-09
-7.02382e-11
-2.95761e-10
1.67546e-09
-2.30489e-09
-6.3916e-12
-9.84819e-10
2.51732e-09
-5.09047e-10
-5.19263e-10
-1.36887e-09
6.78887e-08
1.46304e-07
-2.01186e-07
-4.01304e-09
-3.90132e-08
-7.56817e-09
9.67019e-08
-8.2692e-10
9.27914e-08
-1.59737e-09
6.17754e-08
-2.54661e-07
1.44772e-09
-6.42305e-09
-9.13571e-10
5.13597e-08
-3.25696e-08
-1.66905e-08
1.11618e-07
3.41779e-08
-1.33883e-09
8.38203e-10
6.90746e-10
-3.54891e-11
3.23015e-09
-3.45549e-11
-4.15726e-09
6.0423e-10
3.69232e-09
-4.47175e-11
1.3996e-10
7.11143e-10
-1.15286e-11
-6.08011e-11
-1.52804e-11
6.60832e-11
1.70366e-10
-6.01255e-12
-1.79825e-11
8.65757e-11
-1.1403e-10
4.81648e-10
-2.59145e-10
-4.30258e-11
-1.29288e-11
-1.04664e-11
3.60463e-11
-2.46865e-11
-2.66768e-11
-7.73196e-12
-1.15108e-10
-4.75898e-11
-2.87684e-11
-2.42359e-11
3.11124e-11
-5.5054e-13
-5.36962e-11
-7.10625e-11
7.76478e-12
1.50687e-11
-1.05991e-11
-1.09919e-11
2.06694e-11
-1.0247e-11
8.32109e-12
-2.16793e-11
-1.05072e-11
-1.19443e-11
-5.87694e-12
6.71659e-12
-1.63548e-11
-2.06901e-12
1.0357e-11
-4.18452e-11
-4.7823e-12
1.84787e-11
-7.22982e-11
-2.62252e-11
7.09178e-11
-1.13859e-10
8.82629e-11
3.84151e-11
-3.7767e-11
-1.46354e-10
1.41364e-10
-9.66871e-11
-6.46495e-11
1.55336e-11
1.81811e-10
5.782e-11
-1.37763e-11
-1.40199e-10
-2.01842e-11
9.4111e-11
-4.70923e-11
1.14736e-10
-9.81043e-11
-1.34135e-11
-5.17359e-12
1.14386e-12
1.84892e-11
1.7672e-12
-2.82896e-12
-1.07829e-11
-2.96371e-12
1.66107e-12
6.89359e-12
-5.53007e-12
-5.37539e-12
1.27825e-12
6.81521e-12
1.36858e-11
-2.38579e-11
1.67304e-11
3.07543e-12
2.99367e-12
-8.21849e-13
-4.34881e-13
-1.3738e-12
-4.33348e-12
6.53463e-12
-1.40642e-11
1.35278e-12
5.25233e-12
-5.10582e-12
6.2198e-12
-9.18427e-13
-1.12736e-11
1.28659e-11
-1.76632e-11
9.77411e-12
2.30288e-11
-3.17611e-11
1.16828e-12
1.07455e-11
-3.05163e-12
6.01707e-12
1.64464e-12
3.54713e-11
1.21005e-11
-2.46755e-12
-1.02008e-11
4.5138e-12
1.51634e-11
5.71668e-13
8.04254e-12
-3.16875e-11
-1.09227e-08
-1.55894e-09
7.17231e-09
3.75061e-09
1.33276e-08
-8.05069e-08
-2.83778e-11
-8.84337e-10
1.344e-08
1.74917e-08
-1.23755e-11
-3.56405e-12
9.37587e-12
1.33149e-11
3.3914e-11
3.97572e-11
-7.50355e-11
-3.61496e-13
4.03936e-11
4.27559e-11
-3.81631e-11
-1.02757e-13
-1.72385e-11
9.3452e-11
9.56238e-12
5.36868e-12
1.83466e-12
-1.01817e-13
-6.2596e-14
4.83033e-14
1.24234e-13
4.11568e-14
1.0561e-15
-1.37953e-13
1.17589e-13
-3.32849e-14
-1.1835e-13
-1.19951e-14
2.52626e-13
-5.71909e-14
-2.18965e-13
9.09556e-14
-1.40721e-13
1.33163e-13
1.7274e-15
-1.51111e-15
-2.38979e-15
2.4892e-15
-4.78014e-15
-4.81887e-15
1.16239e-14
-2.52952e-15
-3.24836e-15
3.45436e-15
1.1228e-15
-6.85975e-15
7.20194e-14
-7.14594e-14
-7.44108e-15
7.4651e-14
-8.59715e-15
-1.59251e-10
-1.09602e-09
1.54202e-10
1.1889e-09
-4.11408e-10
2.49125e-10
1.4055e-12
-3.61096e-11
-1.20871e-09
-1.39531e-10
-2.68663e-11
3.17976e-10
-2.79175e-12
-1.21888e-10
1.29762e-10
-2.33689e-10
1.91097e-10
3.78712e-08
1.43207e-09
-5.48047e-07
6.56979e-07
-3.00211e-09
3.53853e-08
1.80233e-08
-3.20154e-10
-1.40539e-09
2.86825e-06
-1.34779e-06
-2.02702e-06
1.34803e-07
3.21987e-06
5.56544e-07
-7.26261e-09
-1.49639e-06
-3.24411e-08
7.69089e-07
-4.21806e-10
3.77116e-09
-8.04906e-09
2.15885e-07
2.97745e-07
9.50299e-07
-1.45164e-06
3.5567e-07
7.11073e-07
-1.14696e-06
4.15124e-07
2.54144e-07
9.70583e-07
2.191e-06
-1.43992e-06
1.17943e-06
1.56549e-06
-9.129e-08
3.25864e-06
1.85925e-06
2.0547e-06
-6.93427e-07
-1.07247e-06
5.35878e-07
-7.20464e-07
-7.17414e-07
2.57342e-06
-2.43311e-06
-2.20137e-06
1.59957e-06
7.41442e-07
-8.1187e-06
1.84766e-06
-9.31895e-06
-1.53795e-06
1.12207e-06
-2.31192e-06
-9.05033e-06
-4.56087e-06
8.23025e-07
1.54749e-05
5.10283e-06
-4.79021e-06
-4.01217e-06
6.45082e-06
-5.34402e-07
-7.03201e-06
-4.21237e-06
1.42825e-05
-5.99813e-08
-9.72189e-06
-1.60759e-06
7.00896e-06
-2.21097e-06
-8.90172e-08
-1.87402e-08
-3.68757e-06
1.63134e-06
-9.70396e-09
-8.92336e-08
-9.01552e-10
-2.09231e-08
-3.35811e-08
-7.98171e-09
-1.56626e-08
-4.7213e-08
1.46346e-06
-1.79098e-06
1.07438e-06
-1.25126e-05
1.35482e-07
3.93512e-06
2.37425e-07
-3.17219e-06
-1.0197e-06
-3.11858e-06
-3.48582e-06
9.97355e-06
-3.15242e-06
2.01032e-07
7.87537e-07
-3.04748e-06
-6.93416e-07
-3.26191e-06
3.63127e-07
3.78659e-06
-9.65542e-06
9.56173e-07
-4.60746e-06
2.7938e-07
6.77002e-06
1.07836e-06
3.02846e-06
8.04033e-07
-7.99704e-06
2.82516e-07
2.05379e-06
6.35307e-06
-8.6399e-06
1.75996e-07
-3.19492e-06
1.02933e-05
6.3945e-06
8.83012e-06
-1.41757e-05
3.29899e-06
9.86867e-06
1.29544e-07
7.99843e-08
2.36733e-07
-2.66903e-05
-1.67086e-05
-6.36889e-06
4.31081e-05
-9.54086e-08
-3.38552e-05
-2.41636e-05
6.08664e-07
8.12552e-06
-4.00448e-06
-2.82731e-05
7.83468e-06
1.33654e-07
9.41779e-06
1.29187e-05
-2.633e-05
2.78978e-05
-1.05387e-05
4.12021e-05
-6.21112e-05
6.27212e-05
-1.57566e-05
-5.98969e-07
1.52634e-05
-2.32033e-07
5.27326e-06
1.31198e-05
-3.44059e-05
-4.30526e-07
1.04084e-05
1.43758e-05
-7.11572e-06
2.22861e-08
-4.63016e-06
3.23508e-05
4.64873e-07
2.17838e-05
-2.03816e-07
1.28434e-05
7.21971e-07
-1.76053e-05
3.8055e-05
-1.23131e-05
-1.08305e-05
-2.27231e-05
6.39896e-05
-5.05127e-06
4.28945e-07
8.31623e-06
2.12882e-06
-1.49279e-05
9.66124e-06
1.61953e-07
1.07059e-05
-2.08341e-05
3.31333e-05
-1.44895e-05
6.27506e-05
-2.6907e-05
-3.79259e-07
2.53998e-05
2.0022e-06
2.23277e-05
2.75562e-05
-1.91077e-07
2.2371e-05
2.775e-05
-1.53313e-07
-1.75246e-05
4.98808e-05
-1.85196e-06
1.57221e-05
2.40115e-05
4.08127e-06
-4.69019e-05
-1.53413e-06
1.53234e-05
1.41051e-06
-1.96453e-05
1.04355e-05
-4.5609e-05
1.46801e-06
4.74614e-06
2.23171e-06
-1.90048e-05
9.82401e-06
2.01898e-05
7.33816e-07
4.9355e-06
2.48943e-06
3.59505e-06
2.30161e-06
3.81278e-06
1.15491e-06
1.45234e-06
1.16175e-05
3.31661e-05
1.38093e-05
3.18931e-05
8.84848e-08
-1.85994e-05
-2.92905e-05
-6.18517e-05
-1.60212e-05
-3.28361e-06
2.10552e-05
-1.48874e-05
1.84054e-05
5.10493e-07
-1.91275e-05
-1.21549e-05
-6.65384e-06
3.69433e-05
1.84412e-07
-1.23707e-05
3.67111e-05
-4.35936e-06
-5.2273e-05
-1.65697e-05
-1.87126e-05
1.92073e-06
-3.57021e-05
-1.83764e-05
-5.39146e-06
1.1046e-05
8.55387e-06
-1.17144e-05
-8.8914e-06
1.38194e-05
1.84649e-05
-4.96654e-06
3.90567e-06
1.23394e-05
3.29988e-06
1.49592e-06
-9.4951e-06
1.08551e-05
4.21221e-06
-8.09228e-06
-7.24375e-06
3.01221e-05
-1.37473e-05
1.07821e-05
-2.2766e-05
1.63598e-05
-2.06338e-06
4.83334e-06
1.04188e-05
-3.93995e-07
8.88724e-06
4.49812e-07
-1.59146e-05
6.52086e-06
-8.11264e-06
-6.30269e-06
2.64922e-05
1.7863e-06
-8.09449e-06
-7.48659e-06
7.28914e-06
2.60383e-06
4.97178e-07
-1.67088e-05
-7.75657e-06
7.85959e-06
-2.33673e-05
-3.58435e-06
-1.06092e-05
2.63945e-06
1.16373e-05
-3.01654e-07
-2.63136e-06
-5.40182e-07
-1.08403e-05
7.002e-07
-5.09995e-06
-4.30025e-06
1.20895e-05
-1.32962e-05
4.7928e-06
2.00671e-05
1.37431e-06
-3.08673e-05
8.21809e-06
2.36536e-06
2.09964e-05
-3.18615e-05
2.90269e-05
-4.94486e-06
-1.00056e-05
6.40692e-08
2.25315e-06
5.58277e-06
-3.13031e-06
-3.37844e-06
1.0547e-06
-8.16131e-06
2.05269e-06
1.18071e-05
-3.84196e-06
-5.36574e-06
6.97108e-06
-1.26768e-05
7.55279e-06
-8.35247e-06
2.50177e-05
-5.64361e-06
8.81907e-06
-1.40698e-06
1.13073e-06
-1.20723e-05
1.07158e-05
-2.2172e-05
1.12361e-05
-5.69621e-06
-6.08785e-06
-1.15928e-06
1.39156e-05
-2.00114e-06
-3.37979e-06
7.11349e-07
-4.58876e-06
3.86848e-06
-1.29746e-05
5.41675e-06
1.03367e-05
7.49628e-06
-2.8866e-05
-2.94891e-05
-6.21695e-06
-1.09908e-05
1.263e-06
5.77233e-06
3.8589e-06
2.013e-07
-4.15783e-06
6.19436e-07
-5.18254e-06
-1.65944e-06
1.15185e-05
2.13316e-06
-7.12303e-06
4.07135e-06
-1.54082e-05
7.18362e-06
-1.24289e-05
1.48384e-05
-1.79285e-05
7.62553e-06
-4.04677e-05
-9.16926e-06
-2.86372e-06
-1.7936e-05
7.51231e-07
-2.29768e-05
1.73162e-05
-3.35971e-06
9.34918e-06
-2.44892e-05
1.97568e-05
-3.22957e-05
-1.33765e-05
1.56965e-05
-1.77979e-05
1.05361e-05
2.73685e-05
-2.94342e-06
-3.83642e-05
7.2328e-06
-9.54664e-06
1.05501e-05
7.76878e-06
2.48811e-05
2.93856e-05
-1.82685e-05
-5.93365e-07
4.1407e-05
-3.15308e-05
3.84997e-05
-5.4941e-05
-7.69565e-06
-1.58258e-05
-1.82553e-05
4.44559e-05
-8.57057e-06
-2.3698e-05
2.69291e-05
-1.48556e-05
-5.60439e-06
1.66268e-05
1.80414e-05
-4.73555e-05
3.98191e-05
-1.77929e-05
2.63732e-05
-3.00347e-05
4.99588e-05
-2.55205e-06
-2.41591e-06
-1.87702e-06
6.8381e-06
-2.56392e-06
4.09722e-08
-3.3669e-08
-3.61927e-06
-1.36971e-06
-3.63328e-06
-5.47044e-08
1.80636e-06
5.37642e-07
-4.13451e-06
2.22994e-06
-6.58677e-06
1.38499e-06
-1.69871e-06
1.30536e-06
-5.56998e-06
3.40617e-06
3.16877e-06
-3.44649e-06
-1.41871e-06
-6.73497e-06
6.44744e-06
-1.11981e-06
9.92773e-06
-1.22527e-05
5.95296e-06
-8.49035e-06
6.26887e-06
-1.23372e-05
8.83122e-06
6.95248e-06
3.27937e-06
-2.89845e-06
-7.33194e-06
-1.36573e-06
-3.43602e-07
8.65641e-06
-2.53783e-07
1.23429e-06
-4.60014e-06
2.47841e-06
6.90195e-07
1.67239e-06
-9.17021e-06
2.55757e-07
1.16363e-06
2.72874e-06
-6.36187e-08
-1.64883e-07
8.80793e-08
6.41774e-08
-6.24314e-08
-2.38904e-08
-1.96493e-07
4.6442e-08
-5.42729e-07
-1.1731e-07
3.62701e-08
-2.13486e-07
-6.09487e-09
-7.2802e-07
-1.40611e-08
-1.26841e-08
5.44976e-08
-2.16968e-08
-7.00412e-09
4.11869e-08
-2.49949e-08
1.09471e-07
2.31338e-10
-1.00929e-08
-1.07475e-08
1.75217e-08
-3.38481e-08
-1.93406e-08
5.07511e-08
-2.10684e-08
-2.52083e-08
-3.61382e-08
2.56479e-08
1.12483e-08
-7.48409e-08
-2.73373e-09
8.24369e-09
9.30564e-09
4.83728e-09
3.04556e-09
4.74409e-10
-1.22333e-08
-6.07755e-09
-3.76243e-07
-6.59266e-07
1.04434e-08
6.51433e-07
6.73134e-07
-4.67938e-08
-3.73121e-06
4.21625e-07
-1.22742e-06
8.78346e-07
-5.61732e-07
3.57594e-08
2.27936e-06
-8.02594e-08
-5.13956e-07
-1.50467e-07
-2.74675e-06
-1.44276e-06
-2.40852e-06
-4.4651e-06
4.42173e-06
-1.17297e-06
1.18349e-06
-2.74134e-06
-1.65144e-05
8.03973e-06
-6.79898e-06
4.81269e-06
2.328e-06
4.83354e-06
-6.73926e-06
1.17877e-05
1.22589e-05
-1.25715e-07
5.59082e-09
1.54553e-07
-4.03832e-08
6.38129e-08
6.45885e-08
-4.23336e-07
-3.07797e-09
4.08759e-08
-1.32072e-08
1.03082e-08
1.58486e-07
2.30465e-08
-3.21265e-09
1.95615e-08
-7.12704e-10
6.57733e-08
2.1355e-07
-5.27691e-08
-4.24462e-09
-5.15325e-07
5.49008e-07
-5.90181e-07
-5.48141e-07
-2.8138e-06
-2.1477e-06
3.44932e-06
-4.34134e-07
-4.69663e-06
2.14354e-06
-8.56456e-06
-1.94563e-06
9.56074e-06
-8.83105e-06
-1.20019e-06
7.61036e-06
-1.02151e-06
-1.12177e-05
4.74523e-06
5.24118e-06
-1.3828e-05
1.43594e-05
-2.3545e-05
-3.24011e-06
5.98167e-06
-1.30339e-05
1.04067e-05
7.57927e-06
-3.5086e-06
-2.83373e-06
-1.0331e-05
2.72309e-05
2.08211e-07
6.44165e-06
-1.03289e-05
8.13404e-06
-4.9609e-06
5.12526e-06
-3.26812e-06
1.31281e-05
-2.01437e-05
9.74228e-07
2.32143e-05
-1.08434e-05
9.29282e-06
9.9632e-06
-5.60977e-05
6.79848e-06
1.62126e-06
-3.7916e-06
7.89603e-06
1.3828e-06
1.21545e-05
-1.65893e-05
-3.11174e-06
1.97696e-05
6.37138e-06
-1.32086e-05
1.4557e-06
-3.4301e-07
1.0516e-05
3.96599e-05
2.02142e-05
-8.4902e-05
2.32964e-05
8.63297e-06
4.38956e-06
-5.38159e-06
3.23148e-07
-2.91151e-06
1.73657e-05
6.35049e-06
8.04768e-06
2.73335e-05
5.97353e-06
1.38921e-05
-1.62897e-05
-3.58101e-06
4.12745e-06
-1.14351e-05
1.19252e-05
-1.63957e-05
3.50781e-05
2.32835e-05
1.70156e-05
-9.08961e-05
2.16164e-05
-7.00401e-06
1.01557e-05
-8.63801e-06
-3.7728e-06
-2.20122e-05
-1.81376e-05
4.80472e-05
6.55963e-07
-4.81405e-07
-3.97366e-06
-1.40505e-05
3.53294e-06
-6.11171e-06
6.47499e-06
-8.60273e-07
3.91614e-06
-1.40151e-05
1.16238e-05
-2.17863e-05
2.11499e-05
1.00339e-05
9.88412e-06
9.85779e-06
8.03082e-06
-3.19522e-05
8.02636e-06
8.85203e-07
-1.80973e-05
5.21358e-05
-2.20067e-05
1.93995e-05
1.79717e-06
5.95875e-07
2.19101e-06
-1.91916e-05
-2.78515e-06
1.58441e-06
4.78751e-06
-9.62293e-06
-3.19966e-05
1.27101e-05
1.80139e-05
8.03067e-06
-4.88031e-05
-6.58999e-06
6.97285e-06
3.76108e-05
4.43174e-05
-4.83749e-07
-8.9178e-07
-2.37112e-07
5.83611e-08
1.78886e-07
1.71427e-07
-5.06929e-07
-2.87533e-08
1.6401e-08
1.08854e-08
1.56503e-07
-4.53978e-07
1.00135e-08
-1.13884e-07
2.37805e-08
-3.35234e-08
2.47413e-08
-1.01664e-07
9.53537e-08
-2.61756e-07
-4.12296e-10
-2.43697e-09
9.46762e-11
5.68921e-11
-4.84058e-11
-3.3107e-10
1.74797e-09
-1.73186e-10
-1.02165e-09
1.68983e-10
4.23817e-09
-1.01302e-10
-1.07702e-09
3.26508e-10
-4.9148e-10
1.20886e-09
1.65981e-11
1.74072e-11
-1.71369e-11
-1.78123e-11
-6.81408e-12
-1.90291e-11
4.19693e-11
-2.53714e-11
3.52318e-11
6.16396e-12
1.52337e-11
-3.94362e-11
4.87991e-11
-6.15884e-11
-2.11321e-11
5.0411e-11
-3.17418e-11
1.59805e-11
-1.61847e-11
-8.64376e-11
-1.05542e-10
-1.11544e-11
-2.44594e-11
2.13705e-11
1.8128e-11
-2.54243e-11
2.65018e-11
-8.64062e-12
9.24784e-12
-5.96043e-11
-2.51653e-11
2.55708e-12
3.90177e-11
-5.35004e-11
-1.10844e-11
2.29472e-11
-5.55679e-11
5.06136e-11
1.51835e-12
7.16308e-13
-6.55293e-13
-4.60317e-13
7.23541e-13
-2.52072e-12
-8.95025e-13
4.31292e-15
-2.33753e-13
2.23324e-12
-6.61961e-13
-4.81057e-13
-7.56814e-13
6.80558e-13
7.41443e-13
-7.90036e-13
-4.85742e-13
-5.19693e-13
-6.69352e-13
-4.69444e-13
-3.99727e-14
-5.61524e-14
-4.13856e-13
5.38043e-14
-2.53795e-13
-1.89883e-12
-6.30433e-16
2.65276e-15
-8.23333e-16
-2.78409e-15
3.62016e-15
-2.61415e-15
-3.7139e-15
-2.64749e-14
-4.3637e-15
-2.73293e-15
8.12614e-16
-9.80477e-16
2.81184e-15
-1.0255e-14
2.33346e-14
-1.11558e-13
1.28834e-14
-4.36224e-14
-1.23207e-13
-2.30334e-14
1.941e-13
7.29952e-15
-4.61669e-14
-1.16676e-14
-1.37421e-13
2.33703e-14
-9.77086e-14
-2.25676e-13
3.0773e-13
-1.04567e-13
-4.15163e-14
2.4342e-13
-4.84068e-13
4.27795e-14
-2.9894e-13
-4.15293e-14
1.15542e-13
4.01036e-13
8.23393e-14
3.84743e-15
-1.68898e-13
-2.32836e-14
9.63976e-14
2.49826e-13
-1.78288e-13
-2.29638e-16
-6.81421e-14
3.23817e-13
-3.17793e-13
5.25924e-13
-3.77997e-13
3.57152e-14
-1.00493e-13
3.09206e-13
-1.75751e-13
3.12452e-13
1.16626e-13
-9.08895e-14
4.31515e-13
-7.35806e-13
-7.15757e-13
8.22508e-13
4.02581e-13
1.7949e-12
-1.6733e-12
-1.8823e-13
-4.40683e-13
1.07887e-12
-4.23234e-13
-2.38432e-13
1.67525e-12
-2.41013e-13
9.25402e-14
4.45869e-14
1.22211e-13
-6.19347e-14
5.121e-14
8.99893e-14
2.38233e-13
-2.83143e-13
9.30378e-14
-1.72207e-13
-1.34592e-13
3.41532e-13
1.49197e-13
-3.16832e-14
3.08613e-15
3.59904e-15
4.58468e-15
1.68503e-14
-7.97009e-14
5.42201e-14
1.74638e-14
2.63668e-14
1.47922e-14
7.84297e-16
9.6622e-16
5.04218e-16
-4.69799e-16
-4.8143e-17
6.20885e-16
5.14711e-18
-4.30422e-17
-1.94521e-17
2.85681e-17
-4.27344e-19
4.63636e-19
-6.06388e-17
-5.1816e-16
4.20441e-16
2.3497e-15
-3.32318e-16
-2.7299e-16
-4.54162e-17
-2.13044e-15
-2.09254e-15
-1.30426e-15
-7.01548e-16
2.06212e-16
4.35185e-17
-6.54109e-16
3.7047e-14
-2.17078e-14
-3.39365e-15
3.08257e-15
-4.62327e-17
8.23821e-15
2.36679e-14
-2.37417e-15
7.32416e-15
-5.16751e-16
-4.63484e-15