/*--------------------------------*- C++ -*----------------------------------*\
| =========                 |                                                 |
| \\      /  F ield         | OpenFOAM: The Open Source CFD Toolbox           |
|  \\    /   O peration     | Version:  v2012                                 |
|   \\  /    A nd           | Website:  www.openfoam.com                      |
|    \\/     M anipulation  |                                                 |
\*---------------------------------------------------------------------------*/
FoamFile
{
    version     2.0;
    format      ascii;
    class       volScalarField;
    location    "0.55";
    object      alpha.water;
}
// * * * * * * * * * * * * * * * * * * * * * * * * * * * * * * * * * * * * * //

dimensions      [0 0 0 0 0 0 0];


internalField   nonuniform List<scalar> 
6576
(
1
1
1
1
1
1
1
1
1
1
1
1
1
1
1
1
1
1
1
1
1
1
1
1
1
1
1
1
1
1
1
1
1
1
1
1
1
1
1
1
1
1
1
0.299982
0.55104
0.744951
0.762713
0.762661
0.732869
0.73266
0.732227
0.761066
3.07991e-08
2.94827e-08
6.09169e-08
3.06176e-08
3.13914e-08
3.24141e-08
6.10314e-08
5.82177e-08
5.82177e-08
5.82177e-08
4.90696e-08
8.41369e-09
9.01995e-09
2.43119e-08
3.06497e-11
2.20507e-11
1.07785e-09
2.18002e-11
2.20507e-11
3.63512e-10
4.78786e-11
0.000898019
0.0024244
0.000558246
0.00154131
0.000550819
0.000524239
0.00120022
0.00144269
0.0031924
0.00281168
0.00224137
0.00144269
0.00152963
0.0008136
0.0176104
0.0337008
0.0178072
0.179662
0.0320542
0.0176034
0.0176376
0.357233
0.816783
0.237305
0.817937
0.815175
0.216735
0.445927
0.695261
0.694111
0.699907
0.610383
0.693241
0.696635
0.699189
0.594543
0.594543
0.594347
0.583128
0.539248
0.538513
4.04069e-08
4.87342e-10
9.3776e-10
4.97282e-10
4.60322e-10
4.76652e-09
8.91913e-07
0.458952
0.910849
0.993463
0.993765
0.990907
0.999583
0.999407
-3.313e-108
1.71409e-118
5.74311e-141
-5.29739e-42
-1.93796e-42
7.32551e-42
0
0.903979
0.93317
0.931091
0.932951
0.933126
0.933362
0.932815
0.171935
0.166169
0.152014
0.425249
0.51415
0.083306
0.0741173
0.000201764
0.00607904
0.000201766
0.000713448
0.00020221
0.000201763
0.000201784
0.0655859
0.0265893
0.0113109
0.0657935
0.00718536
0.011011
0.0509101
0.00604563
0.0370925
0.00220847
0.00300483
0.00221781
0.010574
0.00416624
0.00438235
0.00221563
7.72472e-09
2.03184e-08
7.6367e-09
1.33559e-07
1.04808e-07
6.11393e-09
1.31138e-07
5.25043e-08
7.05608e-09
1.18341e-08
3.67974e-09
1.00963e-09
1.38098e-09
3.21788e-09
6.11836e-10
1.38842e-09
1.40721e-09
8.17057e-10
2.16169e-09
1.907e-09
4.57595e-09
3.881e-09
2.83015e-09
6.26802e-09
5.05336e-09
2.23501e-12
2.23501e-12
7.03e-12
3.86312e-12
4.66787e-12
2.32154e-12
3.86593e-12
1.94501e-13
7.89591e-12
3.48702e-15
3.54258e-11
6.09864e-10
1.56501e-10
1.85409e-11
3.98701e-27
6.19813e-22
4.14195e-27
1.80848e-20
2.85875e-20
2.14713e-27
4.22065e-22
4.55345e-09
4.61485e-09
3.73338e-09
7.61852e-09
9.43711e-09
6.30952e-09
4.62709e-09
9.70705e-09
5.9016e-09
4.72709e-09
3.36121e-09
3.38981e-09
6.25148e-09
5.2903e-09
8.34713e-09
9.74265e-09
1.77755e-08
8.53539e-09
1.09701e-08
2.59907e-08
4.97478e-09
1.45625e-08
1.52007e-08
1.45793e-08
1.45604e-08
1.45479e-08
1.45625e-08
1.45604e-08
8.33733e-05
0.00107384
9.95522e-05
0.000100426
7.73399e-05
0.000193989
0.000250864
0.00115191
0.000255475
0.0229967
0.0124391
0.00251962
0.0168691
0.022127
0.0330523
0.0149541
0.181274
0.181262
0.181043
0.0386252
0.110489
0.0385682
0.0385495
0.92271
0.92271
0.92271
0.912448
0.922454
0.558043
0.878243
0.258882
0.881331
0.844504
0.842946
0.843286
0.844464
0.844244
0.445757
0.664131
0.578767
0.276308
0.320336
0.594411
0.341553
0.301608
0.624536
0.724552
0.446749
0.842706
0.844504
0.771899
0.696449
0.813261
0.813233
0.813261
0.81325
0.813261
0.813233
0.0236854
0.0229471
0.0140973
0.0122141
0.0346573
0.0134567
0.0128883
0.208466
0.0104459
8.73796e-05
0.137583
0.00803566
8.54815e-05
0.000142327
7.98001e-05
8.75063e-05
0.000748515
0.00171372
0.000888966
0.000665442
0.000665604
0.000692031
0.000665442
0.655718
0.27115
0.872752
0.263824
0.921814
0.921639
0.704603
0.432239
0.423181
0.683502
0.531812
0.484318
0.68553
0.686662
0.686182
0.476702
0.730258
0.420652
0.227968
0.726764
0.632608
0.314729
0.214291
0.227998
0.642612
0.897921
0.924866
0.925332
0.925111
0.92501
0.91363
0.925332
0.825139
0.666766
0.82896
0.922699
0.629672
0.169633
0.293955
0.807537
0.886976
0.120865
0.120865
0.150764
0.149026
0.17459
0.120865
0.121
0.587443
0.86546
0.479669
0.133905
0.343926
0.13309
0.129633
0.00577969
0.000490241
0.000738859
0.0028216
0.000266786
0.00115093
0.00026672
0.000266786
0.00191886
0.000791086
0.000794772
0.00204036
0.000886213
0.000791929
0.00120312
0.000787945
0.0452667
0.0147006
0.0264857
0.0139942
0.0697215
0.0139926
0.0536424
0.0131024
0.0285279
0.0302136
0.162483
0.556445
0.0757769
0.0294037
0.00143267
0.00783334
0.975929
0.975905
0.975929
0.892784
0.974858
0.938838
0.975905
5.89871e-05
0.000138744
5.36274e-05
0.000298605
0.000108211
0.000110936
6.44083e-05
1.38132e-05
1.47844e-05
2.02056e-06
5.5564e-06
5.74416e-06
1.94858e-06
1.89467e-06
0.00010333
0.000178109
9.77542e-05
0.000368251
0.000107828
0.00010473
9.50289e-05
0.347204
0.470114
0.309088
0.85977
0.823463
0.748373
0.842807
0.775162
0.860239
0.0300716
0.0299209
0.0299209
0.176522
0.056616
0.0309914
0.0300369
0.176915
0.0711662
0.160453
0.0715823
0.117349
0.0710833
0.071109
0.149823
0.0682481
0.0878819
0.215589
0.213429
0.201356
0.0810819
0.0166374
0.0166374
0.0374841
0.0166469
0.0166374
0.0188388
0.0753191
0.0745581
0.0845583
0.0470704
0.108031
0.107986
0.0467495
0.0935078
0.0263984
0.0753424
0.0572089
0.10803
0.108039
0.108039
7.536e-06
7.536e-06
7.04134e-06
1.43037e-05
6.8285e-06
6.24436e-06
4.3933e-05
0.0095314
0.00774939
0.00551606
0.0092417
1.86995e-05
0.000582785
1.54081e-05
0.00217471
0.000401633
0.000107122
4.89274e-05
4.78193e-05
4.87236e-05
4.74831e-05
1.23006e-06
2.64613e-05
1.21381e-06
1.22655e-06
2.11145e-05
1.10562e-05
1.99643e-05
1.21381e-06
1.58338e-06
1.21069e-06
1.20999e-06
1.24213e-06
1.20545e-06
5.82067e-06
1.93838e-06
2.94908e-06
1.13526e-06
5.5572e-07
3.69892e-06
3.69341e-06
9.48974e-08
1.23192e-06
1.10953e-06
3.17318e-06
3.17145e-06
2.4527e-06
3.18648e-06
3.18627e-06
1.64212e-06
3.18648e-06
1.24722e-07
1.24722e-07
1.19871e-07
3.54864e-07
1.12815e-07
2.42856e-07
1.18542e-07
1.42834e-07
3.13063e-07
4.49468e-07
2.23181e-07
3.80755e-08
3.79401e-07
4.68037e-07
1.90704e-07
1.64012e-07
1.94862e-07
1.5324e-07
2.10885e-07
3.49331e-07
1.64012e-07
9.94433e-05
0.000759498
3.66541e-05
0.000140953
0.000120202
2.46862e-07
4.17837e-07
6.26992e-07
6.26972e-07
4.53282e-07
5.75184e-07
1.57714e-08
1.06911e-09
1.08298e-09
3.73883e-09
1.08087e-09
3.1415e-09
1.04689e-09
1.06496e-09
3.80524e-11
4.63374e-11
4.82614e-11
3.4939e-11
3.65704e-11
3.98681e-11
3.81339e-11
2.01676e-05
1.14895e-05
6.71314e-05
8.03743e-06
1.08182e-05
8.03743e-06
8.01664e-06
0.00265355
0.00163887
2.41363e-05
0.0577506
0.0477828
0.021894
0.0413038
4.29107e-05
2.43531e-05
0.0173203
0.0420166
0.017386
0.0224138
0.0226284
0.0462406
0.0521855
0.0399927
0.11651
0.254494
0.131751
0.402778
0.0801565
0.0247194
0.610177
0.49924
0.610126
0.440504
0.0585662
0.343542
0.0259171
0.0299265
0.0018105
0.00202552
0.00501511
0.00582181
0.374465
0.0219814
0.0908953
0.0958536
0.0933433
0.169691
0.117295
0.169859
0.169999
0.154412
0.0379075
0.274149
0.303167
0.14977
0.0873677
0.0862378
0.0865114
0.0862378
0.377284
0.369161
0.470441
0.53864
0.468431
0.538631
0.538382
0.538631
0.538596
0.437701
0.232284
0.49135
0.445957
0.492716
0.206261
0.22859
0.217492
0.36758
0.53777
0.455855
0.464755
0.462777
0.507106
0.50866
0.480408
0.653093
0.653093
0.653093
0.653093
0.477413
0.30691
0.78536
0.761356
0.781402
0.762939
0.785979
0.247759
0.682917
0.273458
0.259881
0.183001
0.136468
0.105054
0.810036
0.808982
0.390906
0.228135
0.765107
0.813261
0.812937
0.791529
0.410214
0.374801
0.374801
0.793105
0.737573
0.3748
0.375741
0.235953
0.449699
0.478767
0.455971
0.419831
0.578601
0.171683
0.58014
0.58014
0.504302
0.171846
0.283678
0.899022
0.658418
0.919771
0.679015
0.652453
0.88909
0.88909
0.792352
0.592295
0.561545
0.780657
0.77943
0.778271
0.920402
0.868062
0.922174
0.523951
0.923105
0.740222
0.91934
0.845204
0.920562
0.76939
0.769619
0.755585
0.493783
0.631739
0.666673
0.379339
0.378603
0.378261
0.877291
0.803961
0.888484
0.558699
0.558183
0.644905
0.558183
0.922974
0.870861
0.792573
0.477027
0.469662
0.375796
0.376885
0.3758
0.3758
0.375796
0.654666
0.663604
0.380688
0.379546
0.379248
0.581639
0.761903
0.543983
0.734263
0.654424
0.665748
0.865199
0.781399
0.557549
0.566631
0.42006
0.452813
0.602891
0.393058
0.293126
0.620238
0.27268
0.272679
0.272679
0.27268
0.27268
0.323651
0.272993
0.437539
0.702308
0.476992
0.702308
0.702308
0.48492
0.56167
0.638623
0.637972
0.469471
0.550227
0.63884
0.638839
0.622042
0.0140919
0.00460747
0.0329567
0.00528366
0.0184919
0.00253219
0.00253439
0.00253644
0.00939584
0.000611398
0.000399706
0.00201324
0.00655143
0.000355861
0.00189255
0.000350955
0.000359468
0.000355861
0.0531003
0.232817
0.0599016
0.00776535
0.471391
0.0668702
0.539248
0.356103
0.201297
0.566391
0.409806
0.248582
0.559078
0.55666
0.000652221
0.00347871
0.000751658
0.000441244
0.000947996
7.37717e-06
0.000389449
2.88654e-05
0.0100866
0.0285159
0.255035
0.075327
0.362147
0.496143
0.313037
0.83791
0.718119
0.806892
0.83791
0.862872
0.673698
0.671456
0.251111
0.303371
0.703463
0.624445
0.733171
0.702391
0.365544
0.270949
0.714846
0.256725
0.251154
0.327802
0.701465
0.69215
0.326088
0.327802
0.326088
0.520205
0.318443
0.318417
0.318741
0.727571
0.639364
0.316884
0.635329
0.721753
0.31192
0.667223
0.31192
0.31192
0.312939
0.324031
0.730733
0.312123
0.311954
0.531976
0.645921
0.312918
0.312036
0.136065
0.193844
0.717205
0.740453
0.230609
0.740902
0.740453
0.0710833
0.0710833
0.0727283
0.00937518
0.00115938
0.0191345
0.0021017
0.00107664
0.00728339
0.0108445
5.83589e-05
2.48349e-06
9.35523e-05
3.35376e-05
3.88111e-06
3.84473e-06
1.17775e-05
5.33641e-07
5.33641e-07
5.34138e-07
5.39283e-07
5.38744e-07
5.34138e-07
5.33641e-07
2.10857e-06
2.12513e-06
1.26451e-06
7.91047e-07
2.21395e-06
7.53615e-07
1.86914e-06
2.9858e-06
2.87953e-06
1.34734e-06
1.67525e-07
8.64741e-08
5.10556e-08
2.53903e-07
3.7409e-08
3.81618e-08
3.65996e-08
3.57875e-08
3.65996e-08
3.40437e-08
3.61464e-08
7.80794e-08
1.99388e-10
1.9777e-10
1.9777e-10
1.9777e-10
2.00485e-10
6.76139e-10
2.17444e-10
1.26368e-08
5.41818e-09
1.51766e-08
1.22584e-08
5.02416e-09
1.51766e-08
1.51757e-08
1.06291e-08
1.04853e-08
1.46146e-08
9.89334e-09
1.45562e-08
2.34863e-07
9.54718e-09
8.1315e-09
4.30877e-08
2.63002e-08
5.85261e-08
4.03013e-08
4.11974e-08
3.07069e-08
2.02596e-08
2.01199e-08
4.84715e-09
4.84715e-09
5.3205e-09
6.2159e-09
6.24478e-09
5.96496e-09
5.87708e-09
8.41773e-10
8.43941e-10
1.50251e-09
1.91674e-09
8.40798e-10
3.92304e-10
1.69255e-11
1.48814e-11
3.86913e-13
3.93292e-13
3.6547e-12
9.03437e-12
4.56791e-11
3.53489e-11
1.01237e-11
9.02579e-12
1.39387e-09
2.56207e-10
1.17763e-09
2.62142e-10
1.02012e-11
3.96652e-10
3.99206e-10
8.64034e-10
4.06257e-10
4.0122e-10
5.25636e-10
5.02153e-09
4.49856e-10
3.38476e-10
0.0147044
0.0123414
0.0257031
0.0509748
0.0186667
0.0381652
0.0568717
0.0794099
0.0840144
0.0329545
0.0340816
0.0522178
0.137101
0.0389485
0.45579
0.625746
0.807989
0.290122
0.784708
0.807989
0.808017
0.80801
0.80801
0.0323455
0.352454
0.185224
0.272791
0.274865
0.115832
0.0851333
0.504581
0.504179
0.50394
0.504176
0.427838
0.484506
0.404068
0.50143
0.238366
0.500973
0.469427
0.470433
0.526154
0.472758
0.13631
0.506349
0.531819
0.531819
0.512346
0.531819
0.527665
0.531344
0.531727
0.536869
0.538522
0.486288
0.533963
0.538525
0.466661
0.538525
0.490142
0.538513
0.490788
0.538645
0.538646
0.538669
0.54888
0.538191
0.284444
0.919482
0.906192
0.817555
0.920147
0.917517
0.922163
0.922298
0.76939
0.769863
0.769863
0.375881
0.509258
0.378635
0.377092
0.440515
0.375822
0.375798
0.479754
0.406116
0.375904
0.378121
0.378277
0.375522
0.375516
0.378138
0.375493
0.375511
0.376584
0.378279
0.375615
0.57351
0.70741
0.716768
0.720387
0.6305
0.631965
0.570821
0.689506
0.39486
0.394174
0.380997
0.560539
0.437222
0.272539
0.55161
0.276463
0.687612
0.860971
0.866447
0.696631
0.647036
0.329557
0.866764
0.866764
0.866775
0.866764
0.866764
0.917545
0.932175
0.932175
0.812956
0.926172
0.776459
0.869265
0.608693
0.494559
0.831343
0.469653
0.831477
0.468998
0.471179
0.426278
0.00625503
0.756636
0.062477
0.810059
0.0711771
0.0720491
0.672151
0.890382
0.90382
0.503478
0.90413
0.90382
0.80758
0.00817257
0.00515183
0.0027649
0.0016378
0.00130341
0.00453178
0.00192356
0.00194032
0.000597741
0.00633294
0.000589151
0.00313588
0.00634548
0.00283311
0.00113571
0.000488927
0.00048827
0.00048868
0.00048827
0.00048868
0.00048873
0.808277
0.815933
0.766794
0.878014
0.889967
0.892601
0.481219
0.680403
0.622779
0.680533
0.243377
0.550533
0.628975
0.248317
0.313174
0.257077
0.328397
0.325331
0.0394923
0.137168
0.0624553
0.25071
0.260049
0.259811
0.0401453
0.0405164
0.0398997
0.0404071
0.709426
0.33939
0.126837
0.557009
0.655403
0.755575
0.254223
0.755375
0.758117
0.516949
0.758041
0.758128
0.663659
0.756875
0.758042
0.584883
0.626948
0.629333
0.725954
0.62944
0.629745
0.626948
0.707191
0.57585
0.565591
0.660786
0.730107
0.681709
0.598745
0.730107
0.710128
0.710128
0.710128
0.745149
0.710146
0.751089
0.757997
0.612819
0.611835
0.612828
0.757029
0.758197
0.66727
0.756377
0.710148
0.721895
0.754793
0.745793
0.611835
0.758103
0.426258
0.626151
0.326088
0.622974
0.565212
0.562467
0.802819
0.805198
0.80435
0.801909
0.477188
0.477188
0.706871
0.832364
0.860281
0.0471611
0.0480039
0.058238
0.03626
0.702095
0.152263
0.0350793
0.146857
0.862371
0.439589
0.068526
0.27278
0.862669
0.133299
0.0104279
0.00259835
0.0455938
0.000347353
0.00088519
0.00972873
0.00766155
2.0178e-06
1.94721e-06
3.16211e-06
3.18648e-06
3.18648e-06
1.24811e-06
9.62428e-07
1.32547e-06
1.93411e-06
3.14067e-06
2.99563e-06
3.14067e-06
1.00267e-06
2.66131e-06
9.04303e-07
3.67058e-07
1.12815e-07
8.27422e-07
1.12779e-07
4.4105e-07
4.22037e-07
4.21483e-07
1.37677e-06
6.38209e-07
8.56067e-07
1.31817e-06
1.9777e-10
5.3592e-10
3.01442e-09
3.15165e-09
6.03292e-09
9.8602e-09
3.12132e-09
4.25269e-09
9.85871e-09
8.03306e-09
6.89476e-09
9.26005e-09
2.22857e-08
6.7434e-13
4.59936e-13
6.7434e-13
4.18665e-09
1.84553e-10
6.7434e-13
4.38261e-10
1.5175e-08
1.05968e-08
7.35473e-09
1.26591e-08
4.92072e-09
2.2839e-15
3.75602e-10
1.51766e-08
6.99715e-09
1.5139e-08
9.36804e-16
9.36804e-16
9.44759e-16
9.36804e-16
3.7755e-15
4.6056e-14
6.0666e-14
1.8676e-13
1.8676e-13
1.77548e-13
3.29606e-13
2.92594e-13
1.72075e-13
5.62603e-13
2.45852e-14
1.42496e-13
1.78422e-14
5.64405e-14
7.14482e-14
1.19471e-14
1.68016e-15
1.14363e-10
5.50693e-11
8.51308e-11
1.70534e-10
7.35453e-10
2.23244e-10
5.19429e-10
1.4825e-09
1.48209e-09
3.4499e-09
1.4825e-09
1.48209e-09
1.4767e-09
2.41272e-09
1.45961e-07
9.54793e-09
2.94307e-09
6.89526e-09
2.3536e-09
8.78855e-09
3.17068e-09
6.56537e-08
3.39567e-08
3.44839e-08
1.19719e-07
3.19582e-08
3.64879e-08
3.39567e-08
2.81372e-09
2.54226e-09
4.69262e-09
8.11683e-09
9.10868e-08
2.13397e-09
3.33053e-08
1.21684e-08
4.33618e-09
4.54704e-11
4.59907e-11
4.54703e-11
2.94659e-09
1.83012e-09
4.02759e-10
6.54604e-10
2.30678e-11
2.28123e-11
4.35432e-11
2.3162e-11
1.33323e-10
2.30678e-11
1.04836e-10
0.00222263
0.0340856
0.000115819
5.12169e-05
5.33532e-05
6.08181e-05
9.97791e-05
0.00524994
0.000412326
0.000723686
0.000253621
5.05232e-05
0.00416937
0.00175685
0.000110414
0.00115613
0.000144967
5.05232e-05
0.0532688
0.02124
0.0425997
0.0211288
0.0215593
0.0211081
0.018926
0.103632
0.0292618
0.0120969
0.0406369
0.0553593
0.0301719
0.0383399
0.0366126
0.0286122
0.0686522
0.0294169
0.0286122
0.202523
0.124179
0.00500353
0.00333368
0.00089359
0.000892476
0.00153446
0.00107948
0.000892468
0.129406
0.000892475
0.568141
0.000899023
0.0837222
0.0010629
0.597147
0.382676
0.100558
0.0277629
0.0263454
0.099937
0.0132889
0.00370272
0.371777
0.49459
0.359053
0.443132
0.489704
0.38144
0.488638
0.632174
0.632174
0.632174
0.414386
0.288993
0.316722
0.631515
0.373922
0.494634
0.494629
0.438065
0.389746
0.433868
0.50441
0.429224
0.505478
0.48863
0.530574
0.408524
0.488062
0.396778
0.417941
0.400693
0.483838
0.483891
0.531241
0.273307
0.548828
0.274635
0.661658
0.660729
0.593005
0.557031
0.535405
0.53868
0.651177
0.717838
0.606672
0.866764
0.624906
0.532736
0.532736
0.698618
0.704306
0.633168
0.723796
0.670586
0.723458
0.723796
0.723752
0.722214
0.63314
0.722773
0.0250929
0.0340377
0.0222596
0.0100521
0.0100537
0.0100521
0.0100521
0.025253
0.0252559
0.0249307
0.0229445
0.0285814
0.0246984
0.0246968
0.00164265
0.00163224
0.00228779
0.00624961
0.00164451
0.00163471
0.00404417
0.203509
0.182676
0.23424
0.826234
0.0210175
0.00607387
0.0984723
0.00614672
0.206626
0.00100555
0.00100479
0.00100479
0.10515
0.0517033
0.555837
0.172159
0.00488995
0.00172256
0.00620687
0.00348276
0.00337081
0.00622901
0.000940276
0.00528566
0.00359374
0.00143618
0.0011112
0.00257706
0.000840029
0.000380701
0.000386509
0.000384978
0.000380701
0.000382009
0.00592283
0.0055064
0.00508792
0.000383849
0.000388163
0.000811632
0.000556648
0.100788
0.128987
0.161659
0.201523
0.513325
0.349269
0.794618
0.275478
0.27517
0.339281
0.526687
0.798985
0.704205
0.798976
0.556107
0.556357
0.556357
0.575352
0.556565
0.556589
0.556392
0.67251
0.556042
0.594666
0.556042
0.681709
0.600222
0.556054
0.627982
0.742158
0.606488
0.557799
0.558099
0.601734
0.697942
0.556042
0.697944
0.694928
0.744008
0.661449
0.636127
0.798669
0.606719
0.605851
0.600006
0.68169
0.588335
0.689605
0.629447
0.634903
0.730113
0.445753
0.529683
0.403978
0.757737
0.758041
0.039782
0.0850612
0.148676
0.0705898
0.109548
0.0390006
0.0389814
0.250303
0.250149
0.250149
0.367408
0.250511
0.256067
0.250303
0.605156
0.682874
0.686482
0.485258
0.329467
0.257718
0.128151
0.861854
0.807482
0.698348
0.860674
0.811568
0.863236
0.863081
1.20754e-05
5.90732e-06
8.92742e-06
1.99111e-05
1.68087e-06
4.62747e-05
2.40447e-05
2.36341e-09
2.36341e-09
2.36341e-09
9.45159e-09
5.56234e-09
6.44089e-09
1.08618e-08
1.01339e-15
9.36804e-16
1.40009e-13
4.0281e-13
1.98662e-13
1.76146e-12
3.9509e-13
1.08157e-13
7.0695e-12
1.1765e-10
2.53295e-13
8.57961e-14
1.02006e-12
2.04107e-16
2.03127e-16
2.04107e-16
2.03127e-16
2.03127e-16
3.43639e-16
2.05436e-16
2.61634e-16
2.03127e-16
4.27712e-16
3.51367e-17
1.6278e-16
9.85251e-17
2.23192e-16
1.39985e-16
9.63827e-16
-4.46163e-41
-4.24123e-52
-1.22687e-41
2.68508e-20
7.13293e-16
5.88318e-15
4.76095e-22
2.21793e-19
4.42642e-19
1.36824e-16
0.127592
0.720109
0.999656
0.999676
0.999656
0.991015
0.967685
0.0126632
0.0163103
0.0097205
0.00408401
0.000619409
0.00275088
0.00304634
0.00163641
0.0128175
0.000151147
0.00163268
0.00398879
0.124402
0.00448584
5.44997e-07
5.96924e-07
1.02308e-05
2.35886e-09
7.95218e-06
3.75147e-05
5.06923e-07
0.000321261
0.0012206
0.00102768
0.00124877
0.00789015
0.00071278
0.00122087
1.80314e-08
3.98353e-08
1.32508e-08
1.76729e-08
1.41516e-08
1.32505e-08
1.32505e-08
4.8002e-08
4.79909e-08
4.11649e-08
3.80303e-08
3.77747e-08
2.83852e-07
4.79361e-08
4.0452e-08
3.80303e-08
2.0553e-08
8.61278e-09
3.35194e-08
1.08906e-07
1.9782e-07
8.70402e-08
6.64324e-08
3.55572e-09
8.33764e-10
5.36554e-11
1.81315e-08
4.28115e-09
5.36554e-11
4.45313e-11
2.08407e-07
6.48334e-07
2.08407e-07
2.79531e-06
3.04313e-05
4.21204e-07
4.42942e-06
1.88127e-05
4.22807e-05
0.000159815
1.82371e-05
1.80618e-05
3.08182e-05
5.62433e-05
0.216137
0.295958
0.471532
0.4292
0.208974
0.210409
0.212491
0.656208
0.624816
0.58262
0.587985
0.587672
0.649841
0.656599
0.36723
0.660541
0.66038
0.630543
0.643367
0.524531
0.660571
0.658894
0.657465
0.660575
0.660575
0.660588
0.658246
0.660599
0.658171
0.659566
0.660499
0.660497
0.66047
0.650426
0.660519
0.660927
0.436265
0.660515
0.660548
0.660514
0.648604
0.648604
0.648604
0.648492
0.648163
0.635193
0.57992
0.00377015
0.000898697
0.00140904
0.000891633
0.00100923
0.00102839
0.000891185
0.648583
0.646022
0.64823
0.631515
0.446547
0.189656
0.000957013
0.00100475
0.00157088
0.000938263
0.00358593
0.0143111
0.000958657
0.383579
0.424343
0.383438
0.637962
0.525442
0.638839
0.273433
0.713522
0.867469
0.703668
0.843505
0.685406
0.924896
0.839855
0.138278
0.556381
0.55985
0.34279
0.562924
0.134343
0.154779
0.293014
0.0251924
0.284374
0.103523
0.0451708
0.041631
0.608271
0.718193
0.773206
0.77578
0.682303
0.760269
0.681392
0.781493
0.390747
0.765203
0.72758
0.765203
0.765196
0.765203
0.792007
0.792135
0.751452
0.791507
0.792951
0.791556
0.693464
0.133084
0.10497
0.314935
0.100351
0.102132
0.1032
0.107472
0.566398
0.377419
0.0880106
0.188391
0.0775421
0.0778572
0.13514
0.465473
0.154795
0.460793
0.807101
0.806757
0.149827
0.806578
0.629584
0.790534
0.6045
0.77483
0.595534
0.790649
0.620859
0.790649
0.714867
0.58786
0.774754
0.78695
0.775802
0.774144
0.79704
0.798669
0.797908
0.74053
0.790194
0.797135
0.403933
0.798067
0.798975
0.797196
0.794393
0.779397
0.680022
0.793429
0.795231
0.795428
0.795428
0.000146331
0.000143743
0.000143704
0.0378214
0.000147298
0.268039
0.0247979
1.45034e-09
1.35233e-09
1.3529e-09
1.35603e-09
1.35549e-09
1.3523e-09
1.74389e-09
7.90985e-10
8.77551e-10
1.27044e-09
8.97616e-10
1.19071e-09
7.87059e-09
1.09523e-09
3.69368e-12
3.61478e-12
3.59662e-12
7.88458e-11
1.27584e-10
4.4764e-11
4.87059e-11
5.02854e-11
1.59024e-10
5.01636e-11
3.36613e-10
6.76683e-11
0.740805
0.749404
0.998041
0.871022
0.864487
0.238992
0.944932
5.23509e-05
5.23509e-05
0.000554619
5.23509e-05
0.000137964
0.000118972
0.0023609
0.00286318
0.000983158
0.00286318
0.000151243
0.000150944
0.00146791
0.00285035
8.41758e-07
1.59736e-06
2.18909e-06
2.95993e-10
3.32501e-16
3.3221e-16
-1.82862e-34
0
1.86867e-06
5.15219e-07
1.05896e-33
-7.5114e-107
0
1.47886e-06
7.87037e-07
0
5.59963e-07
0
1.86683e-06
-2.52528e-27
-2.63901e-44
-3.68921e-27
1.97597e-06
1.57078e-24
3.28089e-06
6.96895e-08
0.000211519
4.36826e-05
1.86832e-05
0.000116693
2.5286e-05
8.42451e-06
2.08038e-05
4.5782e-13
5.30404e-13
5.01865e-13
5.45912e-13
5.45912e-13
1.11596e-12
1.6907e-12
1.41046e-08
8.82953e-08
1.41046e-08
1.41046e-08
3.6516e-08
9.39558e-08
2.12549e-08
4.61792e-05
3.54399e-05
1.7059e-05
4.65777e-05
3.23987e-05
5.55741e-06
3.94612e-05
1.36339e-05
1.65765e-05
1.35996e-05
1.36103e-05
1.36213e-05
1.36005e-05
1.46575e-05
1.36019e-05
1.37097e-05
0.000211804
0.000365807
0.000217292
0.000216332
0.00152148
0.000286246
0.000363285
0.817849
0.817806
0.817849
0.817806
0.736327
0.816323
0.816771
0.765846
0.523562
0.765854
0.682175
0.632712
0.632448
0.76618
0.814587
0.776794
0.632816
0.658081
0.52354
0.551536
0.52354
0.525351
0.523562
0.587981
0.587672
0.65969
0.658481
0.658476
0.65855
0.64497
0.658699
0.658518
0.658481
0.660572
0.658172
0.660556
0.043734
0.15722
0.474165
0.0702875
0.490195
0.0832297
0.110945
0.00115912
0.00177299
0.00723513
0.0045314
0.00302513
0.000896279
0.000890548
0.000352142
0.00141856
0.00041343
0.00112698
0.00390059
0.37789
0.0841325
0.0135511
0.0136464
0.0143922
0.0756188
0.204133
0.679057
0.214988
0.589409
0.704416
0.704166
0.703911
0.704442
0.00253168
0.0190671
0.00253373
0.00256183
0.00483991
0.50351
0.457861
0.611196
0.598781
0.579896
0.458083
0.459359
0.724495
0.724495
0.724495
0.45828
0.500247
0.619647
0.472386
0.0451538
0.0408737
0.307202
0.0105294
0.010058
0.135064
0.177185
0.71759
0.708472
0.634038
0.710458
0.710302
0.710302
0.846796
0.825651
0.710062
0.835824
0.66827
0.678946
0.668714
0.843711
0.715652
0.845495
0.726574
0.732901
0.736148
0.754535
0.753083
0.733663
0.407001
0.749165
0.710062
0.821369
0.834411
0.834421
0.834402
0.387632
0.768818
0.834421
0.834434
0.834411
0.834411
0.834392
0.0821373
0.120729
0.171573
0.10214
0.0822301
0.124825
0.338151
3.0127e-05
0.00254865
0.000724561
5.84192e-05
0.0019507
0.000606961
3.94954e-05
2.88468e-05
2.90942e-05
0.000137358
2.88468e-05
2.89344e-05
2.88602e-05
3.00461e-05
0.000624212
0.00021952
0.000187379
0.000518838
0.000588779
0.000806974
0.00139288
3.71671e-07
1.87229e-08
2.39389e-05
3.17913e-05
5.88885e-07
0.00179444
1.73752e-06
0.00208499
0.000789706
0.00326407
0.000791423
0.000789706
0.00630727
0.0141254
0.000224492
0.000228877
0.000223174
0.000223104
0.000586251
0.000223413
0.000223789
0.00154376
1.47656e-09
0.00286315
1.47656e-09
1.47656e-09
0.000120413
8.49902e-05
0.00241441
0.00085581
0.00233384
0.00239238
0.0020591
0.00147212
0.000152299
0.000177502
0.00170268
0.00304404
0.00260042
0.00146927
0.000258329
0.000943742
0.00197431
0.00143467
0.000911481
0.000413735
0.000413735
0.000529816
0.0016689
0.0041278
0.00184701
4.17249e-06
9.06342e-08
1.1484e-07
2.17512e-06
2.31626e-06
1.17758e-05
8.90269e-05
0.000557392
0.000235464
0.000952457
2.04075e-06
0.000227538
0.000859334
1.60847e-21
6.75239e-05
0.00055525
0.00050232
0.000709937
0.000962039
0
0
0
-3.08383e-25
6.59023e-08
-1.713e-24
-6.71871e-25
3.92585e-13
1.44076e-15
4.28917e-12
1.17103e-15
1.36139e-15
1.84116e-14
1.74444e-13
1.44076e-15
3.87087e-15
0.00021171
0.000211691
0.000632259
0.00103174
0.0006139
0.000839564
0.00238922
0.00205246
0.0020738
0.00662173
0.00210675
0.0045548
0.00641036
0.000318129
0.0657329
0.0266048
0.0657329
0.00983535
0.0386937
0.00979087
0.0474207
0.151696
0.252978
0.252978
0.252464
0.0651354
0.105015
0.146105
0.0512219
0.252431
0.051773
0.466197
0.776645
0.577011
0.523319
0.371725
0.148474
0.816323
0.814952
0.690136
0.926212
0.823186
0.923542
0.919985
0.77965
0.868155
0.920884
0.875504
0.872241
0.515418
0.876728
0.876651
0.744261
0.514948
0.792999
0.721837
0.570304
0.796311
0.835982
0.834136
0.844501
0.0147075
0.0274325
0.0147997
0.0147075
0.0146591
0.0531885
0.0300846
0.018051
0.0171076
0.0191888
0.0172274
0.0241039
0.00631795
0.0316777
0.00064738
0.0041187
0.00177907
0.00620071
0.00615312
0.00134267
0.00218847
0.00903263
0.00933887
0.0340068
0.00988675
0.0360642
0.173131
0.0240552
0.000643439
0.000270547
0.00231365
0.00221759
0.00189742
0.0135439
0.00213963
0.00157762
0.00106857
0.00106875
0.00377318
0.00161221
0.153482
0.0614369
0.635094
0.00119563
0.0389192
0.0623291
0.0528141
0.0180065
0.0258162
0.178266
0.00276946
0.00275
0.00291763
0.00280242
0.755041
0.755042
0.75501
0.719266
0.7201
0.721138
0.723004
0.721138
0.719958
0.720589
0.727594
0.732373
0.727594
0.727594
0.568602
0.726778
0.674995
0.69545
0.675046
0.675711
0.70126
0.685475
0.68598
0.718319
0.719623
0.348474
0.339384
0.0366809
0.538907
0.02198
0.0130699
0.0178022
0.116307
0.783696
0.763025
0.783696
0.783401
0.630185
0.72194
0.631013
0.810463
0.8333
0.81225
0.833261
0.8335
0.810912
0.8335
0.783367
0.626911
0.629591
0.82345
0.833484
0.81046
0.392792
0.341919
0.339556
0.823809
0.57507
0.690937
0.690366
0.855876
0.547945
0.343684
0.335635
0.326204
0.61804
0.459766
0.76684
0.85539
1.79532e-09
5.99512e-10
2.58283e-09
2.89026e-10
1.62388e-09
8.55538e-10
7.46756e-10
5.99429e-10
5.99513e-10
6.42992e-10
6.07427e-10
5.97472e-10
5.95274e-10
5.95273e-10
4.54225e-08
3.88521e-08
4.39863e-08
3.77747e-08
3.8058e-08
3.84095e-08
3.77771e-08
-4.00122e-24
-8.57603e-25
-1.67848e-26
9.86619e-12
1.47083e-11
8.95419e-11
1.01875e-11
9.52558e-12
9.6755e-12
9.6755e-12
4.62837e-26
-6.87852e-71
5.31639e-45
4.77869e-14
7.27964e-13
7.03368e-28
2.0353e-55
3.56903e-13
0
2.20461e-25
2.67223e-98
3.76996e-44
0
-6.08734e-56
-9.06584e-54
2.81901e-21
1.93128e-22
2.23221e-38
0
3.18234e-14
0
1.10698e-16
3.01707e-21
2.01049e-17
2.97459e-21
2.97459e-21
2.89807e-21
4.10217e-16
4.33387e-13
1.3344e-12
5.51866e-13
2.07901e-13
2.87359e-12
8.04213e-14
8.04213e-14
4.7315e-07
3.47566e-08
7.5887e-08
3.10738e-07
4.49014e-07
3.35709e-06
3.70229e-07
0.101392
0.101056
0.101459
0.0069074
0.0309773
0.0850517
0.0728629
0.00953582
0.00301865
0.00314906
0.00301865
0.00987206
0.0144399
0.0898577
0.180041
0.0230022
0.0483062
0.000174133
0.000168221
0.000587529
0.000454219
0.000264672
0.000121686
0.000122827
0.00705172
0.0124602
0.0102784
0.0644065
0.0566427
0.0347366
0.0337406
0.924468
0.181389
0.17918
0.547325
0.901471
0.370144
0.912441
0.0639582
0.0640018
0.781118
0.69456
0.37173
0.373097
0.926835
0.926882
0.923824
0.900027
0.926488
0.900227
0.927509
0.927254
0.869619
0.926332
0.504724
0.758364
0.926356
0.926299
0.707635
0.611153
0.304648
0.238347
0.651971
0.097658
0.0988034
0.223316
0.474389
0.494074
0.521208
0.89043
0.890641
0.627163
0.365253
0.807196
0.807735
0.759293
0.806987
0.807978
0.760012
0.800135
0.80801
0.538993
0.238787
0.233843
0.47707
0.0251254
0.0385326
0.0113584
0.0134914
0.0113349
0.0569324
0.0568633
0.0113589
0.0477713
0.873182
0.418566
0.0193003
0.0281713
0.0192417
0.430747
0.0834263
0.0228583
0.0198193
0.00605476
0.00179336
0.000788756
0.000789893
0.00107616
0.000666214
0.000703047
0.000681769
0.000716342
0.000693886
0.00112085
0.00547661
0.00449102
0.000912056
0.00222905
0.00172876
0.00394556
0.00173345
0.00173345
0.00109421
0.00141659
0.00307527
0.00306088
0.00438777
0.00781651
0.00313341
0.00847034
0.00400259
0.0625943
0.357637
0.0544026
0.0445284
0.0281777
0.251502
0.0514312
0.0545239
0.179986
0.587078
0.253321
0.418909
0.678935
0.0941722
0.675332
0.699001
0.712874
0.66028
0.663902
0.667205
0.578713
0.668122
0.640751
0.660715
0.683615
0.684332
0.683614
0.602584
0.679141
0.550762
0.452738
0.655978
0.356492
0.666022
0.666022
0.666022
0.635263
0.665043
0.64156
0.666008
0.59423
0.586924
0.665224
0.665493
0.665747
0.666841
0.482564
0.666841
0.258189
0.280894
0.571596
0.264078
0.387504
0.192104
0.190857
0.61535
0.403854
0.807275
0.833621
0.771351
0.771103
0.833704
0.791465
0.210979
0.833451
0.639475
0.127894
0.8337
0.816162
0.8337
0.8337
0.170754
0.514473
0.514473
0.370617
0.50296
0.299762
0.349184
0.372014
0.193523
0.0456421
0.0358756
0.168393
0.0108053
0.0254451
0.0106573
0.0281626
0.256406
0.0336672
0.011107
0.0123737
0.0111086
0.0111086
0.011107
0.0630722
0.0255944
0.150564
0.0238051
0.0124164
0.0152592
0.0155364
0.652725
0.836247
0.879863
0.892594
0.8862
0.893017
0.892999
0.26196
0.46242
0.887489
0.906347
0.89797
0.906328
0.906314
0.689134
0.741913
0.586676
0.741913
0.741913
0.741908
0.740167
0.583797
0.691396
0.741908
0.741799
0.612775
0.699134
0.699079
0.644302
0.689058
0.698122
0.639387
0.697979
0.755473
0.791241
0.66466
0.633757
0.631258
0.901889
0.815791
0.847657
0.711548
0.887333
0.888794
0.589329
0.870031
0.814048
0.638532
0.870179