/*--------------------------------*- C++ -*----------------------------------*\
| =========                 |                                                 |
| \\      /  F ield         | OpenFOAM: The Open Source CFD Toolbox           |
|  \\    /   O peration     | Version:  v2012                                 |
|   \\  /    A nd           | Website:  www.openfoam.com                      |
|    \\/     M anipulation  |                                                 |
\*---------------------------------------------------------------------------*/
FoamFile
{
    version     2.0;
    format      ascii;
    class       volScalarField;
    location    "0.55";
    object      p_rgh;
}
// * * * * * * * * * * * * * * * * * * * * * * * * * * * * * * * * * * * * * //

dimensions      [1 -1 -2 0 0 0 0];


internalField   nonuniform List<scalar> 
6576
(
2786.44
2762.49
2770.16
2775.8
2791.41
2799
2774.5
2776.08
2793.26
2783.44
2823.37
2807.76
2795.66
2805.24
2768.96
2776.7
2742.81
2770.77
2772.56
2818.86
2753.47
2812.18
2815.82
2769.57
2799.26
2828.68
2876.55
2795.61
2758.66
2761.57
2781.8
2742.42
2780.64
2804.24
2797.92
2818.77
2793.87
2820.36
2779.74
2800.66
2766.46
2757.18
2784.27
626.316
261.077
1365.72
472.228
637.791
1486.09
1220.39
494.89
1087.31
-0.0979175
-0.0651407
-0.0145898
-0.529729
-1.30598
-1.94052
-0.612025
-0.00565153
-0.156775
-0.0631124
-0.0112138
-0.0436539
-0.0557487
-0.0630119
0.248499
0.141857
0.182401
0.105757
0.144105
0.160706
0.138662
14.1716
16.2417
14.2604
14.8821
13.699
14.638
15.1506
14.525
16.5331
16.9507
15.8567
14.885
15.0551
14.4213
156.622
143.479
158.002
219.575
163.072
149.77
171.094
201.646
505.295
457.225
327.545
504.516
314.61
137.216
332.33
181.981
238.521
207.352
380.947
236.672
190.79
1269.27
1471.3
1445.62
1257.48
1579.49
2098.15
-0.073115
-0.0510442
-0.192611
-0.159427
-0.164774
-0.319911
-0.198479
1259.92
2465.72
2610.81
2692.93
2752.47
2744.25
2804.59
0.526634
-0.213422
-0.0508296
-0.667191
-0.337833
-0.880615
-0.694627
1592.84
1605.63
1656.16
1667.22
1645.05
1637.89
1668.61
335.035
326.805
286.896
841.624
991.136
154.432
141.793
-6.20248
5.98463
-6.83881
-4.38834
-5.61008
-6.49922
-5.87974
131.038
43.9623
6.71222
128.371
6.59846
26.3203
83.3144
9.76657
71.9735
-0.182311
0.639873
-0.641405
13.2907
3.74012
3.62342
-1.79626
-4.83759
-4.65037
-4.3818
-4.53782
-4.52189
-2.34824
-4.04275
-3.53369
-2.14109
-1.96015
-1.35372
-1.94601
-2.07856
-1.38716
-1.72577
-2.3552
-2.19258
-1.72873
-0.461279
-0.656126
-0.628811
-0.63851
-1.01967
-0.417195
-0.505185
-1.00069
-0.594722
-0.883965
-0.956462
-1.20468
-0.565044
-0.647054
-0.456084
-0.390557
-0.863662
-1.23693
-1.62626
-1.60352
-1.62623
-0.139315
-0.603222
-0.641466
0.286585
-0.0566777
-0.50309
-1.04591
-0.066886
-0.0795152
-0.162972
-0.0462163
-0.0513016
-0.0700281
-0.0739198
0.0595042
-0.029067
-0.034535
-0.0138033
0.0632006
-0.0609055
-0.0991809
-0.270158
-0.993662
-0.452251
-0.339709
-0.672216
-1.12338
-0.449444
-1.65221
-1.63197
-1.25483
-1.27696
0.50868
-1.58645
-1.26688
-4.60154
-2.92315
-4.24154
-2.81066
-3.57672
-2.85873
-3.36141
-1.91799
-3.65702
42.0582
18.7375
-2.09674
31.3253
39.8204
62.4725
24.2754
92.6853
93.5874
117.783
-170.951
-56.9222
-176.987
-170.063
1338.87
1321.56
1345.57
1379.74
1325.45
1286.98
1391.28
1272.65
1445.04
1960.25
1942.7
1952.97
1801.64
1523.02
1690.08
1264.52
404.292
287.259
365.16
480.104
442.338
350.099
426.073
513.962
384.474
1821.19
1849.79
1811.63
1097
1389.35
632.313
1454.05
1423.36
916.345
1283.11
38.7637
34.8127
22.8564
24.0899
51.581
23.1373
21.7115
360.499
17.3821
0.788423
242.77
14.7507
2.23965
1.89692
1.54053
2.12815
14.8672
15.2465
13.4377
13.9587
14.11
14.0725
13.0975
473.802
380.653
758.554
196.47
555.938
623.459
379.447
454.242
310.329
444.773
251.071
114.981
568.794
363.597
489.657
537.543
977.5
1016.29
750.058
765.358
1066
432.692
859.625
871.819
557.438
1155.48
1209.78
1171.71
1141.28
1110.95
1138.89
1101.91
1454.68
1342.03
1352.87
1305.16
1271.23
1240.21
1244.63
1375.13
1639.12
914.705
887.166
932.952
931.311
958.183
913.975
947.579
951.365
1017.06
923.897
836.165
888.786
811.216
821.886
22.5829
17.3479
18.4194
19.0392
17.394
17.6213
17.0707
17.5119
18.9244
16.1845
16.3153
18.534
17.6435
17.1402
16.97
16.302
65.5535
26.4036
42.4351
22.4802
89.5771
22.467
75.4735
27.778
42.6955
56.8965
252.468
853.117
128.769
53.5349
9.00593
24.0356
1496.43
1504.19
1522.08
1366.93
1433.57
1428.11
1521.93
-1.65264
-1.71238
-1.58353
-1.37189
-1.10441
-1.73586
-1.34809
-0.373011
-0.175017
-0.000393052
-0.163244
-0.290541
0.465488
0.231705
-0.414007
0.0715451
0.154113
0.263269
-0.97301
0.0874815
0.181104
812.585
1127.28
698.901
2008.66
1955.86
1705.38
1862.24
1785.69
1940.17
84.4984
85.8377
71.5608
446.366
144.339
96.9675
82.3297
536.896
316.04
499.096
259.609
359.762
289.194
249.788
450.222
199.387
263.871
636.702
661.249
545.663
246.568
46.825
45.2573
102.494
46.1038
44.9119
51.4606
207.605
214.898
241.635
137.956
299.397
295.79
130.287
259.299
71.9647
211.106
156.271
302.24
301.948
310.737
-1.52107
-2.54714
-2.15953
-1.68663
-0.34876
-0.632373
-1.4019
28.4054
16.8211
17.5855
20.9277
-1.44082
-2.4017
-1.48895
0.867464
0.133354
-2.67405
-0.0791375
-0.226283
-0.522356
0.0650824
-0.214308
-0.169296
-0.187529
-0.260253
-0.351377
-0.00351553
-0.16124
-0.104904
-0.22777
-0.17965
-0.228252
-0.243687
-0.153104
-0.378993
0.0200826
-0.11156
0.00427485
0.00322064
-0.016599
0.037385
0.00782128
-0.205641
0.0632726
-0.0496915
-0.359328
-0.305572
-0.342262
-0.261223
-0.0541388
-0.167768
-0.2403
-0.252652
-0.0759368
-0.288142
-0.0662191
-0.236658
-0.177738
-0.165566
-0.141841
-0.319886
-0.136949
-0.0408456
-0.0729381
-0.115035
-0.90496
-0.773356
-0.681118
-0.518284
-0.495782
-0.596897
-0.715187
-3.10502
-2.55415
-3.63256
-2.60675
-3.69477
-3.8536
-3.7189
-4.58034
-4.52021
-3.31807
-4.09292
-3.61305
-3.43378
-2.92589
-3.37888
-3.81657
-3.72187
-3.60265
-3.86889
-2.55878
-1.58392
-0.933833
-2.91569
-0.445971
-2.30762
-3.57647
0.150635
-0.117383
0.127531
0.0336198
-0.199322
0.00116893
0.144231
4.59435
1.8274
-0.634664
95.155
81.3526
35.4549
67.5908
-0.815256
-0.418396
28.2606
62.7182
37.0382
40.5942
38.8006
88.6792
90.5649
33.5366
97.6858
241.953
112.246
400.461
45.3678
1.1646
585.465
470.791
662.451
394.715
-0.199037
325.195
3.24484
-151.138
-175.849
-175.175
-171.838
-170.603
230.398
-153.816
-54.0742
-52.6585
-54.8181
10.8962
-35.3533
27.092
17.1499
19.1545
-48.2307
122.019
104.629
-0.745276
-27.0405
-30.7438
-46.3679
-43.7424
191.987
158.102
254.228
229.597
189.885
227.016
208.46
315.271
319.463
163.896
67.7735
189.539
191.793
202.476
34.7905
80.8547
40.3965
144.23
236.891
220.867
250.886
244.649
236.362
245.898
192.152
285.279
386.604
264.201
166.768
124.148
44.5163
745.44
666.428
628.897
560.634
563.219
419.403
686.8
283.917
405.486
330.708
322.479
167.568
620.764
677.241
403.116
316.901
582.365
1231.95
1225.57
1379.17
560.516
514.522
705.737
782.176
909.111
912.893
750.617
1066.68
1151.43
870.947
473.502
335.085
1306.56
1225.95
1324.68
1419.72
1300.55
1291.56
1416.25
1156.18
1146.52
1257.92
861.127
931.388
947.818
939.237
916.721
926.738
888.029
1057.88
1035.6
1056.8
1039.09
1036.37
1008.53
974.756
1020.27
1005.42
1073.59
1048.38
1046.64
592.604
749.494
666.526
717.561
712.534
711.944
701.346
724.358
715.617
929.392
943.302
960.848
938.658
939.224
918.076
894.683
1004.76
961.202
945.554
439.747
633.268
427.074
623.252
509.884
424.232
599.773
907.218
714.656
774.245
775.342
709.209
660.715
755.992
737.872
786.147
742.168
720.256
893.352
879.795
790.975
549.932
309.239
337.374
296.225
405.395
271.783
519.019
9.01425
60.4293
86.2271
74.2002
82.5413
130.461
129.37
213.428
353.602
250.719
303.383
326.357
244.862
263.946
312.625
335.976
239.961
297.419
319.418
306.016
312.547
27.8514
25.0948
39.2505
27.0548
33.1923
24.6513
24.566
23.0809
26.7692
17.2709
17.6697
18.678
22.5561
17.5857
19.4156
17.3899
18.0885
17.2149
61.9209
204.295
78.0156
19.7038
430.794
84.8942
501.249
700.159
400.541
1082.08
822.718
490.357
1112.84
1118.67
3.03879
11.0551
4.30957
1.79728
5.28686
3.53297
1.95618
-2.34336
12.308
61.5107
526.725
148.113
703.357
1056.5
671.072
1686.21
1401.11
1680.48
1754.63
1716.74
1232.91
1298.52
288.732
403.906
1292.02
1136.95
1086.88
1043.79
407.186
194.246
1231.29
236.212
174.207
893.232
1767.98
1586.77
713.376
966.423
690.482
1174.23
790.236
665.482
890.793
1605.59
1484.27
548.483
1423.81
1882.5
837.209
1662.44
787.1
899.298
911.378
894.733
1875.89
969.165
805.93
1364.26
1549.4
916.286
875.068
513.755
641.339
1785.82
1961.37
715.005
2009.25
1974.75
227.144
259.642
233.253
23.4229
0.577835
47.7315
3.88874
1.27047
17.2203
26.7276
-0.170116
-0.233348
0.0549813
-0.0209976
-0.574408
-0.22276
-0.0499875
-0.124511
-0.223188
-0.0507681
-0.112184
-0.127956
-0.240902
-0.175434
-0.00928042
-0.205017
-0.0526196
-0.0152067
0.0456973
0.116484
0.206059
0.0782957
-0.0158816
-0.0360478
0.0978606
0.0222934
0.0339764
0.135555
0.00426432
0.0958523
0.0447903
0.00723256
-0.00457705
-0.0593803
0.00745955
0.0235138
-0.0227976
-0.0468413
-0.0116319
-0.0365636
-0.0385813
-0.0339819
-0.0393613
-0.019991
-0.0441556
-0.0326673
-0.027002
-0.0414277
-0.0548399
-0.0424343
-0.139652
-0.107146
-0.0866569
-0.0609983
-0.0586728
-0.10812
-0.0856911
-0.0832691
-0.0929908
0.179222
0.132109
0.128043
0.0933472
0.0487172
-0.115146
-0.0104555
-0.373502
-0.353872
-0.151011
-0.408229
-0.278091
-0.318544
-0.112548
-1.91494
-2.43281
-2.53933
-1.185
-1.63683
-1.80296
-1.83856
-1.35857
-1.67373
-1.48904
-1.85847
-1.65852
-2.37222
-2.91023
-1.64095
-2.72767
-2.59307
-2.88585
-2.98335
-2.89401
-2.3604
1.14591
0.973501
0.955366
1.09044
0.953698
0.87042
0.908418
0.897191
0.947833
42.8827
32.0863
54.3656
95.4095
54.8309
78.1952
111.363
169.317
148.055
108.397
114.249
143.045
290.873
114.381
727.374
923.117
1323.94
483.307
1182.23
1272.49
1263.22
1248.28
1289.67
-130.998
345.363
78.2054
215.308
232.734
-4.37897
-50.2632
286.59
316.153
350.067
336.469
232.915
458.868
280.526
343.795
98.7443
326.182
309.275
330.312
311.228
291.133
0.64972
349.021
382.959
331.362
333.677
372.277
348.159
383.881
324.406
259.663
333.028
258.567
306.146
413.156
244.943
332.444
190.395
380.571
263.484
176.367
255.91
183.801
317.882
237.078
125.91
641.025
568.01
621.526
660.182
909.002
727.052
585.255
911.418
701.273
764.965
592.432
531.83
682.055
402.975
316.907
430.29
427.295
635.187
783.503
624.51
301.115
112.405
97.2615
138.004
146.089
98.3338
194.515
564.563
213.628
251.448
296.304
202.733
276.697
247.355
282.91
263.115
302.187
225.542
233.5
216.549
172.703
192.314
212.316
-162.199
-70.0594
-120.746
-67.5656
72.7198
-22.9125
-139.742
33.6333
42.7137
217.328
212.3
199.404
155.007
93.511
364.283
407.927
395.527
372.75
388.627
338.907
309.261
271.554
228.083
370.91
231.262
335.718
227.845
238.968
308.558
7.28839
542.503
34.2974
572.596
33.1053
68.9321
622.588
692.864
812.502
468.568
802.008
841.122
675.844
19.9736
18.7344
13.8872
12.8659
13.5017
15.1981
13.4683
15.964
13.8266
20.9764
14.182
16.7915
20.2844
16.0694
14.9407
13.9978
14.0444
14.0474
14.0936
14.2389
14.1083
1443.76
1464.16
1416.56
1594.64
1545.23
1596.35
896.6
1126.92
1045.66
1171.28
252.134
830.956
1015.12
286.192
361.991
238.059
381.017
371.945
-175.74
7.55375
-132.675
194.689
225.017
222.695
-212.676
-204.345
-218.02
-220.122
1097.73
396.885
-31.7771
731.862
993.241
1134.72
192.655
1140.15
1085.12
619.846
1163.85
1095.38
1010.61
1163.04
1139.53
807.755
716.191
967.436
957.623
802.583
726.987
835.188
951.807
748.872
749.812
939.882
992.321
945.467
869.782
1095.93
1042.4
1285.23
1364.55
1108.55
994
1237.98
1246.72
961.778
857.352
659.119
1356.11
1120.21
1283.95
1258.77
905.751
1111.42
1050.72
1762.79
1243.83
1493.22
1256.9
1418.75
653.771
1524.45
1316.22
1374.44
1847.2
1900.45
1824.26
1927.73
1112.08
1097.4
1695.19
1957.09
1931.54
121.122
105.153
127.525
90.6307
1704.2
382.853
101.892
363.158
2003.09
1049.19
159.223
646.586
1990.64
305.28
24.9273
6.67697
109.201
1.46199
1.42328
23.3803
19.1714
-0.232735
-0.0369356
-0.192793
-0.333522
-0.21775
-0.00193802
-0.200588
-0.0733101
0.026418
-0.0939767
-0.043982
-0.064171
-0.197457
-0.291732
-0.246232
-0.221951
-0.183352
-0.258946
-0.137851
-0.161898
-0.114946
-0.122481
-0.144928
-0.123811
-0.12485
-0.151121
-0.029865
-0.0420485
-0.0530289
-0.0403471
-0.0364431
-0.0638281
-0.0628387
-0.0389555
-0.0362533
-0.0852274
-0.036236
-0.0102824
-0.0583925
-0.0397541
-0.0191326
-0.0401312
-0.0339647
-0.0382793
-0.0213806
-0.0366152
-0.0202468
-0.0228141
-0.00522183
-0.0389488
-0.0421445
-0.030683
-0.0343655
-0.032841
-0.0409476
-0.0404098
-0.0069519
-0.0150648
0.00104813
-0.019437
-0.0163766
-0.0135053
-0.0122406
-0.0354567
-0.010391
-0.0248539
-0.0183132
-0.0212031
-0.0137214
-0.0323143
0.0120506
0.00330129
0.0230054
0.000743719
0.0205989
0.021631
0.00173106
0.00267975
0.0198264
0.00329591
-0.0347749
-0.0135467
0.00836905
0.0203866
0.800309
0.821554
0.687635
0.703945
1.11614
0.939503
0.755426
0.410251
0.759384
0.65152
0.741152
1.04908
0.61569
0.820059
0.210586
0.0854015
0.0697984
-0.587146
-1.11922
-0.0482781
-0.36603
-0.00815751
-0.460621
0.0221126
-0.560108
-0.862029
-0.244789
-0.548027
-0.168499
-0.0505722
0.547263
0.668135
0.56924
0.331535
0.575345
0.642345
0.493919
0.839696
0.781857
0.617544
0.935057
0.800414
0.965307
0.73982
5.73741
67.4882
2.6007
1.97453
2.2244
2.45466
2.4459
10.7438
1.45374
3.74044
2.04703
1.67657
9.48991
4.74665
1.77561
3.53194
1.65549
1.60178
90.7877
35.1903
78.4657
49.6745
41.9078
38.8053
37.1994
3.27401
-120.271
-147.519
-100.245
-65.3784
-114.448
-104.661
-107.308
-119.112
-41.1909
-127.168
-121.427
167.277
29.4244
-167.002
-169.905
-173.505
-172.454
-170.273
-172.448
-173.114
15.7537
-172.252
653.476
-172.997
-51.4636
-168.973
678.924
323.398
-39.9797
-138.051
-141.527
-49.6881
-159.36
-171.42
184.959
370.095
143.303
310.484
376.566
253.61
339.367
563.633
554.688
554.854
326.897
187.582
205.824
567.725
308.331
422.012
467.589
291.848
241.296
359.644
351.601
217.139
290.325
285.087
306.416
164.559
302.617
232.358
244.82
251.797
255.297
339.688
422.617
-53.8867
191.057
26.0617
367.69
282.588
-13.3666
93.5984
243.707
228.199
209.216
252.315
260.233
233.868
273.19
277.587
240.669
143.687
296.171
441.178
449.797
325.467
356.991
385.951
373.345
270.938
356.986
373.173
51.4481
56.3986
58.3192
32.1809
44.4996
43.2801
36.6662
53.297
72.6504
57.5358
59.6051
46.4419
55.9998
48.6884
14.368
15.8891
14.6164
17.2185
14.1103
12.2263
11.8327
149.973
152.386
192.814
575.487
31.2839
22.9482
73.2677
17.3856
148.753
11.8276
10.4641
11.3134
101.83
51.8744
447.219
142.315
14.8042
12.4674
16.4179
16.6052
14.9765
17.0677
11.6693
16.3572
15.1862
12.4491
12.169
12.9984
11.8437
11.265
10.114
10.9806
10.3826
11.0571
18.7802
19.3872
18.0607
13.3888
14.3477
13.7881
13.5577
-3.29502
20.3431
95.1945
125.79
696.806
439.121
1182.16
309.363
243.737
421.043
681.817
1191.44
1023.47
1203.37
764.598
790.771
805.893
837.483
712.638
777.205
707.567
1016.01
834.761
853.337
866.908
1021.79
835.926
765.471
922.535
1179.16
837.702
787.751
665.581
827.57
1042.98
893.797
1063.08
1067.11
1128.32
1045.53
800.959
1230.09
930.158
938.157
801.968
983.108
813.944
989.308
873.037
956.596
1120.81
489.136
719.945
441.46
1131.79
1113.15
-198.686
-111.81
1.30224
-158.862
-66.933
-206.772
-203.889
250.211
240.801
231.284
451.216
168.357
222.933
202.558
1008.25
1161.51
1145.71
710.622
399.731
248.209
0.434125
1938.55
1752.81
1445.08
1688.48
1611.95
1785.16
1833.4
-0.0441314
-0.354317
-0.596338
-0.213659
-0.231977
-0.965076
-0.667176
0.06824
0.070409
0.17478
0.000251291
0.0352117
0.0889257
0.155172
-0.0252956
-0.0202421
-0.0180714
-0.0103285
-0.00475905
-0.0119721
-0.00875128
0.008308
0.00347548
0.00890945
-0.00875121
-0.00155376
-0.0192258
0.00561091
0.0190332
0.00451413
0.0400657
0.0345579
0.0318648
0.0740006
0.0150072
0.0355781
0.0545974
-0.12312
-0.166969
0.108375
0.0438048
0.0609887
0.174636
-0.309396
-0.081021
0.0658684
-1.56662
-1.23589
-1.52417
-1.37481
-0.0278029
-1.76982
-1.41438
351.696
1856.53
2770.11
2757.1
2735.11
2674.01
2685.95
35.8611
47.0998
36.2218
20.0841
6.81645
10.9725
16.2491
8.23325
31.9271
1.78036
6.40551
10.5148
332.349
14.994
-1.36678
-1.51818
-0.287404
-0.278564
-0.060305
-0.176233
-0.632211
-0.422551
3.43207
3.51687
1.46347
20.7458
1.11626
4.24784
-1.95422
-1.45413
-1.69743
-1.76083
-1.3663
-1.3431
-1.52813
-0.627362
-0.493191
-0.574822
-0.861146
-0.451374
-0.433462
-0.675806
-0.484992
-0.27257
-0.660023
-0.696645
-0.95535
-1.25394
-1.37462
-1.12538
-1.07237
-0.526595
-0.105685
-0.316865
-0.398019
0.0359564
-0.269474
0.057294
0.96586
1.04545
0.722411
0.792904
0.676508
0.729896
0.814991
1.16173
1.26571
1.34581
1.17894
1.2032
1.1141
0.909691
379.381
571.701
780.023
656.635
313.265
327.682
356.741
1110.14
985.718
1057.33
994.498
1091.38
1428.21
1184.27
444.429
977.214
962.479
850.201
994.47
658.5
932.088
1007.7
1002.34
1122.08
978.411
944.125
983.431
983.699
1056.64
1054.61
791.105
793.224
768.878
799.18
813.236
774.407
467.186
816.887
814.423
834.396
714.469
721.289
697.55
724.322
689.187
674.858
593.763
-171.022
-174.932
-173.425
-175.084
-175.33
-174.677
-174.513
742.802
657.827
692.136
537.111
305.056
21.6272
-176.426
-176.853
-176.507
-176.633
-172.792
-160.515
-176.929
140.611
190.957
196.418
311.983
243.458
292.761
132.676
309.819
351.915
304.35
365.962
304.942
389.188
378.488
297.485
322.18
328.678
325.198
312.826
239.605
278.626
138.599
56.5985
105.668
4.49529
58.1256
52.9859
122.911
1172.52
664.727
1511.36
711.458
843.788
919.731
1219.68
98.8681
-153.028
125.874
63.703
529.818
249.578
1173.27
1168.33
1006.34
1071.21
1104.55
967.412
881.309
15.2442
5.88512
309.595
-31.7595
-6.58952
-16.1738
7.52325
735.617
427.965
-26.9185
144.184
-24.0432
-21.955
80.7608
527.835
92.418
551.715
964.896
1006.42
82.3314
1040.98
933.339
1332.66
1043.56
1217.77
955.049
1175.85
936.676
1222.58
1089.26
900.894
1106.47
1140.77
1067.88
1124.92
1161.14
1158.1
1141.6
1044.29
1169.84
1126.34
505.194
1129.88
1176.32
1146.56
1165.54
1315.25
1125.29
1249.02
1177.07
1248.6
1185.35
8.49734
8.65991
9.17052
62.8701
7.20574
445.467
51.4717
-0.941426
-0.309188
-0.516987
-0.132103
-0.064467
0.236452
-0.483397
-2.07663
-3.86062
-2.87632
-3.40638
-4.3269
-3.76184
-2.69654
-1.81092
-2.6396
-2.01798
-3.23386
-2.78244
1.259
0.174353
-0.185714
1.40427
0.977235
2.40987
1.35647
1905.91
1844.2
2482.85
2194.91
2150.34
585.188
2337.68
2.5191
3.04354
5.3159
1.89685
1.2769
1.80393
8.61636
8.04292
2.75182
8.95611
-1.17899
0.470554
4.13046
7.06349
-0.496876
-0.278772
-0.264736
0.0718677
0.064437
0.137695
0.031829
0.150076
0.10504
0.208155
0.0237767
0.0190143
0.158262
0.208698
-0.0188938
-0.00399371
-0.0364663
-0.0126906
0.068035
0.0921017
-0.104644
-0.0411384
-0.771745
-0.0900992
-0.533589
-0.0582162
0.545091
0.0753368
0.0469263
0.178016
0.044129
0.140322
0.0408148
0.924731
0.761624
0.699035
0.844277
0.846134
0.885906
0.941761
0.852085
0.86823
1.06604
0.67627
0.815414
0.818359
0.868874
0.984687
1.05198
1.01125
0.988872
0.980162
1.02766
1.11058
1.04793
0.955374
1.15895
1.28672
1.02313
1.16348
1.0701
0.982122
1.01192
0.669963
1.27625
0.403488
0.488983
3.569
0.369575
0.0877246
1818.08
1745.67
1866.47
1774.88
1626.88
1743.23
1771.15
1734.92
1082.94
1507.98
1509
1432.65
1410.06
1743.79
1773.23
1760.12
1440.74
1373.42
1158.57
1088.23
1223.04
1279.16
1221.99
939.892
918.766
1149.94
1077.89
1323.97
1136.99
1057.06
1009.57
983.814
1148.56
945.19
1033.93
871.227
-96.9884
106.892
584.076
-45.4967
583.621
-26.3477
32.6948
-176.981
-177.002
-168.715
-171.463
-172.91
-176.631
-175.819
16.997
18.5943
16.9899
19.0223
21.1906
213.368
64.0048
24.9969
25.7537
27.423
65.3352
133.475
422.304
144.761
362.81
413.986
424.884
416.91
425.782
24.4334
31.7472
23.8178
25.3117
23.8571
274.168
249.13
321.978
292.865
293.23
232.312
246.814
304.706
303.406
333.791
212.047
237.61
272.632
234.707
48.1289
40.7393
132.658
42.9844
34.2255
67.7562
105.204
656.995
222.766
546.609
2515.13
1107.53
2239.86
2180.94
2630.45
2864.51
2034.22
2682.59
984.84
3157.99
2290.27
2488.88
2792.11
526.79
756.657
668.753
-61.8963
436.292
-99.9618
317.485
449.043
2631.17
1764.63
1240.7
1137.43
1212.13
610.088
1075.39
1091.91
1158.15
1153.84
1160.21
1123.38
-34.8171
20.0926
45.7863
-56.1023
-69.6837
-15.2728
271.921
8.38754
10.9512
8.93148
6.54716
9.89744
7.23585
6.68926
9.71855
9.94843
9.66612
9.2235
9.69297
9.53282
9.00367
10.2916
10.1404
7.79221
9.03426
10.263
10.5249
11.5963
4.81005
2.09244
2.75407
5.40425
4.9919
6.72386
3.5093
7.01299
5.83839
9.15216
7.54234
5.14192
16.2628
32.6507
2.31235
2.05421
2.24467
2.31897
2.82972
2.33282
2.45723
5.26258
1.48168
9.46899
1.18652
1.32709
1.76501
1.48333
7.33505
3.31488
6.91205
7.76743
6.65275
4.39448
1.98439
1.10943
4.24513
8.61166
7.64007
4.08399
1.05352
2.90436
6.02173
4.43679
2.82394
1.23672
1.14477
1.36795
4.40118
11.5531
5.21281
-0.228007
-0.0383347
0.0867877
-0.515528
-0.529581
-0.235951
-0.422944
1.33329
0.132946
2.56693
-0.827857
-0.110988
1.9795
0.559919
0.343805
0.204792
1.79721
1.66655
2.28827
0.282147
0.0634191
0.314319
0.273563
0.289702
0.36525
0.465241
0.353648
0.375891
0.443868
0.352533
0.420187
0.502949
0.408261
0.485572
0.398829
0.568011
0.439589
1.84255
2.17433
1.48159
2.16635
5.40038
4.27678
3.99197
14.7353
3.10336
9.45187
13.6372
0.392046
142.411
59.2515
145.141
23.4259
84.2089
23.4914
105.276
340.381
566.002
565.623
578.641
171.402
256.428
404.223
126.579
565.821
139.136
1136.39
1767.8
1328.24
1265.12
900.209
472.246
1779.46
1821.82
1590.19
1625.24
1361.87
1496.89
1611.31
1296.4
1380.97
1505
1176.12
1102.73
645.481
1089.12
1127.74
930.382
658.145
887.306
850.989
627.249
894.656
981.608
965.935
946.561
29.9705
45.4913
29.5761
28.9678
31.6165
76.798
46.131
30.0238
31.0849
31.1672
31.2005
39.2114
18.2106
45.6809
17.8257
20.9247
19.259
21.8783
22.8481
18.7522
19.0219
23.778
24.2967
48.5795
24.4414
46.0856
175.949
38.302
17.3129
17.1144
18.829
18.5154
18.4749
28.031
19.4408
18.1289
17.4216
17.8771
19.5919
17.8336
120.662
61.7303
423.474
19.1367
43.2904
55.5023
48.3242
29.8886
33.7468
130.213
16.7358
18.0647
17.1232
16.2503
132.222
442.531
277.759
111.926
18.2772
45.1347
126.279
116.299
227.389
149.961
299.576
82.0032
82.3512
171.049
101.355
32.1307
195.877
178.968
121.64
137.72
159.419
19.5832
123.583
1.69164
144.252
113.606
614.311
284.125
774.106
277.943
247.194
285.661
360.522
1305.73
1294.95
1323.09
1306.45
1136.46
1289.14
1175.2
1453.24
1422.74
1231.51
1434.83
1454.33
1502.33
1418.33
1297.51
1085.17
1189.8
1099.04
1373.16
1464.53
512.058
520.185
648.262
1250.75
1003.49
919.157
878.614
1152.69
832.592
570.436
521.539
515.761
900.215
699.074
1119.52
1204.04
1.30074
1.31725
1.37887
1.26781
1.43903
1.28154
1.36132
1.25057
0.944307
0.965947
1.00922
0.772512
0.921366
0.736595
0.0631637
0.352424
-0.200373
-0.35123
-0.238427
-0.332138
-0.206945
0.486642
0.677021
0.445478
0.447478
0.492436
0.558452
0.396065
0.458068
0.488771
0.499293
0.238112
0.0771563
0.199537
0.167905
0.262698
0.15944
0.0156995
0.100743
0.214655
0.262066
0.0326543
0.176483
0.0117064
0.0178501
0.0370038
0.0502667
0.0605948
0.0704073
0.0596231
0.0778551
0.0651601
0.0961033
0.0413028
0.00497924
0.048456
0.0701575
0.0499079
0.0392644
0.0197058
0.0261897
0.0366399
0.0208017
0.0332947
0.0535308
0.00369975
0.468451
0.353201
0.427078
0.42909
0.428609
0.393595
0.336264
240.461
232.97
241.624
16.7196
74.121
204.613
164.227
21.1768
6.10337
6.80981
5.82723
21.4795
32.7071
207.621
383.471
51.0147
110.429
1.57533
1.33993
2.22224
2.23458
1.5071
1.34166
1.32967
15.9073
25.9609
21.0651
126.585
111.722
68.2135
68.353
1878.46
426.44
466.471
1115.51
1840.28
737.316
1843.71
215.539
198.952
1582.74
1399.57
755.502
770.179
1872.44
1834.04
1806.37
1702.42
1691.35
1661.33
1788.11
1757.99
1657.56
1784.65
972.577
1415.66
1729.54
1699.98
1320.2
854.516
313.558
253.963
928.279
8.43657
9.15814
241.871
807.734
882.729
911.237
1493.2
1463.45
994.945
621.163
1028.26
1204.33
1050.21
1113.62
1247.78
1128.89
1108.67
1232.77
774.409
382.927
423.331
795.586
59.9429
96.2074
25.3421
-44.7033
-16.2508
91.8039
99.1183
-3.1738
40.9012
1267.16
598.732
75.8641
96.4075
78.8934
681.457
163.874
83.7378
85.8646
23.0013
18.7269
14.2472
13.1553
13.26
11.8051
12.2217
15.3434
15.7081
16.247
16.2919
21.7819
19.7218
15.6028
13.2556
13.1647
15.668
13.8551
13.1072
12.4306
13.0927
19.1029
19.0802
20.1958
23.2287
18.5655
24.1962
20.4024
78.3275
363.7
74.1358
63.0133
46.3717
256.266
65.1391
69.8582
154.924
499.376
204.237
324.878
506.228
115.554
227.634
171.393
116.996
253.744
293.141
283.122
161.536
112.753
216.447
170.075
39.5655
111.34
81.6839
108.227
-18.2388
80.8165
282.451
235.157
179.499
449.723
484.774
486.336
609.89
589.54
526.438
433.622
177.906
60.7873
259.734
366.771
178.712
208.854
384.737
202.388
107.394
156.186
398.768
10.4475
-31.001
78.103
213.261
556.079
527.125
541.804
586.761
542.548
603.086
540.745
400.39
244.781
432.25
389.252
242.397
561.859
479.897
442.276
488.217
176.848
326.779
343.347
262.373
324.886
277.971
250.401
271.878
241.307
110.897
108.022
176.425
92.0158
98.633
98.846
107.063
300.167
167.435
161.274
166.072
167.307
163.484
165.63
275.254
245.265
349.78
228.695
219.365
239.048
240.496
782.529
866.225
941.255
972.764
1006.88
962.182
941.97
471.959
687.659
1048.58
1023.26
1070.62
1046.18
1043.52
996.178
960.161
830.924
974.299
949.324
1014.05
959.808
905.831
1063.7
973.558
998.772
836.831
1102.24
1017.94
951.435
1037.97
1048.73
970.26
1106.28
1195.23
1113.54
1014.23
1059.43
1152.78
1063.33
948.165
1048.05
866.575
1006.11
1038.95
814.478
867.516
829.303
633.678
863.133
819.169
881.398
835.764
516.485
341.339
407.509
360.372
412.455
777.499
569.85
75.6015
-232.327
176.22
302.147
351.683
-5.5594
-252.281
1106.44
1500.26
1597.9
405.165
767.416
1488.56
83.187
4.3037
521.674
474.305
5.70755
-2.77678
100.484
-378.923
-383.568
-179.183
382.564
-3.68424
22.3608
263.072
259.511
234.998
263.796
168.93
161.084
449.303
287.344
117.596
218.822
102.546
111.438
103.965
211.469
132.201
99.5222
173.255
96.375
111.022
197.486
247.107
225.772
17.4377
17.3766
19.1071
18.3957
18.9627
16.8521
17.3513
14.9907
15.454
15.7304
15.5079
15.6585
15.5585
15.4562
12.7216
13.514
14.2214
14.8164
14.8006
13.1868
13.4115
14.8086
14.1051
13.8673
13.2357
13.4661
14.3651
14.1237
14.116
13.7948
1569.81
1552.63
1296.4
192.076
953.541
1572
636.523
1509.75
1547.14
1116.7
1087.26
1327.05
1601
1576.23
1534.81
1438.18
1533.91
1677.27
1413.56
1708.25
1071.5
23.6948
901.133
3.32078
1.61964
13.5828
62.9439
578.548
1.416
1.64168
1.70154
1.23889
1.01899
1.2099
1.12097
1.20397
1.11595
1.25517
1.20246
1.19469
0.938
1.16556
0.956598
0.912412
0.868107
0.519816
0.599138
0.845446
0.384636
0.23108
0.275889
0.43963
0.114766
0.322131
0.469416
0.689217
0.629035
0.517818
0.707062
0.110468
0.166551
0.4863
0.301452
0.541193
0.727835
0.564006
0.589195
0.651589
0.670996
0.670826
0.742561
0.694474
0.620129
0.422667
0.533074
0.48077
0.374701
0.320588
0.165929
0.317341
0.209599
0.154189
0.155829
0.316395
0.227847
0.0389654
0.0567943
0.0629173
0.123018
0.0430974
0.062276
0.101007
0.00995934
0.0276731
0.0493285
0.0164963
0.143732
0.0488883
0.0239799
-0.0299607
0.0225722
0.00968634
0.0935956
0.0560888
-0.022556
0.0353492
0.0191684
-0.034291
0.00134379
0.110732
0.0025972
0.0354712
0.00411057
-0.00745082
-0.0420284
-0.206591
-0.245868
-0.567539
-0.285892
-1.1338
-0.674259
-0.377274
-0.526385
303.088
305.375
294.978
34.4896
300.998
10.4161
84.8774
330.264
272.901
26.0193
380.851
242.288
372.821
81.5998
176.361
179.029
0.614497
1.20345
0.420743
0.448743
0.415598
1.11807
2.78267
0.561995
0.48213
609.979
226.083
213.102
3.82965
4.12498
17.2823
192.724
0.832289
1.00833
0.996785
0.856639
0.893538
0.912048
0.991357
0.963102
0.894619
0.788043
0.631938
0.817661
0.733867
0.748106
1.14438
1.1227
1.12735
1.06839
1.1287
1.07288
1.06028
0.970421
0.967316
1.20724
0.911029
1.09825
1.10506
1.18266
1.10666
0.96697
1.20973
0.950959
0.941443
1.29799
1.15862
1.1887
1.43772
1.23119
1.26899
1.60235
60.8192
234.127
55.475
1399.81
171.228
1336.33
158.593
1.69512
1.74942
2.37569
3.30077
2.77127
1.08522
1.57751
1.39346
1.17952
0.988364
1.12544
1.20306
2.68585
4.71403
1.19636
1.11437
323.287
72.3469
0.44542
21.0061
55.4255
65.6565
80.4401
15.8558
84.6762
82.1582
22.5531
26.4367
12.1473
31.5256
8.56244
29.6157
-2.04333
51.6519
24.8676
62.9628
56.424
36.8997
49.1639
29.5199
30.8678
39.825
0.260379
5.18973
22.4983
0.412864
32.8307
121.216
51.1979
94.5215
38.9334
66.9266
102.629
105.055
1.74292
19.5364
74.5812
0.683691
25.9038
73.3252
16.6353
16.7785
81.9946
26.5537
19.1695
17.5866
41.4829
15.984
55.5888
54.6349
29.2086
0.767035
47.8571
37.9271
63.5492
24.2436
39.6368
51.4891
29.5402
31.8877
30.021
16.1051
2.27309
29.8091
72.3624
14.6478
1.38312
67.4586
2.71975
53.2835
28.4919
23.7565
23.9345
49.2857
24.6647
21.4749
22.3913
23.7788
82.1318
23.1127
23.4838
189.725
407.896
284.346
263.807
20.983
268.043
560.435
554.778
414.266
487.88
681.727
555.899
638.49
476.304
506.797
467.719
507.876
507.888
568.985
480.212
694.512
567.687
670.289
650.798
644.008
604.342
591.504
545.048
516.328
647.572
593.935
564.887
630.419
731.646
768.796
750.794
767.451
665.671
753.087
665.389
893.194
793.983
798.137
771.455
828.744
843.96
826.696
682.344
739.845
701.933
662.199
657.91
808.249
777.361
892.359
778.883
796.508
686.085
727.417
677.269
595.243
655.523
194.071
395.467
222.775
357.553
535.32
452.967
238.811
539.44
367.925
288.374
554.837
429.666
426.771
417.586
529.891
392.118
-468.941
-26.3724
-183.352
-436.832
-525.512
-484.429
-410.066
-523.023
-323.013
-496.037
258.254
239.384
162.249
-37.3194
205.337
-47.2748
159.547
369.558
176.723
202.405
204.727
483.102
417.545
578.355
288.248
448.729
342.262
434.753
429.99
532.972
420.057
131.888
277.719
650.221
610.487
616.118
573.618
501.642
519.764
603.868
644.858
642.016
624.031
701.405
326.746
112.106
672.956
442.496
302.259
337.7
245.972
233.967
433.651
450.441
538.214
192.447
256.987
265.747
210.835
212.159
109.974
102.363
111.978
124.535
194.845
122.329
126.02
13.0875
11.1064
16.2074
125.327
37.1267
10.8999
13.4257
12.0076
12.2099
11.0699
11.6262
12.1459
11.6421
11.7584
12.1039
9.83357
11.0603
11.8491
11.5591
11.5733
12.4455
12.6051
19.0705
15.993
19.0613
16.8409
12.501