/*--------------------------------*- C++ -*----------------------------------*\
| =========                 |                                                 |
| \\      /  F ield         | OpenFOAM: The Open Source CFD Toolbox           |
|  \\    /   O peration     | Version:  v2012                                 |
|   \\  /    A nd           | Website:  www.openfoam.com                      |
|    \\/     M anipulation  |                                                 |
\*---------------------------------------------------------------------------*/
FoamFile
{
    version     2.0;
    format      ascii;
    class       surfaceScalarField;
    location    "0.55";
    object      phi;
}
// * * * * * * * * * * * * * * * * * * * * * * * * * * * * * * * * * * * * * //

dimensions      [0 3 -1 0 0 0 0];
oriented        oriented;


internalField   nonuniform List<scalar> 
13152
(
9.71972e-07
2.02725e-05
-1.60519e-06
-1.96392e-05
1.86932e-05
-1.7117e-05
-6.0426e-07
-3.47559e-06
4.24413e-05
-3.46549e-05
3.54116e-05
-2.36193e-06
2.12095e-05
-7.55037e-05
2.8521e-05
-2.44285e-05
6.04571e-05
-1.61105e-05
-2.95631e-05
-2.84221e-05
7.40957e-05
3.87116e-07
-1.67971e-05
2.99436e-07
-2.99102e-05
7.34286e-07
7.85135e-06
5.16025e-06
-2.98087e-05
7.82353e-06
3.27252e-07
-5.07866e-06
-1.55199e-05
-2.98286e-05
-8.65048e-06
-1.46314e-05
-5.13665e-06
2.84185e-05
-7.2523e-08
-8.66557e-06
8.76158e-08
-1.41565e-05
-5.47366e-07
5.65965e-06
-3.05701e-05
1.62448e-05
-2.93478e-05
2.98708e-05
2.93691e-05
-5.25987e-07
3.55636e-08
-1.52282e-05
-2.99045e-05
1.11439e-07
-7.49414e-05
3.26425e-07
1.6006e-05
3.0232e-05
-3.4805e-08
7.46565e-05
3.5805e-05
1.26672e-05
2.53896e-05
-7.38619e-05
3.50408e-07
-6.97106e-07
3.61517e-05
1.24134e-05
2.64054e-07
-1.87637e-05
7.36184e-05
7.78451e-05
2.91371e-05
-7.32607e-07
-2.9379e-05
9.74494e-07
-1.6394e-05
-2.68834e-05
7.24145e-05
1.79029e-07
-1.73056e-05
-8.07375e-06
8.00518e-06
2.47597e-07
5.2968e-06
-3.06761e-05
-4.96078e-06
-1.39175e-05
-2.9043e-05
-1.37997e-05
1.29843e-07
2.91425e-05
2.29377e-07
8.54375e-05
1.05909e-06
-3.62871e-05
-5.02094e-05
-4.24427e-05
-4.1712e-07
0.000128297
-2.02406e-05
-2.11431e-05
-7.92387e-05
-4.49521e-05
0.000123774
-9.43401e-06
-0.000106092
1.15286e-05
-5.89397e-06
-2.58752e-05
2.69133e-06
-1.23058e-05
-2.28287e-05
-1.9432e-05
-3.81567e-05
-9.14394e-06
2.61479e-05
-5.33014e-07
-1.64709e-05
4.35702e-05
-1.20175e-05
-4.06968e-05
-4.50708e-06
-4.77891e-05
1.68656e-05
2.36484e-05
-5.25316e-05
3.76435e-05
-2.13113e-05
-7.14751e-05
0.000104611
-9.56165e-05
-4.33244e-06
-1.48038e-05
-5.02582e-06
2.41621e-05
-9.18901e-06
-1.07725e-05
1.5629e-05
-1.53938e-05
-8.59965e-06
1.21159e-05
3.3948e-05
-6.14579e-05
3.4761e-05
-3.12453e-05
-9.64002e-06
3.9375e-05
1.35351e-05
6.03974e-06
2.18024e-05
3.40566e-05
-6.18987e-05
9.59702e-06
2.14321e-05
-2.49893e-05
1.96616e-05
1.17379e-05
1.63474e-05
2.85865e-05
-2.35017e-05
2.28217e-05
2.75828e-05
-2.89191e-06
5.11405e-05
3.16688e-05
-2.57743e-05
-1.91984e-05
5.77805e-06
3.91946e-05
5.41275e-06
1.15344e-05
-4.27215e-05
2.98639e-06
-1.6772e-05
2.10461e-05
1.10074e-05
-2.0519e-05
-2.16027e-05
4.8427e-05
-3.745e-05
1.88338e-05
-4.32145e-05
4.26421e-06
-6.15522e-06
-3.30593e-06
5.19693e-06
-1.96075e-05
1.05794e-05
1.32923e-05
8.97211e-06
-3.47348e-05
1.31403e-05
-1.95421e-06
-1.4492e-05
-4.94649e-06
2.32838e-05
-7.23375e-06
1.28667e-05
-2.15838e-07
-1.07019e-05
6.24007e-06
1.95395e-05
-1.50776e-05
1.56896e-05
2.16947e-05
-4.80863e-05
1.06917e-05
1.1238e-05
1.13668e-06
-8.64138e-06
1.81964e-05
-2.34861e-05
3.58608e-05
-3.43652e-05
4.74185e-05
-3.83118e-05
-1.59018e-05
-2.19913e-05
-1.62933e-05
5.41864e-05
1.1221e-05
-1.31451e-05
-1.39777e-05
-3.14614e-05
2.06911e-05
-2.74735e-06
3.03205e-05
-4.07183e-05
1.77534e-05
-3.44785e-05
3.55181e-05
-4.92261e-05
4.95454e-05
1.58596e-05
-1.6062e-08
-1.57066e-05
-1.36973e-07
-3.45388e-05
-1.02896e-05
6.06881e-05
-2.10707e-06
-3.24478e-05
-8.81926e-06
-5.87167e-05
5.72463e-05
-5.47476e-05
3.02217e-05
-5.14245e-05
-9.39928e-06
-0.00013862
3.34068e-05
2.78768e-05
6.00836e-05
-0.000121367
-2.99351e-06
1.51465e-05
2.12539e-05
8.77308e-06
1.61102e-05
2.6943e-05
4.82871e-05
-2.21131e-06
3.79274e-05
3.51528e-05
-9.28622e-06
1.22208e-05
6.90404e-07
-3.62501e-06
1.15176e-05
1.01138e-05
1.45741e-05
2.82891e-06
2.09095e-05
1.18721e-06
2.54703e-06
6.3796e-06
3.02739e-06
1.2734e-05
-3.82843e-06
9.68476e-06
-5.90981e-07
2.60627e-05
2.25761e-07
-2.47137e-05
-1.57481e-06
-2.61017e-05
-2.73379e-05
7.95024e-05
-3.42144e-07
-2.55338e-05
-2.84219e-05
2.84484e-05
-3.68663e-07
2.54898e-05
-7.94455e-05
-1.81304e-06
2.92353e-06
-1.03695e-06
-1.20596e-05
-0.000210485
7.60309e-05
0.000146513
-0.00013469
4.94301e-05
7.32005e-05
0.000154773
0.000231217
4.88341e-05
3.84438e-06
-3.24838e-06
-2.02229e-05
0.000145088
0.000149509
9.1091e-06
0.000360502
-7.0513e-06
-7.90921e-06
8.09072e-06
6.86978e-06
-5.95275e-06
1.79425e-05
-1.90411e-05
1.27871e-05
-2.66491e-05
4.29268e-06
-1.97873e-05
2.35854e-05
-1.12392e-05
2.24016e-05
-1.72634e-05
2.39667e-05
-2.42636e-05
8.81036e-06
2.55295e-06
1.71494e-05
-2.85127e-05
-1.32023e-05
1.30025e-05
9.01014e-06
2.74501e-05
-3.80994e-05
2.24905e-07
-2.12149e-05
3.39925e-05
-1.527e-05
2.45051e-05
-1.59758e-05
2.81559e-05
-2.00413e-05
-1.57309e-05
-1.68403e-05
-7.8675e-06
4.04386e-05
-2.17501e-06
5.87585e-06
-1.94319e-05
-2.48163e-05
5.80066e-06
-4.3032e-05
2.20562e-05
2.68517e-05
-4.2231e-06
-5.8241e-05
3.77428e-05
-6.67823e-05
5.19312e-05
3.04442e-05
4.30091e-06
-1.59415e-05
-1.88035e-05
-1.65529e-05
-1.6913e-05
6.39101e-05
1.0587e-06
-1.33107e-05
4.45372e-06
-2.81968e-06
-1.75756e-05
-7.71358e-06
-4.74574e-06
-2.79228e-05
3.15381e-05
-2.55661e-06
-8.07147e-06
-3.3162e-05
-4.72242e-06
2.85469e-05
-1.56136e-05
3.35859e-05
-3.53866e-06
-2.89804e-05
-1.0668e-06
-3.80559e-05
-2.70579e-05
9.86998e-05
-2.12338e-05
-2.03607e-05
1.70736e-05
1.78561e-05
3.2087e-05
-1.60801e-05
1.02067e-05
-5.17763e-06
6.82925e-06
0.000112179
-1.53946e-05
-0.000148718
5.19334e-05
-4.86289e-05
-0.000115994
0.000276803
-4.97549e-05
-1.42684e-05
-3.53946e-05
-0.000164115
5.0791e-05
-9.74256e-05
-5.39629e-05
7.87602e-05
9.38897e-05
-0.000222405
0.00012563
-6.1138e-05
-0.000214867
0.000243072
-0.000285092
4.16957e-05
1.92311e-05
6.08044e-06
-6.70072e-05
-5.8354e-06
2.16408e-05
2.58904e-05
1.07212e-05
2.67464e-06
7.09415e-06
6.64185e-06
-7.65539e-06
3.52999e-06
2.52051e-05
4.94749e-06
4.76004e-06
1.0137e-06
-1.60089e-05
2.36311e-05
4.54463e-07
-9.8215e-06
8.74459e-06
-4.72248e-06
9.15108e-06
-2.28717e-05
1.84431e-05
1.62283e-05
-1.06245e-05
-1.03262e-05
-3.53624e-05
6.07418e-05
1.42343e-05
2.59805e-05
-5.08393e-05
2.97987e-05
2.65493e-05
-3.59311e-05
3.34763e-05
3.48453e-06
-6.21001e-06
-3.09257e-06
5.81805e-06
-2.03729e-05
1.45195e-05
9.33793e-06
1.23815e-05
-3.89643e-05
9.74657e-06
-8.91111e-06
-3.92799e-06
-2.07295e-05
3.62942e-05
1.28252e-05
-1.90352e-05
1.62957e-05
-2.52455e-05
-4.30658e-06
2.79077e-05
1.6444e-06
4.33477e-05
-9.73308e-06
-5.88602e-05
3.30409e-05
6.00028e-06
-8.12998e-06
-2.92652e-06
3.69045e-05
-4.339e-05
5.94014e-06
2.12313e-05
3.60546e-05
0.000124819
0.000116653
0.000120803
-0.000362276
-4.36512e-06
0.000114549
1.4636e-05
0.00011756
-5.27161e-06
-0.000136861
-0.000105336
0.000359757
-0.00012264
-1.94933e-05
1.45771e-05
-1.64137e-05
2.37897e-05
1.61477e-05
4.07966e-06
-1.69481e-05
-3.2792e-06
-2.042e-05
-1.35168e-05
5.00844e-05
-3.47802e-05
1.84398e-05
1.95563e-05
1.42034e-05
-5.07079e-05
2.84866e-05
-1.22095e-05
-3.56242e-05
5.05939e-05
-5.62011e-05
2.60307e-05
7.63345e-06
-1.39617e-05
-1.97025e-05
-1.68063e-05
-7.87081e-06
-1.83934e-05
9.22049e-06
-1.72513e-05
-1.40548e-05
2.34353e-05
-2.11538e-06
-2.90976e-05
3.55769e-05
-5.60856e-05
3.07425e-05
-2.10652e-05
-1.25115e-05
1.73734e-05
1.62033e-05
1.95472e-05
3.07234e-05
-7.13359e-05
4.56101e-05
-3.85744e-05
-7.12588e-06
-2.46426e-05
4.91419e-05
-4.17618e-05
3.10727e-05
-4.2111e-05
5.20402e-05
-6.67885e-06
-8.97869e-05
6.60724e-05
3.03933e-05
-6.52444e-05
5.99354e-06
5.2572e-05
8.58117e-05
-0.000240843
5.50216e-05
-6.32791e-05
1.42512e-05
-3.98944e-05
0.000147488
1.54728e-05
7.05995e-06
4.1651e-05
-3.71883e-05
1.64145e-05
4.21142e-05
-2.13405e-05
6.68499e-05
-5.3382e-06
5.45005e-05
2.87642e-05
-0.000109062
3.61365e-06
0.000147563
-8.26643e-05
-4.77381e-05
-2.88402e-05
-1.29113e-05
4.53653e-05
-1.55915e-05
-9.59129e-05
2.39236e-05
-4.48533e-05
6.55129e-05
-4.89893e-06
-1.17257e-05
8.75265e-06
7.87195e-06
-1.24557e-05
1.33574e-05
1.0811e-05
-3.49924e-05
1.20894e-05
-1.94168e-05
-1.0797e-05
3.07583e-05
1.35397e-05
-1.95991e-05
1.35538e-05
5.89723e-06
3.55054e-06
-9.49555e-06
4.7781e-08
-8.71169e-06
-5.56191e-06
2.01709e-05
-1.16109e-05
6.44989e-06
2.98188e-05
1.748e-06
-4.10622e-05
1.05571e-05
1.93096e-05
-2.15559e-05
2.65513e-05
-3.14183e-05
-5.10535e-06
3.49824e-06
4.14967e-06
-2.54255e-06
1.18765e-05
9.69192e-08
-1.70787e-05
3.5428e-06
1.18319e-05
-3.525e-06
6.78702e-06
8.87648e-07
7.92363e-06
-1.13517e-05
1.44743e-05
-2.27089e-05
1.17773e-05
-1.70397e-05
4.3346e-05
4.58763e-06
-1.93729e-05
-5.66509e-06
-4.55521e-06
-4.77984e-07
7.70824e-06
-2.67505e-06
1.55506e-05
-3.6882e-07
-1.9737e-05
-2.99223e-06
1.80648e-05
5.63774e-06
1.51881e-05
-2.11947e-05
3.12381e-05
-1.78921e-05
3.84319e-05
-2.6236e-05
8.77347e-05
-6.19974e-05
-1.9575e-05
-3.70253e-05
0.000118598
1.88265e-06
-6.33989e-05
-4.81051e-07
-1.95059e-05
1.81364e-06
1.98157e-05
1.08066e-05
-5.01282e-05
1.92814e-05
2.34798e-06
0.00010007
-4.02702e-05
-0.000123199
-5.63575e-05
0.000119402
7.8736e-06
-3.73372e-05
-2.92024e-05
1.29385e-05
7.76113e-06
-4.04366e-05
-7.62862e-06
-2.10622e-05
1.36163e-06
4.92661e-05
-3.8727e-05
-1.19007e-05
2.50222e-05
-2.48099e-05
1.14926e-06
-4.31995e-05
0.000117488
9.80368e-06
3.99778e-06
-3.86114e-05
1.13427e-05
-3.89744e-07
-8.10009e-06
-2.37567e-05
-4.28294e-05
1.0635e-05
5.48264e-06
1.51646e-05
-3.12822e-05
8.66775e-06
2.47092e-05
-2.27419e-05
6.74218e-06
7.40823e-06
-3.2692e-05
1.91436e-05
3.82575e-05
3.44757e-05
-5.2003e-05
1.27563e-05
2.84615e-05
3.93082e-05
5.83909e-05
-2.91764e-07
-5.62311e-05
-1.86797e-06
-3.57111e-05
-1.84599e-05
0.000112562
-2.71981e-05
-8.80465e-06
1.36262e-05
-1.73428e-05
-5.25145e-05
-1.61372e-05
1.13034e-05
1.92816e-05
1.40677e-05
-6.05474e-05
3.06863e-05
-2.02093e-05
-2.72896e-06
1.7278e-05
-6.00393e-06
-1.26101e-05
2.34092e-05
-2.44326e-05
1.36335e-05
3.95779e-05
-1.62561e-05
-3.5932e-05
-4.88147e-06
6.78684e-05
3.70111e-05
-1.52502e-05
-4.61935e-05
5.52093e-06
4.51237e-05
3.85673e-05
-7.00736e-05
3.92067e-05
-2.05074e-05
-2.27029e-05
-2.07894e-05
6.39997e-05
9.83439e-06
-1.17523e-05
-1.85895e-05
-4.12704e-05
2.84019e-05
-1.21717e-05
4.18294e-05
-4.141e-05
2.30739e-05
-5.38351e-05
4.08964e-05
-5.90929e-05
6.19363e-05
9.37137e-08
-4.2308e-05
2.23727e-05
1.98415e-05
-1.59805e-05
1.50861e-05
9.88088e-07
5.71128e-06
-2.60618e-05
-1.171e-05
5.28579e-05
-2.75578e-05
2.48411e-06
-4.2596e-05
-1.73517e-05
4.82376e-05
-1.23423e-05
-5.78115e-05
1.35463e-05
-2.01773e-05
1.85673e-05
4.25287e-05
3.46228e-05
6.08989e-06
-8.32414e-05
5.54594e-06
4.07807e-05
-3.79794e-06
1.74035e-05
2.27653e-05
1.47211e-05
1.36426e-05
-2.22738e-05
1.39909e-05
4.15109e-05
-1.67113e-05
-4.15628e-05
7.56775e-05
-3.76889e-05
4.37429e-05
-1.70964e-06
-2.19884e-05
-2.96298e-05
3.80135e-06
2.22347e-06
-4.03216e-06
-1.99266e-06
-7.33949e-06
-2.08903e-06
1.32299e-05
9.96007e-07
-6.11204e-06
-1.63393e-06
-1.35502e-05
1.30951e-05
-1.12019e-05
5.53578e-06
-1.16171e-05
-9.37103e-07
-2.8931e-05
-4.86145e-06
-5.77078e-07
6.32617e-06
1.02402e-06
-6.88133e-06
9.9586e-07
-2.09562e-06
1.10892e-05
-3.02635e-05
-7.14387e-06
-1.82033e-05
-3.89326e-06
2.7236e-06
1.03589e-05
-3.5706e-05
7.46146e-06
8.12254e-06
-2.55532e-05
-1.79793e-05
-1.10352e-05
5.45677e-05
1.92375e-06
-2.88358e-05
1.3587e-06
-1.75854e-05
1.52974e-06
2.07389e-05
8.98422e-06
-4.73085e-05
2.34982e-05
-1.22961e-06
2.7346e-05
-4.71977e-05
3.98088e-05
-3.47194e-05
-1.85559e-05
-2.2622e-06
5.55376e-05
7.37277e-06
-1.42265e-05
-2.78657e-05
-1.35419e-05
2.35872e-06
1.31208e-05
7.9755e-06
-3.46382e-05
2.42078e-05
-8.72822e-06
2.26534e-05
-2.89044e-05
4.4599e-05
7.10648e-06
3.7911e-06
5.01375e-06
-1.59113e-05
1.75609e-06
8.09146e-06
-2.74107e-06
-7.49554e-06
1.30427e-05
-1.83378e-05
2.28951e-05
3.53416e-06
1.26547e-05
-3.37336e-05
-6.80024e-06
5.577e-06
2.41184e-05
1.01838e-05
-4.32935e-06
2.65553e-06
3.27222e-08
1.32463e-05
1.42813e-05
-2.84293e-06
-2.46173e-05
1.31789e-05
-1.4722e-05
-1.64892e-05
4.54924e-05
-4.30214e-06
-1.32628e-05
-8.42454e-06
1.69075e-05
-1.27851e-05
1.50308e-05
-3.67181e-05
5.73371e-06
-5.31542e-06
-3.85287e-06
-9.81382e-06
4.57496e-06
-1.90027e-05
2.42415e-05
1.18447e-05
-1.22376e-05
-9.42087e-06
-2.17751e-05
3.81948e-05
8.24488e-06
6.57627e-06
-2.70588e-05
1.77662e-05
-1.89422e-05
3.2477e-07
5.74414e-06
5.07345e-07
9.12719e-06
8.96378e-06
-8.86261e-08
-1.25593e-05
-1.33472e-05
1.57354e-05
6.54965e-07
-1.5509e-05
-8.8134e-07
-2.30463e-05
-1.78755e-05
5.66571e-05
-2.29819e-05
5.90513e-07
1.68693e-05
2.47901e-05
-5.71684e-05
2.35234e-05
-7.5356e-06
2.6653e-06
2.9819e-06
4.47246e-06
1.26685e-06
-4.06767e-05
-1.75932e-06
4.11692e-05
-4.21559e-05
3.98658e-05
3.55701e-06
3.85768e-05
-0.000121409
4.45276e-05
-4.08364e-05
-5.45055e-06
-3.91456e-05
0.000124842
-2.91396e-06
3.63411e-06
-5.1736e-06
-2.57397e-05
1.49182e-05
-6.29069e-06
1.71121e-05
5.41398e-05
9.40058e-07
-8.08195e-05
1.68757e-05
5.21824e-05
1.0393e-05
-1.44192e-05
-2.26434e-06
-5.91079e-06
3.3416e-05
2.16717e-05
-3.51509e-05
3.26365e-05
-8.16811e-06
6.71573e-06
1.50878e-05
-1.36355e-05
2.22322e-05
3.92153e-05
-6.96155e-05
1.66437e-05
1.23043e-05
-8.45046e-06
1.79728e-05
2.96929e-05
6.06112e-06
5.76493e-07
1.63078e-07
2.25419e-05
3.04406e-05
5.75768e-06
-4.40125e-06
-1.10562e-05
9.69975e-06
-1.67301e-05
-1.94526e-06
2.44329e-05
1.50635e-06
-2.26378e-05
2.98454e-05
-1.93914e-06
-3.89626e-05
5.07419e-06
3.44706e-05
-2.07647e-05
2.38935e-05
-2.11974e-05
-4.02309e-06
-1.02358e-05
-1.82308e-05
3.24897e-05
-1.20793e-05
-2.11428e-05
2.9199e-05
-9.65155e-06
-1.26636e-05
-1.06469e-06
-9.18339e-06
-7.98273e-06
-1.00305e-05
-1.2177e-05
-3.65036e-06
2.53871e-05
-3.13882e-05
2.12932e-05
-3.76071e-05
-6.23062e-08
1.54189e-05
1.20475e-05
-7.20387e-06
-1.90752e-05
-3.59194e-05
6.21984e-05
-1.40654e-05
-3.72321e-05
4.40935e-05
-1.99019e-05
-1.32386e-05
-3.82461e-06
4.95386e-05
-6.56159e-05
2.27139e-05
-3.97772e-05
-2.22796e-05
3.45861e-05
-3.54852e-05
-1.73665e-06
4.00077e-06
-3.81736e-06
1.55324e-06
9.955e-06
1.115e-05
-2.28417e-05
2.526e-06
1.14296e-05
1.14384e-07
-3.34698e-06
-5.84831e-07
4.26283e-06
-2.5953e-06
3.20449e-06
4.59838e-06
9.99323e-06
9.04808e-06
5.86969e-06
-5.5293e-06
-9.38847e-06
-2.08209e-06
-4.77156e-06
1.59017e-05
-8.45397e-06
1.22415e-05
6.58178e-06
-6.81655e-07
1.43115e-05
-1.71182e-05
-2.01004e-05
2.96403e-05
-2.92361e-05
-7.70812e-06
1.19485e-06
6.891e-06
-3.77729e-07
5.50378e-06
2.65029e-06
-1.58621e-05
-8.15796e-06
1.48566e-05
6.28201e-07
2.10349e-06
4.15934e-06
-4.85826e-06
5.10879e-06
6.87983e-07
-2.89593e-06
-5.36648e-06
-7.14283e-07
-2.25969e-06
-1.85209e-06
4.82606e-06
-2.43392e-06
-1.98995e-06
3.70958e-06
-2.43848e-06
-2.25515e-06
-2.28264e-06
-4.32086e-06
4.75141e-06
-6.91207e-06
2.63947e-06
5.50613e-06
-1.06986e-06
2.48585e-06
-2.40529e-06
5.02824e-06
1.27874e-06
-4.02246e-06
-2.18422e-06
8.8342e-06
-1.89856e-06
4.16486e-06
1.78251e-05
-9.05415e-06
-1.55277e-05
-1.51402e-05
3.9722e-05
-1.69763e-05
-4.06884e-05
4.86105e-05
-1.75814e-05
-1.49225e-05
3.63207e-05
-7.52293e-05
-1.77972e-06
-7.14659e-05
9.26464e-05
-1.88691e-05
-7.01782e-05
-0.000109021
8.85339e-06
1.8711e-05
-1.94747e-05
-8.08976e-06
-7.4854e-06
-4.70821e-06
2.1047e-05
-1.99088e-05
3.11344e-05
-3.9327e-06
4.92001e-05
-6.47421e-05
6.23397e-05
-7.43621e-05
-4.06513e-05
8.51432e-05
-1.85316e-05
-2.33967e-05
6.29753e-05
0.000110357
-2.38246e-05
2.04618e-05
1.97265e-05
-1.63637e-05
6.70886e-05
-1.2062e-05
-7.88512e-05
1.46163e-05
7.29341e-05
-1.53226e-05
8.45322e-06
2.65959e-05
-8.9893e-06
-2.26969e-05
-8.76786e-06
3.38088e-06
1.38402e-05
-4.70573e-06
-1.30514e-05
2.73926e-05
-4.41602e-05
4.53897e-05
-1.92551e-05
-3.1941e-05
-3.52016e-05
-7.06604e-06
1.65109e-06
-1.89771e-05
-2.00299e-05
-5.57818e-06
-5.23203e-05
-3.76067e-05
-2.21521e-05
-2.10153e-05
2.31374e-05
-5.96077e-07
-6.57162e-05
-5.9218e-05
2.23739e-06
1.14225e-05
-7.23644e-06
-6.42349e-06
1.09619e-05
-1.04296e-05
1.70508e-06
-2.38183e-05
-2.35067e-05
-3.71312e-06
-1.13644e-05
7.84106e-06
-1.34361e-05
-7.0659e-07
4.67958e-06
-4.1934e-05
-3.01915e-05
1.29615e-05
-3.14887e-05
-1.10697e-05
2.95968e-05
-6.62986e-05
4.10836e-05
3.81765e-05
-1.50945e-05
-8.26928e-05
4.59109e-05
-3.14293e-05
-2.55512e-05
5.1717e-06
7.0336e-05
1.60246e-05
-4.17901e-06
-4.32748e-05
-6.81298e-06
2.80093e-05
-1.91314e-05
5.34021e-05
-3.84048e-05
-5.72318e-05
-2.32054e-05
8.57394e-06
7.18633e-05
1.82876e-05
-1.1386e-05
-6.41334e-05
-1.72017e-05
1.22837e-05
3.38162e-05
-1.30198e-05
-3.79981e-05
6.28761e-06
3.98124e-05
3.81468e-05
-6.25526e-05
5.30083e-05
1.06247e-05
7.47952e-06
-1.42381e-05
-3.86609e-06
-7.25231e-06
-1.64926e-05
3.43696e-05
-3.77708e-05
1.29772e-05
1.60825e-05
-4.32978e-05
2.52704e-05
-1.61592e-05
-3.00264e-05
3.88042e-05
-5.17147e-05
2.25094e-05
6.59543e-05
-1.91873e-05
-6.92763e-05
2.68086e-05
-2.43043e-05
2.0005e-05
7.96453e-06
8.47983e-05
5.47166e-05
-9.74716e-06
-6.92737e-05
1.23712e-05
6.23504e-05
-4.85452e-05
6.88809e-05
-7.74796e-05
-4.72875e-05
-1.47511e-05
4.44114e-05
1.76271e-05
6.36734e-05
-0.000155814
-4.69903e-05
-3.468e-05
0.000124457
4.84602e-05
-0.000102479
-6.40885e-06
7.38109e-05
3.50774e-05
7.36544e-05
5.95222e-05
-0.000235656
-9.8654e-07
6.82324e-05
6.82856e-05
-6.68914e-05
-2.38074e-06
-6.8887e-05
0.000205405
1.8766e-05
-2.6135e-05
2.36902e-05
-7.59637e-05
-1.57344e-05
4.51515e-05
4.65466e-05
3.66552e-05
9.79525e-07
-0.000113598
3.17163e-05
-1.07953e-05
-4.61022e-05
-1.07501e-05
8.85686e-05
-4.00781e-05
-1.68193e-05
7.50315e-05
-0.00011413
0.000109433
5.40296e-05
-1.99539e-05
-4.61543e-05
1.20786e-05
-7.23907e-05
-4.54372e-05
0.000171858
-6.73025e-05
-2.50421e-05
9.10918e-05
3.1829e-05
-0.000190223
0.000146822
-8.07727e-05
-0.000104383
0.000205769
-0.000118709
-5.55092e-06
-3.19139e-05
9.13801e-06
2.83268e-05
-1.76737e-05
1.44259e-05
-2.30314e-06
-1.66672e-06
-4.7921e-05
-1.59073e-05
-4.52065e-06
3.48538e-05
-6.49587e-06
-1.17146e-05
1.05482e-05
-1.87108e-05
1.51654e-05
8.4782e-06
-1.68338e-05
-1.35644e-05
2.192e-05
-2.06089e-05
2.11976e-05
7.88948e-06
-5.51812e-06
-3.19247e-05
5.24839e-05
-2.87136e-05
-3.73347e-05
1.08083e-05
6.35956e-05
1.39741e-05
-3.85132e-06
-3.88364e-05
-4.40468e-06
2.91871e-05
-7.54309e-06
2.43358e-05
-1.69127e-05
8.34371e-06
1.87151e-05
3.87892e-05
-6.5848e-05
9.73086e-06
2.52647e-05
-2.66518e-05
1.77997e-05
1.06462e-05
2.27756e-05
4.18868e-05
-3.93977e-05
2.77601e-05
3.38047e-05
-4.73654e-06
6.4423e-05
3.36698e-05
1.8947e-05
-7.2141e-06
-2.89591e-05
1.72262e-05
-1.16796e-05
-1.12184e-05
4.1845e-05
-1.00091e-05
-8.88464e-06
5.85436e-06
1.08978e-05
-2.67612e-05
2.12572e-05
-2.42875e-05
-3.2115e-05
4.21538e-05
-5.01763e-05
-1.84014e-05
-8.34307e-06
1.25495e-06
2.54895e-05
8.59355e-06
-1.5523e-05
-1.14719e-05
1.35421e-05
-1.32916e-05
-2.42453e-05
-7.50124e-06
3.30015e-05
-2.57544e-06
-3.71929e-05
-2.83693e-05
3.44102e-05
-4.42363e-05
-1.35578e-05
-3.35041e-06
-2.26019e-05
3.95101e-05
-4.85163e-06
-8.2158e-06
-4.90406e-07
-4.24055e-06
-3.96147e-06
-5.40329e-06
9.15994e-06
-7.99724e-06
1.06137e-05
-1.99785e-05
9.52159e-06
-2.15098e-05
1.04657e-05
3.2876e-05
2.98969e-06
-2.42202e-05
-1.16455e-05
-2.30836e-05
-1.75435e-05
7.3503e-05
-2.18408e-05
1.74697e-06
5.51584e-06
-2.20368e-05
-7.69926e-06
-2.0109e-05
8.08136e-06
2.45028e-05
-6.83804e-05
6.14081e-06
-6.54104e-05
8.57686e-07
5.774e-05
6.81271e-06
2.66561e-05
2.62858e-05
-0.000118352
1.78402e-06
2.57297e-05
5.4451e-05
-5.29684e-05
3.01477e-07
-3.46706e-05
0.000114851
9.27414e-05
5.52433e-05
-0.000121699
3.59785e-05
0.000114503
1.58167e-06
6.93155e-07
2.88947e-06
-6.75662e-05
-4.43792e-05
-1.29803e-05
0.000124926
-2.29357e-07
-6.70353e-05
-4.54731e-05
8.64469e-07
1.52309e-05
-7.45443e-06
-5.32496e-05
1.58034e-05
2.91966e-07
1.74844e-05
2.39952e-05
-4.89341e-05
5.28614e-05
-1.95735e-05
8.00655e-05
-0.000123106
0.000119947
-5.4187e-05
-1.21972e-06
5.61282e-05
-7.21518e-07
2.15432e-05
4.66714e-05
-0.000122402
-9.48494e-07
2.1272e-05
3.05985e-05
-3.15876e-05
4.06452e-08
-1.0859e-05
6.27294e-05
1.16231e-06
5.60031e-05
-1.03719e-06
4.58906e-05
1.94308e-06
-5.73803e-05
0.000102524
-4.30773e-05
-1.84915e-05
-3.85095e-05
0.00011973
-1.91075e-05
6.56684e-07
1.86792e-05
8.39065e-06
-4.61773e-05
1.8989e-05
3.46851e-07
1.4736e-05
-4.94227e-05
6.01324e-05
-2.64074e-05
0.000124147
-4.22437e-05
-5.86336e-07
3.97123e-05
3.11774e-06
3.45617e-05
4.25969e-05
-2.83877e-07
3.42593e-05
4.27149e-05
-4.01851e-07
-4.27433e-05
0.000119717
-3.43283e-06
2.42263e-05
2.90988e-05
6.12285e-06
-5.9448e-05
-2.24448e-06
2.46616e-05
1.80915e-06
-3.28006e-05
2.01251e-05
-7.68059e-05
4.77232e-06
1.89852e-05
2.4197e-05
-4.79545e-05
1.72814e-05
3.57285e-05
7.4884e-06
2.87782e-05
4.85937e-05
5.12807e-05
2.34993e-05
6.08229e-05
5.29212e-05
5.84791e-06
0.000105199
4.06582e-05
1.73816e-05
4.24049e-05
6.24167e-08
-6.06684e-05
-5.4758e-05
-0.000114182
-1.99379e-05
-4.20856e-06
2.91855e-05
-1.78525e-05
4.74228e-05
1.14466e-06
-3.00002e-05
-3.24721e-05
-1.11326e-05
9.10275e-05
3.76658e-07
-3.17041e-05
5.32756e-05
-8.62869e-06
-7.46471e-05
-4.10984e-05
-4.91758e-05
8.45406e-06
-8.95086e-05
-5.23856e-05
-1.13084e-05
4.17056e-05
2.01393e-05
-3.1014e-05
-1.96997e-05
2.85305e-05
4.9054e-05
-1.98754e-05
6.71403e-06
2.49387e-05
1.89807e-05
8.89365e-06
-4.77498e-05
1.86302e-05
7.06445e-06
-1.53152e-05
-1.87223e-05
5.26677e-05
-3.92648e-05
3.58697e-05
-6.62408e-05
4.2086e-05
-2.09962e-06
5.64273e-06
1.13909e-05
-3.95499e-07
1.42976e-05
6.87978e-07
-2.40798e-05
9.0943e-06
-9.1149e-06
-1.17835e-05
3.5196e-05
2.00929e-06
-1.04362e-05
-9.43591e-06
8.56525e-06
2.87995e-06
8.22886e-07
-2.0695e-05
-1.64895e-05
1.32713e-05
-3.97465e-05
-4.3757e-06
-1.11801e-05
2.9003e-06
1.26555e-05
-3.2714e-07
-3.38326e-06
-6.65308e-07
-1.24082e-05
9.00941e-07
-5.45163e-06
-4.90199e-06
1.32539e-05
-1.5058e-05
6.22313e-06
2.17039e-05
1.48682e-06
-3.55989e-05
1.57116e-05
6.89326e-06
2.33415e-05
-3.69127e-05
3.41512e-05
-5.46397e-06
-1.08116e-05
9.38428e-08
2.53619e-06
7.60152e-06
-4.99927e-06
-4.009e-06
1.40675e-06
-1.25356e-05
2.93311e-06
1.7204e-05
-4.26967e-06
-1.32652e-05
1.46961e-05
-3.03426e-05
1.16375e-05
-1.6778e-05
3.44072e-05
-1.39543e-05
1.31869e-05
-3.50225e-06
3.13565e-06
-3.03552e-05
2.6069e-05
-5.3276e-05
2.24779e-05
-6.88735e-06
-7.09971e-06
-2.02108e-06
1.60081e-05
-2.40335e-06
-5.30805e-06
8.24055e-07
-6.62311e-06
6.99607e-06
-2.09996e-05
8.69543e-06
1.82463e-05
1.32552e-05
-4.05733e-05
-4.74909e-05
-7.7806e-06
-1.3124e-05
1.73889e-06
6.86122e-06
8.99795e-06
4.28827e-07
-1.0739e-05
1.31225e-06
-1.38615e-05
-4.23222e-06
2.70917e-05
5.65229e-06
-1.9085e-05
1.12292e-05
-4.11369e-05
1.91687e-05
-3.32876e-05
4.02845e-05
-4.78584e-05
2.02231e-05
-0.00010808
-1.46709e-05
-6.91427e-06
-2.59057e-05
1.16032e-06
-3.75743e-05
2.17431e-05
-9.25623e-06
2.3767e-05
-6.33785e-05
4.6762e-05
-7.62711e-05
-2.06542e-05
2.9842e-05
-2.40821e-05
1.48812e-05
3.97184e-05
-5.24955e-06
-4.93501e-05
1.31217e-05
-1.15423e-05
1.33019e-05
9.57974e-06
4.32603e-05
3.25022e-05
-2.23015e-05
-6.01987e-07
4.64061e-05
-3.82634e-05
4.72411e-05
-6.58144e-05
-1.21e-05
-2.32995e-05
-2.6217e-05
6.16165e-05
-1.67995e-05
-4.50298e-05
4.97292e-05
-2.60773e-05
-1.40217e-05
2.89316e-05
3.08852e-05
-8.58941e-05
5.84149e-05
-4.3505e-05
4.42792e-05
-5.84237e-05
7.64772e-05
-9.04562e-06
-8.17201e-06
-7.17743e-06
2.43951e-05
-9.13847e-06
1.09625e-07
-1.67726e-08
-1.20371e-05
-5.27338e-06
-1.04245e-05
-2.16859e-07
3.46389e-06
2.09989e-06
-1.24147e-05
7.6637e-06
-1.99177e-05
4.4902e-06
-2.41645e-06
2.95321e-06
-9.94012e-06
9.40336e-06
4.4976e-06
-4.86302e-06
-2.05103e-06
-1.76339e-05
2.50847e-05
-1.65049e-06
1.44922e-05
-1.77047e-05
8.5572e-06
-1.22587e-05
1.20756e-05
-2.11523e-05
1.66277e-05
1.14275e-05
5.13373e-06
-4.50037e-06
-1.20609e-05
-2.87598e-06
-6.89822e-07
1.49933e-05
-3.64163e-07
2.62191e-06
-7.21553e-06
3.43858e-06
3.08713e-06
2.64223e-06
-1.43581e-05
3.69119e-07
1.90895e-06
6.42961e-06
-1.38554e-05
-2.0915e-05
1.73095e-05
1.74608e-05
-1.68676e-06
-3.94298e-06
-8.22565e-06
8.19236e-06
-3.07941e-05
-1.27445e-05
1.10744e-05
-2.27285e-06
-2.40993e-06
-1.85602e-05
-5.45921e-06
-1.99671e-06
1.85303e-05
-5.55368e-06
-2.31547e-06
7.51114e-06
-4.87245e-06
2.2824e-05
-8.14618e-06
-1.79312e-05
-2.38814e-05
4.99588e-05
-1.10503e-05
-4.03373e-05
4.32413e-05
-1.05472e-05
-1.84344e-05
-1.72355e-05
2.41491e-05
2.75527e-05
-6.32227e-05
-5.14131e-06
1.1196e-05
1.80944e-05
1.32945e-05
9.1169e-06
1.08573e-06
-3.02271e-05
-9.50136e-06
-1.16495e-05
-1.05824e-05
-6.61707e-07
2.28935e-05
8.54833e-06
-3.74215e-07
-1.98236e-05
4.3944e-06
-6.42845e-06
4.63728e-06
-8.91348e-06
3.61447e-06
4.3067e-06
-4.36246e-08
-2.18579e-06
-2.33328e-06
-4.30754e-06
-7.169e-06
-9.78301e-06
-8.48646e-06
2.54385e-05
-1.98383e-06
5.81284e-06
-1.0998e-05
-2.29555e-05
1.11886e-05
-1.75352e-05
1.23892e-05
1.09589e-05
9.67471e-06
-3.8208e-05
2.07117e-05
2.46144e-05
-1.99503e-05
8.21399e-06
3.9846e-05
-2.81098e-05
4.39299e-05
4.5629e-05
-0.000109509
-8.21178e-06
6.03558e-05
-5.04859e-06
5.12548e-05
-6.35996e-06
5.71532e-05
-1.65724e-05
9.16579e-05
-4.27163e-05
0.000203269
5.57211e-05
-1.15801e-06
-2.60161e-05
-1.56454e-05
6.66208e-05
-8.68979e-06
-8.11359e-06
-1.33445e-05
-3.90337e-05
5.58383e-06
-1.79565e-06
-6.46734e-06
2.67915e-06
-1.80847e-05
-3.31081e-06
2.69793e-05
-1.17636e-05
-8.11677e-06
1.00174e-05
-1.25167e-06
-1.5233e-05
5.53256e-06
7.16393e-06
-1.72281e-05
1.94498e-05
-3.02433e-05
-4.72696e-06
7.93937e-06
-1.5343e-05
1.21306e-05
1.23406e-05
-1.26972e-05
-4.37037e-06
-1.42531e-05
3.45331e-05
9.06027e-07
2.36695e-05
-3.72727e-05
1.54079e-05
-1.88722e-05
6.57213e-06
-5.41732e-06
1.48986e-05
-2.58433e-05
2.4319e-06
3.72747e-05
-1.38633e-05
2.34309e-05
3.2264e-05
-8.15382e-05
2.10938e-05
4.76898e-06
-1.42534e-05
3.03712e-05
1.61463e-05
4.44162e-05
-2.13948e-05
-1.03526e-05
7.58627e-05
2.47876e-05
-2.691e-05
2.88466e-06
-1.26164e-06
2.5287e-05
5.34832e-05
4.68986e-05
-0.000127292
4.17125e-05
1.46556e-05
1.27795e-05
-1.50281e-05
9.87029e-07
-7.13037e-06
4.5197e-05
1.10435e-05
2.0827e-05
4.56257e-05
1.38475e-05
3.42003e-05
-3.92799e-05
-8.7678e-06
1.31673e-05
-3.45236e-05
3.52038e-05
-3.72516e-05
8.46192e-05
3.01169e-05
5.11299e-05
-0.000120527
3.6005e-05
-1.56255e-05
3.22319e-05
-1.6872e-05
-1.21722e-05
-3.14393e-05
-2.3406e-05
6.70175e-05
2.10607e-06
-1.53772e-06
-1.27406e-05
-3.54767e-05
6.14343e-06
-1.96373e-05
2.07915e-05
-2.69201e-06
1.22256e-05
-4.46036e-05
3.14952e-05
-5.47463e-05
3.25591e-05
1.97276e-05
1.52964e-05
3.06107e-05
2.05507e-05
-9.5765e-05
2.50939e-05
2.82483e-06
-2.84778e-05
7.32992e-05
-5.04236e-05
2.47706e-05
1.78263e-05
3.37785e-06
5.41698e-06
-2.66211e-05
-9.42837e-06
4.41276e-06
8.08365e-06
-1.41342e-05
-4.38333e-05
2.16106e-05
3.03063e-05
1.08978e-05
-6.88654e-05
-1.01329e-05
1.99625e-05
5.12941e-05
6.27717e-05
-7.03914e-06
-1.22039e-05
-3.02578e-06
1.07582e-05
2.57514e-05
2.38618e-05
-6.03714e-05
-3.98005e-06
7.89046e-06
6.84777e-06
5.01067e-05
-2.83354e-05
9.26085e-06
-2.27584e-05
2.1388e-05
-1.28534e-05
2.8962e-05
-4.85637e-05
8.58171e-05
-4.74603e-05
-5.6816e-05
-2.59126e-05
3.87737e-06
2.15084e-05
-1.25372e-05
-6.57871e-05
1.86459e-05
-2.305e-05
-4.97258e-05
1.15825e-05
5.67893e-05
-1.14883e-05
-6.12876e-05
4.03625e-05
-6.43879e-05
5.58223e-05
2.21867e-05
2.23328e-05
-1.97946e-05
-2.47248e-05
-1.16488e-05
-3.08611e-05
6.46965e-05
-4.71871e-05
5.78712e-05
6.21201e-06
2.81983e-05
-5.4205e-05
5.22509e-05
-7.07637e-05
-3.90548e-05
6.04446e-05
-5.80436e-05
1.02685e-05
-8.85089e-06
-4.03467e-05
-4.99042e-05
-1.59692e-05
-4.78249e-05
1.65143e-05
4.72798e-05
-2.19939e-05
1.81086e-05
-1.20839e-05
7.44778e-06
-7.72666e-05
-3.82925e-05
2.69696e-06
5.37042e-05
-1.70077e-05
-3.33689e-05
2.92903e-05
-3.88502e-05
4.85016e-05
9.14002e-06
1.06542e-05
-1.40619e-05
-5.73228e-06
1.15015e-05
-3.25529e-05
-2.02198e-05
-2.62881e-05
-1.71158e-06
-4.49033e-05
-1.67198e-05
-9.23224e-06
-4.47195e-05
2.79052e-05
2.48111e-05
-7.68825e-06
-4.5028e-05
-1.62695e-05
-1.78965e-05
-1.07277e-05
-6.90611e-07
-1.28515e-06
-2.1653e-05
5.04164e-06
-1.27034e-05
-4.20447e-05
-1.72195e-06
1.3918e-05
-4.0699e-06
-8.12617e-06
1.99979e-05
-6.73157e-06
-1.49882e-05
-2.49394e-05
-1.50335e-05
-4.87426e-06
3.35582e-06
-2.55147e-06
4.23929e-06
-1.58451e-05
2.09169e-05
-4.1617e-05
9.23924e-06
-7.54465e-06
-8.99688e-06
-1.60944e-06
1.8151e-05
2.06443e-06
-6.49604e-06
-3.11303e-06
-8.56071e-06
1.62825e-06
-9.41649e-06
-1.48641e-05
2.26711e-05
-9.13192e-06
-6.78061e-06
1.60088e-05
-3.37015e-05
2.77299e-06
-1.53445e-05
-2.1085e-06
9.55696e-06
7.89605e-06
6.28258e-06
2.8776e-06
-2.45047e-05
-1.60861e-06
5.7827e-06
1.47278e-05
-1.15245e-05
-4.81197e-06
-6.67078e-06
2.71814e-05
-4.02099e-06
1.40141e-05
-4.36148e-07
7.80156e-06
-8.94492e-06
2.20013e-05
-2.57242e-05
2.93447e-05
4.66115e-06
-7.26402e-06
1.87984e-05
-1.61955e-05
-1.65855e-05
1.42159e-05
7.03084e-06
3.23976e-05
-5.6247e-05
-6.2325e-06
-1.67466e-05
3.7195e-05
-1.53609e-05
-9.29684e-06
2.63336e-05
-7.24499e-06
1.82911e-05
1.00902e-05
2.36586e-05
-1.08798e-05
1.06785e-05
1.84924e-05
4.58902e-05
-4.66798e-05
1.48732e-05
-4.01258e-05
-2.24791e-05
5.58446e-05
3.26746e-05
-1.26304e-05
3.5877e-06
3.63877e-06
5.40389e-06
2.38963e-05
-4.41819e-05
1.76626e-05
1.58843e-05
1.29596e-05
3.00329e-05
1.12303e-05
1.07569e-05
8.04573e-06
-2.33567e-05
-6.51029e-06
4.10973e-05
5.17335e-07
-1.3117e-05
-4.24196e-05
7.27484e-05
-2.98115e-05
1.04701e-06
-5.65836e-05
-4.5387e-05
0.000111625
4.96457e-05
-1.94487e-05
-3.02625e-05
6.55736e-08
-0.000130098
-1.0479e-05
-9.30392e-05
-5.65077e-05
2.31747e-05
4.63087e-06
-5.8068e-05
3.75656e-05
-1.43252e-05
-2.79596e-06
1.20072e-05
-4.5802e-06
1.40502e-05
2.07196e-05
-2.25466e-05
2.61178e-05
-0.000103579
-1.18624e-05
-2.00045e-05
-2.01306e-05
5.19975e-05
-1.09166e-05