/*--------------------------------*- C++ -*----------------------------------*\
| =========                 |                                                 |
| \\      /  F ield         | OpenFOAM: The Open Source CFD Toolbox           |
|  \\    /   O peration     | Version:  v2012                                 |
|   \\  /    A nd           | Website:  www.openfoam.com                      |
|    \\/     M anipulation  |                                                 |
\*---------------------------------------------------------------------------*/
FoamFile
{
    version     2.0;
    format      ascii;
    class       volVectorField;
    location    "0.55";
    object      U;
}
// * * * * * * * * * * * * * * * * * * * * * * * * * * * * * * * * * * * * * //

dimensions      [0 1 -1 0 0 0 0];


internalField   nonuniform List<vector> 
6576
(
(0.0329639 -1.48195 -0.0643569)
(-0.0905874 -1.53371 0.0763682)
(-0.0320021 -1.5666 0.0121881)
(0.043189 -1.45181 -0.0606159)
(-0.00432856 -1.50667 0.00539414)
(-0.0781305 -1.59636 0.0775858)
(-0.0163868 -1.54621 0.0312949)
(0.014804 -1.49764 0.00147409)
(0.0167285 -1.24802 -0.0101005)
(0.0167838 -1.45907 2.63724e-05)
(-0.0115299 -1.51382 -0.0163602)
(-0.0167354 -1.55529 -0.011935)
(-0.00211613 -1.55076 0.00540468)
(0.00707687 -1.4878 -0.000681563)
(0.0593775 -1.45566 0.0229211)
(0.00856187 -1.82271 -0.0333624)
(0.0651973 -0.859468 0.0337777)
(0.0164417 -1.71865 -0.0168632)
(0.0547651 -1.56082 0.0625107)
(0.0169088 -1.48041 0.00302744)
(0.0473979 -1.37529 0.0488509)
(0.00188549 -1.52637 0.0134381)
(0.0100199 -1.46689 0.00798632)
(-0.00489199 -1.49997 -0.0123998)
(0.00189137 -1.59965 0.0172122)
(0.0528753 -1.52964 0.0554219)
(0.0628021 -1.49467 0.065348)
(0.000214315 -1.45731 0.0141151)
(-0.00581558 -1.58035 -0.0313706)
(0.00472135 -0.962661 -0.00788195)
(-0.0524606 -1.57457 0.0616507)
(-0.027006 -1.45595 -0.0096203)
(-0.0111594 -1.55473 -0.000238224)
(0.0116962 -1.45692 0.0310748)
(0.0161467 -1.46576 0.0344688)
(-0.0189609 -1.2557 0.00997882)
(0.00212833 -1.63978 0.0122728)
(-0.0138992 -1.5678 0.0104671)
(0.0176938 -1.4794 0.0245513)
(0.0101683 -1.47686 0.0184263)
(0.0022052 -1.31311 0.0312407)
(-0.016933 -1.47641 0.00617016)
(-0.00119668 -1.40663 0.00574242)
(0.641514 2.44874 0.930917)
(0.358659 2.42067 0.488333)
(-0.19431 1.64062 -0.109227)
(-0.327259 2.34913 0.902778)
(0.226038 2.22439 1.17596)
(0.038588 1.0667 0.310073)
(-0.968319 1.95573 0.0148132)
(-0.832387 2.27147 0.237717)
(0.199675 1.89229 0.708365)
(-0.082156 1.38453 -1.82653)
(0.114974 1.13697 -0.614369)
(0.225969 1.14233 -1.42288)
(0.0710394 1.49207 -0.88585)
(-0.0101537 1.74556 -2.01546)
(0.317734 1.0623 -1.81902)
(0.278355 1.55249 -1.24107)
(-0.0383342 1.13027 -0.702485)
(0.00547462 1.19165 -0.710297)
(0.00524971 1.23812 -0.784456)
(-0.00705554 1.17507 -0.653014)
(-0.00861461 1.05254 -0.622354)
(-0.0152993 1.02065 -0.53423)
(0.0157595 1.17169 -0.594212)
(0.00799289 1.17128 -0.57855)
(-0.000728863 1.09344 -0.491545)
(0.0113623 1.22995 -0.64238)
(0.00522225 0.86929 -0.438052)
(-0.0421069 1.05623 -0.458974)
(-0.0323978 0.99746 -0.523305)
(-0.0541881 1.08244 -0.530639)
(-0.136432 -0.769633 -0.398229)
(-0.122726 -0.301877 -0.80493)
(0.0185978 -1.29005 0.0807824)
(-0.10147 -0.434913 -1.11764)
(-0.239643 -0.917502 -0.647934)
(-0.0814036 -1.44722 -0.384308)
(-0.0301539 -0.83851 -0.845928)
(0.0271369 -0.0348917 -0.511454)
(-0.134492 -0.130237 -0.70725)
(-0.32927 0.0641366 -0.596339)
(-0.0320108 -0.288595 -0.369331)
(0.161363 -0.170225 -0.441304)
(-0.0730284 -0.155071 -0.53315)
(-0.377265 0.00551959 -0.401844)
(-0.286032 0.392076 -1.03656)
(0.160301 0.152278 -0.843772)
(0.0194246 0.851028 -0.498599)
(-0.203695 0.0881136 -0.747753)
(-0.141461 0.455252 -0.56956)
(-0.0197679 0.951751 0.115702)
(-0.173209 0.884846 -0.104509)
(-0.109548 -0.462063 0.993313)
(0.0805077 -0.576554 0.574119)
(-0.30731 -0.438435 1.20461)
(0.0533188 -0.747293 0.403385)
(0.126932 -0.77771 0.563306)
(-0.149449 -0.388027 1.1224)
(-0.00363292 -0.531827 0.915819)
(-0.0148942 0.0375464 3.03321)
(7.05927e-05 -0.0383315 2.82553)
(0.0189528 -0.0901465 2.58539)
(-0.00645888 -0.121625 2.6536)
(0.0138559 -0.061535 2.75733)
(-0.00479966 -0.156458 2.52304)
(0.00347772 -0.115746 2.62352)
(0.0952306 0.297239 2.2246)
(0.0416436 0.540864 1.46364)
(0.0494962 -0.0604484 0.992893)
(0.0489713 0.844054 2.26876)
(0.507519 0.128572 0.886165)
(0.237974 0.267489 0.753361)
(0.0806823 -0.442175 0.0574149)
(0.017773 -0.426249 0.0547063)
(-0.253357 -0.170975 0.242236)
(0.0946563 -0.470523 0.1588)
(0.0346233 -0.409902 0.197418)
(-0.136338 -0.231379 0.236129)
(-0.0498177 -0.429615 0.0540151)
(0.0560259 -1.37808 -0.0305763)
(0.0290894 -1.58291 0.0557501)
(-0.0174727 -1.49276 -0.0364623)
(0.00935488 -1.66478 0.00622688)
(-0.0794634 -1.56252 -0.0570751)
(0.0842012 -1.69735 0.136813)
(0.0332672 -1.38154 -0.00991973)
(0.0371308 -7.02392 -0.0437988)
(0.0134803 -6.85112 -0.0534433)
(0.0124492 -6.80033 -0.0338506)
(0.0265881 -6.74546 -0.124453)
(0.0503389 -6.95929 -0.133925)
(-0.0307387 -6.31463 -0.0735069)
(-0.0065619 -6.75097 -0.067165)
(0.00355898 -0.401916 -0.404255)
(0.0259124 -0.392593 -0.361365)
(-0.056371 -0.57672 -0.403444)
(-0.0443454 -0.480949 -0.425784)
(0.0241815 -0.419701 -0.408201)
(0.0175039 -0.46103 -0.372439)
(-0.0558148 -0.533494 -0.419183)
(-0.0582122 -0.596111 -0.694549)
(0.019477 -0.504803 -0.742879)
(0.00362236 -0.610952 -0.712436)
(-0.0600035 -0.433544 -0.656736)
(-0.0572475 -0.472395 -0.670627)
(-0.0771579 -0.546533 -0.677977)
(-0.0551493 -0.437777 -0.640093)
(-0.0319059 0.237927 -0.76246)
(-0.0276875 -0.0791231 -0.876624)
(0.22637 0.0842915 -0.991748)
(-0.0440805 -0.492567 -1.03336)
(0.0224869 -0.882665 -1.15549)
(0.188228 -0.668742 -1.27444)
(0.000153615 -0.213689 -0.984745)
(-0.114278 0.781572 -0.30079)
(0.208355 1.09717 -0.00964634)
(0.079515 0.972665 -0.0422885)
(0.344058 0.33813 -0.300079)
(0.292242 0.736246 0.163746)
(-0.128326 1.13648 -0.0678373)
(-0.186111 0.661035 -0.558142)
(-0.128878 0.83105 0.356253)
(0.409807 0.694122 -0.0215586)
(0.213501 1.44636 0.376032)
(-0.398359 1.77758 0.530596)
(-0.436811 1.84426 0.747808)
(0.231539 1.33812 0.148016)
(-0.0569236 1.01684 -0.246292)
(-0.636622 1.67053 -0.0754984)
(-0.0644342 0.973638 -0.181698)
(-0.584639 6.11159 1.13436)
(-0.0859781 5.35754 0.918365)
(0.134481 4.01485 0.724277)
(-0.531296 5.82602 1.09136)
(0.159024 5.10395 0.817937)
(-0.121762 4.2439 0.996271)
(0.255155 2.8791 1.1335)
(0.106625 4.75265 0.751694)
(-0.41015 5.46772 0.833184)
(-0.218672 0.400554 -1.23166)
(-0.0866082 0.43414 -1.02503)
(0.043663 0.0453071 -0.824054)
(-0.0668377 0.0413995 -0.894102)
(-0.105364 0.24425 -0.742189)
(-0.222547 -0.373117 -0.104107)
(0.0890294 -0.446946 -0.391083)
(-0.137623 -0.323765 -0.618544)
(-0.524089 -0.291611 -0.0819061)
(0.18277 0.981794 -0.506466)
(-0.0356056 0.729608 -0.51372)
(0.0616423 1.06718 -0.496213)
(-0.29103 0.644428 -0.93513)
(0.0222965 0.524166 -0.878369)
(-0.132826 1.00239 -0.711933)
(0.191736 0.736258 -0.819493)
(0.13166 -0.636413 -0.544324)
(-0.489421 -0.668337 0.309914)
(-0.495646 -0.571064 0.391282)
(0.364635 -0.364312 -0.345704)
(0.421223 -0.978834 -0.540846)
(-0.13631 -0.324018 -0.279324)
(0.000625429 -0.0796438 -0.337245)
(0.105573 -1.52521 0.37526)
(0.25547 -0.590437 -0.492397)
(0.182802 -1.73088 -0.188171)
(-0.626601 -0.909285 0.375178)
(-0.324812 0.57275 -0.648556)
(-0.317058 0.425912 -0.846398)
(-0.114115 -0.989727 -0.124632)
(-0.105605 -6.72986 -0.271466)
(0.0621726 -6.50052 -0.209391)
(0.0210583 -6.36507 -0.355475)
(-0.0976788 -6.91149 -0.524315)
(-0.169703 -7.25036 -0.509582)
(-0.283222 -7.33387 -0.525403)
(-0.127094 -6.59951 -0.40534)
(-0.000265765 0.890157 -0.171196)
(0.00968148 0.955246 -0.264746)
(0.0488845 1.06525 -0.335204)
(0.0305055 0.957129 -0.29811)
(0.00311648 0.832828 -0.219525)
(0.023161 0.977809 -0.277363)
(0.0368463 1.05663 -0.372093)
(0.0674402 0.847053 -0.391366)
(0.0503128 0.954884 -0.387029)
(-0.00501983 1.01495 -0.404656)
(0.0857055 1.10152 -0.534446)
(0.110851 1.02932 -0.558571)
(0.0171309 1.04523 -0.701511)
(-0.000311106 1.09104 -0.58112)
(0.0505425 0.908987 -0.470617)
(0.114444 1.25697 -1.08516)
(0.146085 1.49482 -0.781859)
(-0.164661 0.725409 -0.859538)
(-0.217549 0.647559 -0.995997)
(-0.0713129 0.81629 -1.38065)
(-0.0516228 0.917253 -1.15912)
(0.18912 4.051 0.452621)
(0.0198271 2.86153 0.518377)
(-0.289406 4.50483 0.542926)
(-0.584991 3.71794 0.388046)
(-0.41143 2.94618 0.588975)
(-0.948926 4.92191 0.913107)
(-0.466181 3.67153 0.710309)
(0.0688216 1.70105 1.03083)
(-0.176597 1.97962 0.634157)
(-0.120407 1.81912 0.621326)
(0.114534 2.8441 0.990889)
(0.0216215 3.54553 0.893642)
(0.0543227 2.75512 0.827689)
(0.0659224 3.18999 0.841182)
(0.060315 2.55092 0.791532)
(-0.0398023 2.22508 0.696993)
(0.0377162 0.319993 -0.494465)
(0.0768533 0.162664 -0.768736)
(0.0762133 -0.223679 -0.595998)
(-0.164172 0.61352 -0.377215)
(0.00519925 0.528623 -0.283639)
(-0.0776376 0.384806 -0.466906)
(0.0419934 0.354909 -0.429148)
(0.0157978 0.419546 -0.181659)
(0.106934 0.529504 -0.190976)
(-0.0745452 0.379268 -0.16704)
(-0.204322 0.766662 0.779777)
(0.0303411 0.602511 0.262189)
(-0.00140118 0.561432 0.192075)
(-0.235807 0.570473 0.191627)
(0.119938 0.0478978 -0.431377)
(-0.0235635 0.13551 -0.783417)
(-0.0480274 0.202011 -0.789093)
(0.0619593 0.0398315 -0.623449)
(-0.00495187 0.108693 -0.779897)
(0.0584451 0.222087 -0.814842)
(0.133092 0.275027 -0.859196)
(0.109917 0.183457 -0.67238)
(0.266431 0.111304 -0.549803)
(-0.158613 1.26429 0.214517)
(0.23342 0.594327 -0.0551488)
(0.090177 1.3072 -0.117928)
(0.196338 0.793237 -0.0591498)
(0.240456 1.56911 0.120036)
(-0.217485 1.17789 -0.647064)
(-0.0194173 1.56822 -0.255329)
(-0.0567661 2.21832 -0.0521866)
(-0.0378917 2.24811 0.000816487)
(-0.00946444 2.1531 -0.198684)
(0.0176492 2.11686 -0.144651)
(0.0376573 2.00081 -0.1386)
(-0.0683345 2.25116 0.000857173)
(-0.0598109 2.24702 -0.0179318)
(-0.00394181 2.26986 -0.0515137)
(0.0177706 2.22902 -0.0105139)
(0.323032 0.803461 -0.102286)
(0.383643 1.21828 -0.112655)
(0.237561 0.698098 -0.11669)
(0.143064 2.01022 -0.0481767)
(-0.0726986 1.78935 -0.0228204)
(0.0250413 2.19804 -0.0512417)
(0.0297729 1.67815 -0.142775)
(-0.0455412 2.00781 0.136921)
(-0.0232938 2.18134 -0.136739)
(-0.0208965 1.74126 -0.257047)
(0.321188 -0.599276 -0.272534)
(-0.101701 -0.63123 -0.434182)
(0.0292229 -0.366143 -0.393586)
(-0.318105 -1.11415 -0.329549)
(-0.100009 -0.980485 -0.356728)
(-0.153576 -1.07359 -0.635772)
(-0.275027 -1.04244 -0.447587)
(0.0264978 -2.14037 -0.0219929)
(-0.0341021 -2.12857 -0.0791911)
(-0.0950565 -1.53954 0.168788)
(-0.0479046 -2.00587 0.232194)
(-0.0825166 -2.00777 0.197896)
(0.0152632 -0.92014 0.472259)
(-0.054274 -1.3222 0.35607)
(-0.415502 -1.30773 0.771484)
(-0.788581 -1.19791 1.07029)
(0.0476315 -1.34365 -0.61369)
(-0.204398 -0.947271 -0.492801)
(-0.14513 -1.33853 -0.641388)
(-0.328694 -0.779043 -0.696634)
(-0.0177388 -0.890898 -0.809814)
(-0.708859 -0.975691 -0.599413)
(-0.834387 -1.32345 -0.688367)
(-0.0131249 -0.507849 -1.18815)
(-0.0144237 -0.586917 -1.06506)
(0.00993369 -0.541226 -1.17636)
(0.0201905 -0.772473 -1.03137)
(-0.040732 -0.906729 -0.987182)
(0.00362442 -0.664564 -1.12978)
(-0.0182507 -0.642913 -1.14389)
(-0.0760967 -0.368658 -1.26905)
(0.00657457 0.16891 -1.46881)
(-0.0315658 -0.450004 -1.20219)
(0.0309609 0.201332 -1.0392)
(-0.037855 -0.0477371 -0.988269)
(0.0338461 -0.298694 -0.964704)
(0.00697748 -0.302671 -1.07397)
(-0.047886 -0.332415 -0.966043)
(0.0402327 -0.311115 -1.00048)
(0.0263916 -0.111948 -1.59316)
(-0.058839 0.118459 -1.49019)
(-0.0172593 0.418995 -1.63446)
(-0.015751 -0.252995 -1.89225)
(-0.109319 -0.0527643 -1.69286)
(-0.116734 1.23976 -0.747664)
(-0.0611829 1.55752 -0.938285)
(-0.117789 0.958543 -1.03788)
(-0.285033 0.798936 -1.15149)
(-0.0589166 -0.10566 -0.676676)
(-0.0457862 -0.00931243 -0.624723)
(-0.0590769 0.00497217 -0.462349)
(0.0910696 0.0488343 -0.554869)
(-0.0267509 -0.0692156 -0.611382)
(0.0334698 0.0414502 -0.526715)
(-0.034831 -0.010475 -0.54568)
(0.0612146 -0.0569616 -0.258844)
(-0.0224396 -0.023976 -0.675532)
(0.138404 -0.0273557 0.118912)
(0.0353996 0.0926888 -0.533656)
(0.0389799 0.04552 -0.66304)
(0.103136 0.0901192 -0.5878)
(0.0216069 -0.0572324 -0.692405)
(-0.021338 0.17815 -0.385217)
(0.148294 0.0969182 -0.363299)
(-0.023105 0.0525281 -0.972236)
(-0.0958562 0.15031 -1.03383)
(-0.0139493 -0.196604 -1.04532)
(-0.0797992 0.191592 -0.804959)
(0.0151777 0.0214958 -0.868922)
(-0.156609 0.182859 -0.708575)
(-0.0679564 0.221023 -0.713111)
(0.0334884 -0.507632 -1.01235)
(0.00572357 -0.487651 -0.883553)
(0.00336994 -0.316272 -1.02565)
(0.00986699 0.399996 -0.634606)
(0.0994486 0.198811 -0.94791)
(-0.0639894 -0.0422622 -0.501984)
(0.0806304 -0.00689589 -0.776943)
(0.239186 -0.258485 0.0318237)
(-0.0782627 -0.638698 0.749753)
(0.520641 0.130109 -0.244966)
(0.0192035 0.479106 0.135217)
(0.0319684 0.684702 -0.0462451)
(0.103701 0.845242 -0.0295175)
(0.0461655 1.16921 -0.139645)
(0.639533 1.01455 -0.497785)
(0.472003 0.411363 -0.237223)
(-0.0236644 1.73633 -0.237452)
(0.23747 0.946565 -0.714009)
(-0.0928702 0.464616 -0.218572)
(0.101083 0.510113 -0.33678)
(-0.107553 0.754169 0.230824)
(0.701052 0.35085 -0.840351)
(0.234644 1.18894 -0.00019122)
(0.0729317 0.462166 -0.738179)
(-0.0469334 0.506114 -0.468718)
(0.0297424 0.646846 -0.678118)
(-0.10059 0.0982654 -0.443717)
(0.0142643 0.392917 -0.596662)
(-0.0617771 0.238117 -0.298414)
(0.0129799 0.516731 -0.55901)
(0.0419653 0.718813 -0.586838)
(-0.0121871 0.434155 -0.586252)
(-0.00194467 -0.707476 -0.0148644)
(-0.0169458 -1.16994 0.143839)
(0.0539465 -1.24773 0.0626234)
(0.0568406 -1.06587 -0.11006)
(0.042904 -1.14111 -0.126391)
(-0.0186487 -1.16125 -0.0733194)
(-0.102453 -1.28083 -0.197995)
(-0.000374392 -2.31403 -0.0704815)
(0.00716889 -2.27881 -0.0587648)
(-0.00532158 -2.29236 -0.0757806)
(-0.00589392 -2.37175 -0.106034)
(-0.0097128 -2.34734 -0.0929572)
(-0.0146396 -2.30894 -0.0826546)
(-0.0103238 -2.33134 -0.0896328)
(-0.0373638 0.506657 1.18264)
(-0.0353369 1.02821 1.49734)
(0.0360343 0.967965 1.49965)
(-0.20365 -0.144746 0.512122)
(0.0916088 0.0503325 0.728452)
(-0.0899364 0.576669 1.13354)
(0.0842547 0.628699 1.09181)
(0.113503 0.334463 1.08819)
(0.129151 0.736793 1.29868)
(-0.0115818 0.662414 1.28516)
(0.315689 0.232214 1.00602)
(0.179528 0.0188263 0.0240582)
(0.128113 0.251499 0.548945)
(0.103209 0.477255 0.898763)
(0.0506646 -0.477491 -0.319985)
(-0.147663 -0.349861 -0.505207)
(0.253335 -0.447192 -0.248826)
(-0.0960964 -0.463463 -0.715727)
(-0.181791 -0.78837 -0.865313)
(-0.230315 -0.760469 -0.759635)
(0.163544 -0.455056 -0.455519)
(-0.101929 0.391954 -0.612552)
(0.000605587 0.567905 -0.630823)
(0.0440978 0.601286 -0.476894)
(-0.0715852 0.469532 -0.66594)
(0.0145867 0.603179 -0.669649)
(0.0366341 0.799536 -0.593991)
(0.000548799 0.683115 -0.610957)
(0.0761299 0.712175 -0.65119)
(-0.00692001 0.622672 -0.654079)
(-0.242914 0.467285 -1.24476)
(-0.174621 0.910045 -1.60214)
(0.0677089 0.970543 -1.22265)
(0.074 1.12855 -1.32156)
(0.0561677 0.777326 -0.896853)
(-0.0558319 0.803832 -1.52012)
(-0.161345 0.393354 -1.07839)
(-0.255875 -0.102024 0.0571662)
(0.0495688 0.424369 -0.0744417)
(-0.156801 0.131143 -0.126658)
(0.0133832 0.159212 0.207364)
(-0.173004 -0.370968 -0.256945)
(-0.0342235 0.634081 0.171791)
(-0.18423 0.270914 -0.255957)
(-0.135093 0.497271 -0.317059)
(0.200905 0.62106 -0.45348)
(0.062463 0.322148 -0.317364)
(0.0191922 -0.140194 -0.176259)
(-0.0481191 0.151479 -0.358619)
(0.228409 -0.138668 -0.605589)
(0.137491 -0.461827 -0.681416)
(0.0351929 0.0552248 0.408035)
(0.28394 0.0844139 0.0631962)
(-0.0235592 -0.27473 -0.0103217)
(-0.262665 0.0712979 0.105339)
(0.208204 0.494628 0.107082)
(0.321862 0.234809 -0.022788)
(-0.147334 -0.406372 -0.0448288)
(0.0462663 -0.295894 0.144518)
(-0.0134632 -0.354197 0.158669)
(0.00389012 -0.14864 0.332041)
(0.0729003 -0.330033 -0.14466)
(-0.00104573 -0.443851 -0.0925876)
(-0.034443 -0.311187 0.0307485)
(-0.0155317 -0.195966 -0.00094758)
(-0.0143391 0.19099 0.0752013)
(-0.182141 -0.422367 0.0323585)
(0.152886 -0.10294 -0.0875001)
(0.18456 -0.367513 -0.231265)
(-0.168713 -0.356807 0.0560366)
(0.158297 -0.356905 -0.0781076)
(-0.128021 1.61861 1.64468)
(-0.148044 2.45856 1.79044)
(0.00854937 0.770322 1.21406)
(-0.200916 2.37453 2.07404)
(0.0582635 1.81519 1.64473)
(0.00741359 1.20735 1.21026)
(0.516683 2.63501 0.95038)
(0.302335 1.25369 -0.209202)
(-0.153762 0.877254 0.677643)
(-0.626051 0.452107 1.44703)
(0.0824831 1.18978 0.319965)
(-0.342805 0.756188 1.67668)
(-0.623436 -0.0408773 2.30304)
(-1.98949 -0.358447 4.30557)
(0.186676 -0.00894901 1.06109)
(-0.442309 1.35782 1.99329)
(-0.29381 0.925922 2.22108)
(-0.00246367 1.43032 1.13432)
(0.00550241 1.53956 1.18577)
(-0.000214423 1.48383 1.37866)
(-0.018218 1.13795 1.00338)
(0.033134 1.00348 0.927617)
(-0.0151586 1.19351 1.10629)
(0.0295094 1.20664 1.12564)
(0.0162684 1.29888 1.22911)
(0.0533251 1.32721 1.30782)
(-0.0249109 1.06107 1.06324)
(0.00350834 1.16345 1.19644)
(0.0089028 1.10064 1.10645)
(-0.0375605 0.933528 0.983683)
(0.017229 1.02919 1.03531)
(-0.0264559 1.24482 1.16043)
(0.0225074 1.23756 1.19943)
(-0.00820788 1.07944 1.13863)
(0.0580172 1.31495 1.43355)
(0.0182507 0.587966 0.593851)
(0.0443637 0.685362 0.759614)
(0.0587073 0.655343 0.677594)
(0.0808025 0.631275 0.463246)
(0.0880246 0.712617 0.659564)
(0.0629959 0.709 0.682907)
(0.0353506 0.745708 0.571421)
(0.00363311 1.57439 0.518743)
(0.0120549 1.71856 0.749075)
(0.0261682 1.61203 0.937009)
(-0.0578183 1.17323 0.507307)
(-0.0209221 1.37813 0.404259)
(-0.0595318 1.33494 0.768017)
(-0.019045 1.51183 0.600273)
(0.0396693 1.69786 0.814222)
(0.0547581 1.52932 0.989933)
(0.0886226 1.07429 1.22529)
(0.0425188 1.23395 1.35224)
(-0.0173127 0.835987 1.01715)
(-0.202754 0.846173 0.766976)
(-0.092384 0.783788 0.727785)
(-0.119551 1.23977 1.18713)
(-0.0626456 1.04181 1.03937)
(0.011962 0.665694 0.340459)
(-0.0698714 0.652459 0.539726)
(-0.135661 0.716982 0.626016)
(-0.0647825 0.715021 0.402399)
(0.0666986 0.630299 0.242125)
(-0.0619053 0.742474 0.485592)
(-0.111301 0.841659 0.725237)
(0.0219427 1.35798 1.81332)
(-0.0096162 1.13593 1.35094)
(0.0484071 1.31328 1.60523)
(-0.0580906 1.27324 1.31461)
(-0.0627877 1.21611 1.21104)
(-0.011203 1.34605 1.50133)
(-0.069308 1.35823 1.6837)
(-0.00770608 2.40942 0.842579)
(-0.105389 2.80138 0.763907)
(-0.0558304 3.57268 0.835485)
(0.0896159 2.41943 0.971883)
(0.0382016 2.14885 0.957635)
(-0.0947257 4.63486 0.772079)
(0.215905 4.43173 0.716329)
(0.0489915 4.03829 0.00105932)
(-0.0792551 3.80106 0.0492042)
(-0.10407 3.97272 -0.0024605)
(0.182189 4.07293 0.50347)
(-0.0177157 4.408 0.47022)
(0.320939 2.58349 0.868635)
(0.240576 2.41666 1.00743)
(0.127924 2.39303 0.175948)
(-0.358989 1.71167 0.302835)
(-0.532292 1.16067 0.437323)
(-0.349563 1.84076 0.95326)
(-0.177711 2.11292 0.946253)
(0.239391 -1.10262 0.223241)
(0.370091 -2.88234 1.1024)
(0.0131341 -4.36895 1.51556)
(-0.115463 -3.55227 0.918611)
(0.143558 -5.42557 1.5805)
(0.235758 -3.71457 1.08897)
(-0.111623 -2.15615 0.0683132)
(-0.150064 -0.983466 0.525056)
(-0.0611029 -0.917055 0.280547)
(-0.0578757 -0.876696 0.655534)
(0.0957706 -0.72128 0.281197)
(0.185831 -0.655224 0.369741)
(0.00265527 -0.493322 0.325355)
(-0.00201425 -0.635723 0.272125)
(-0.0448443 0.575435 -0.936515)
(0.0563069 0.219208 -0.820496)
(-0.082 -0.0659267 -0.653202)
(0.00245335 0.701315 -1.25028)
(0.0252094 0.747683 -1.22982)
(-0.0116005 0.603503 -1.20537)
(0.0425469 0.620826 -1.23129)
(0.0726046 0.213371 -0.748282)
(-0.116178 0.305415 -0.670471)
(-0.00178071 0.554552 -1.19652)
(-0.187858 0.446159 -1.16704)
(-0.0126333 0.468733 -0.833775)
(-0.0470095 0.678304 -1.40318)
(0.00935493 0.613497 -1.35002)
(-0.0189745 0.642881 -1.24018)
(0.0221255 0.597563 -1.16661)
(0.000806746 -0.342944 -0.929688)
(-0.129507 -0.26864 -0.833607)
(-0.0142388 -0.584272 -0.596077)
(-0.0597105 -0.318401 -0.44704)
(0.0161243 -0.406649 -0.430884)
(-0.081135 0.0436634 -0.85388)
(-0.0148951 -0.275282 -0.902386)
(-0.0794958 -0.408126 -0.461527)
(-0.12033 -0.218696 -0.47944)
(0.00320627 -0.608509 -0.574303)
(-0.0737126 -0.453464 -0.613714)
(-0.0509994 -0.130052 -0.659348)
(0.125228 -0.658463 -0.685494)
(0.0266405 -0.334519 -0.86035)
(-0.00258892 -0.724698 -0.431403)
(0.494768 -1.0323 0.0192964)
(-0.0996498 0.161549 -0.160276)
(-0.203222 -0.126472 0.0793875)
(0.163542 -0.0422945 -0.507584)
(0.0741297 -0.569393 -0.454258)
(0.144255 -0.599311 -0.227856)
(0.0484599 1.63346 0.237596)
(0.0179882 1.38261 0.192983)
(-0.00364078 1.27003 0.129924)
(0.0747898 1.45518 0.131692)
(0.00879363 1.20594 0.1369)
(0.0726321 1.23117 0.0465421)
(-0.0145162 1.18085 0.120892)
(-0.0394676 2.00076 0.0824019)
(-0.100172 2.28126 0.189867)
(-0.0447857 2.04719 -0.0146292)
(0.193471 2.31434 -0.00118782)
(0.193886 2.18731 -0.0655699)
(0.0456339 2.28751 0.0987001)
(0.00379597 2.14873 0.0804782)
(0.100713 2.27975 0.00499375)
(0.0715606 2.13696 -0.0258008)
(0.00185563 2.36184 -0.0228879)
(-0.0154528 2.31625 -0.0115739)
(0.0381107 2.48264 -0.0160456)
(-0.00516255 2.54418 0.0285194)
(0.0533151 2.59601 0.0297503)
(0.0158007 2.3607 -0.0478856)
(0.0858493 2.23255 -0.0370405)
(-0.0302107 2.30168 -0.0522338)
(0.0030812 2.26697 -0.0865234)
(0.051225 2.27784 -0.0216442)
(0.0568337 2.2927 -0.0362983)
(0.0139712 2.29455 0.113899)
(-0.0394034 2.25061 -0.0224144)
(-0.0376434 2.30983 0.0322808)
(-0.00307488 2.28969 -0.0409396)
(0.00540196 2.34265 -0.0236855)
(-0.0214524 2.31478 -0.0217096)
(-0.0205475 2.32568 -0.0205771)
(-0.0395283 2.27169 0.015341)
(-0.010385 1.8646 0.00110168)
(0.0415414 2.18694 0.0128573)
(0.0207024 2.20327 0.0313011)
(-0.0328492 2.2604 -0.0416308)
(-0.0269872 2.34597 -0.0214566)
(-0.0336324 2.34095 -0.0201544)
(-0.108978 2.24791 -0.0346273)
(-0.0618428 2.266 -0.0188988)
(0.0161547 1.58429 0.00382436)
(-0.0095539 2.5909 -0.0539783)
(0.0434558 2.27886 -0.0309415)
(-0.0162098 2.36251 -0.0468094)
(0.0336713 2.27995 0.019596)
(-0.00438231 2.41937 0.103468)
(-0.0337024 1.93922 0.05112)
(0.000303074 2.32476 -0.0137796)
(0.0504329 2.20262 -0.131815)
(-0.206139 1.01077 -0.779765)
(0.0191025 0.250129 -0.881492)
(-0.0600804 1.38166 -0.908333)
(-0.18338 1.68747 -0.119781)
(-0.253565 0.774494 -0.883249)
(-0.0388855 2.25659 0.0398333)
(0.178487 2.09605 -0.353416)
(0.03659 2.26745 0.00423255)
(-0.000172412 2.33987 0.132306)
(-0.0755163 2.25044 0.0413905)
(-0.0304778 2.17744 -0.19189)
(0.0438805 2.1828 -0.19034)
(0.00955794 2.12472 -0.345217)
(0.00738354 1.7517 -0.220966)
(-0.0292712 1.69235 -0.334829)
(-0.123944 -0.354386 -1.39216)
(0.00664375 -0.218853 -1.69437)
(-0.00958401 0.0300863 -1.93113)
(-0.0365006 -0.360652 -1.44752)
(0.0201401 -0.22612 -1.54639)
(0.00546211 -0.0888245 -1.77947)
(0.0129234 -0.248949 -1.67698)
(0.0575984 1.39539 -0.830985)
(0.143188 0.450584 -1.33239)
(0.0762844 1.60881 -0.670708)
(-0.0606996 0.0281599 -1.67748)
(-0.304219 0.948578 -0.918427)
(0.0672698 0.233956 -0.847135)
(0.131666 0.180516 -0.733904)
(-0.0347184 0.510492 -1.26628)
(0.153321 0.637631 -1.05483)
(0.318236 0.728812 -0.962989)
(0.175774 0.119047 -1.00782)
(0.1818 0.128927 -0.836454)
(0.00827883 -0.0292262 -0.539931)
(0.178074 0.180326 -0.490149)
(0.0360826 0.0709318 -0.599696)
(0.120495 0.161787 -0.840373)
(0.000713009 0.133257 -0.673155)
(-0.00121625 -0.0561534 -0.662836)
(-0.0276591 -0.115114 -0.640776)
(0.0641473 -0.125341 -0.696414)
(-0.00181462 0.0704369 -0.701575)
(0.0813662 0.134903 -0.824165)
(-0.0547366 0.0594406 -0.53275)
(-0.102581 0.104489 -0.662641)
(0.0518064 0.0442601 -0.537821)
(-0.0495012 0.065916 -0.569923)
(-0.0369753 0.0122883 -0.618704)
(0.0802154 0.125757 -0.65109)
(0.0270264 0.172403 -0.612843)
(-0.00583723 0.0487876 -0.664685)
(0.0122948 0.138813 -0.659727)
(-0.0504048 0.0101545 -0.541498)
(-0.0182828 -0.0243018 -0.502503)
(-0.0333988 0.0168025 -0.571645)
(-0.0671192 0.353327 -1.29701)
(-0.103974 0.0773582 -0.775391)
(-0.129621 -0.0919313 -0.594685)
(-0.122176 0.80987 -1.55503)
(-0.159979 0.363609 -1.28588)
(-0.0490703 -0.242359 -0.701555)
(-0.0915735 0.159134 -1.19974)
(-0.103718 0.718471 -1.34969)
(-0.10454 0.208325 -1.08822)
(-0.0488271 0.0903802 -0.692715)
(0.02352 0.168693 -0.80861)
(-0.089536 -0.0678919 -0.490575)
(0.0197916 0.167414 -0.85855)
(0.040565 0.0651437 -0.786528)
(-0.00507876 -0.0927305 -0.671839)
(0.00395626 0.128205 -0.847593)
(-0.0029864 0.0598229 -0.701913)
(0.0125024 0.062299 -0.774321)
(0.0378529 0.08501 -0.742439)
(-0.0303311 -0.122756 -1.97317)
(-0.108885 0.171238 -1.45511)
(-0.0200413 0.443405 -1.28545)
(0.274575 0.0677031 -2.24886)
(0.0569664 0.387416 -1.93518)
(0.00854213 0.405886 -1.66456)
(0.20795 0.0754663 -1.87983)
(-0.0426987 0.202564 -0.8639)
(-0.128792 0.350097 -1.03797)
(0.0429419 -0.359915 -0.513967)
(-0.0781727 0.108101 -1.04274)
(-0.0955188 0.692681 -1.31216)
(-0.15678 0.5158 -1.22087)
(-0.0775494 0.344929 -1.01777)
(0.0791938 0.943726 -0.996576)
(-0.0125006 0.577215 -0.790359)
(0.00537622 0.867388 -0.813381)
(-0.174319 0.489639 -1.02271)
(-0.112855 0.434506 -0.867522)
(-0.171809 0.690357 -0.904533)
(-0.130729 0.665193 -1.07307)
(0.0903253 0.861266 -1.1721)
(0.0175704 0.993992 -0.923621)
(0.0343166 0.789272 -1.38181)
(0.0593138 0.976963 -1.65823)
(-0.0170378 0.84684 -1.77969)
(0.0121424 1.05499 -1.09979)
(0.0731089 0.970444 -1.45022)
(-0.061839 -0.639406 -0.209404)
(0.311611 -0.757923 -0.11871)
(-0.128704 -0.476391 -0.702185)
(-0.155707 -0.18594 0.356948)
(0.300719 0.0901097 0.170529)
(-0.0645828 0.00836703 -0.276836)
(0.0172963 0.0501254 -0.152173)
(0.104487 0.478305 0.040237)
(-0.0722738 0.159287 0.0567492)
(0.0223947 0.438014 0.208065)
(0.011245 0.284623 0.228968)
(0.0374583 0.114333 0.159302)
(-0.0127607 0.586994 0.373055)
(-0.0227708 0.481452 0.315102)
(-0.0582231 0.311707 0.210856)
(-0.0617487 0.310496 0.16082)
(-0.0336676 0.0538723 0.237139)
(-0.156578 0.106513 0.210022)
(-0.0815264 0.191169 0.231892)
(-0.00869591 -0.0626169 0.0885301)
(-0.0442285 -0.138507 0.163021)
(0.14323 0.299467 0.45235)
(0.0945075 0.643267 -0.0625762)
(0.247227 0.111616 0.658826)
(-0.240076 0.614396 -0.038016)
(-0.0186917 0.388936 0.1024)
(0.145822 0.332447 0.358727)
(0.638101 -0.0761757 0.735151)
(0.203973 0.116811 0.832663)
(0.0167099 0.286239 0.753643)
(0.0982289 0.928143 0.830961)
(-0.285079 1.31999 0.855472)
(0.022533 0.628538 0.715886)
(-0.0328635 0.385537 0.712416)
(0.136523 0.307357 1.2108)
(0.0608573 0.361685 0.81604)
(0.318467 0.417745 1.34699)
(-0.145365 1.11472 0.661359)
(0.237576 0.782887 0.957249)
(0.227032 -0.0702686 0.480057)
(-0.137612 0.294255 0.271485)
(-0.101357 0.358593 0.489349)
(0.625442 -0.697854 0.00997598)
(0.040944 0.207892 0.048345)
(0.225173 -0.0307964 0.0212381)
(-0.0455034 0.316612 0.0633056)
(-0.152483 -0.080032 -0.593974)
(0.0282752 0.299654 -0.592429)
(-0.133561 -0.218259 -0.669784)
(0.0281406 0.219028 -0.532975)
(0.044904 -0.10126 -0.692094)
(-0.0523257 -0.351913 -0.629766)
(-0.180265 -0.0904331 -0.644266)
(-0.00738889 1.80165 -0.519833)
(-0.00670322 2.11427 -0.475609)
(-0.0450549 3.0565 -0.300864)
(-0.223484 2.75907 -0.0088125)
(-0.0998755 2.99579 0.127322)
(0.0446 4.02299 0.834457)
(-0.0733457 3.81271 0.557032)
(0.330698 2.44871 0.424267)
(0.35579 1.19715 0.104517)
(-0.186661 0.15601 -0.272169)
(-0.155913 0.231741 -0.359134)
(0.138836 -0.269581 -0.658299)
(0.00119373 -0.226728 -0.405621)
(-0.031518 -0.25738 -0.485084)
(0.0688998 -0.113556 -0.514655)
(0.0174172 -0.220845 -0.574444)
(-0.0433186 -0.277791 -0.583582)
(-0.0960481 -0.22718 -0.568294)
(0.0166655 -0.0796193 -0.587915)
(0.0351353 0.231936 -0.725936)
(-0.0043542 0.260883 -0.654115)
(0.0327021 0.107337 -0.698471)
(-0.0562762 0.509589 -0.696106)
(0.074422 0.412359 -0.681559)
(0.0187048 0.0975557 -0.723642)
(0.0225789 0.309504 -0.792328)
(0.100494 1.85139 -0.245876)
(-0.055537 1.51573 -0.139922)
(0.0224787 1.05421 -0.218541)
(-0.168057 1.52578 -0.458381)
(-0.0265374 1.99296 -0.461366)
(-0.0729423 1.40564 -0.561508)
(-0.175155 1.17012 -0.612048)
(-0.275872 1.65451 0.0156553)
(-0.27761 2.32099 0.141778)
(-0.340722 2.09031 0.112161)
(0.124411 2.62497 0.13202)
(-0.154033 2.24244 0.0199828)
(-0.213073 2.74356 0.122457)
(-0.33394 2.35899 0.132028)
(-0.0277007 2.08749 -0.511713)
(0.204134 1.79194 -0.678669)
(0.165554 1.64988 -0.542433)
(0.0381956 2.25292 -0.394868)
(-0.126375 2.16321 -0.211706)
(0.183855 1.91391 -0.581637)
(0.0435928 1.62038 -0.379603)
(-0.0172548 1.32654 -0.176989)
(0.00629478 1.17547 0.0252731)
(0.0164611 1.43716 -0.349684)
(-0.100306 1.70574 0.0600974)
(-0.0847661 1.79562 -0.156154)
(0.0540739 1.60047 -0.466852)
(0.070123 1.67297 -0.215467)
(-0.0174806 1.48523 -0.255725)
(-0.0686113 1.7362 -0.192989)
(-0.0334701 1.71286 -0.146445)
(0.144895 1.56543 -0.314767)
(0.254786 1.51827 -0.477081)
(0.124953 1.5542 -0.520369)
(-0.187127 0.883945 0.00296062)
(-0.111401 0.379155 -0.306095)
(-0.0140448 1.02655 -0.753888)
(0.104212 0.990682 -0.569938)
(0.0915578 1.24218 -0.308493)
(-0.304045 0.327593 0.0351252)
(-0.0659458 1.22878 -0.0925011)
(0.0397433 1.23495 -0.409817)
(-0.260231 0.029108 -0.282387)
(0.0426651 0.037155 -0.298947)
(0.0654166 -0.360245 -0.248606)
(-0.424319 0.295884 -1.09879)
(-0.0096008 0.20711 -0.538483)
(-0.155221 0.455947 -1.4376)
(-0.257286 0.30387 -0.328813)
(0.139045 0.259631 -0.67511)
(-0.279669 0.299338 -1.3689)
(-0.64571 0.281808 -0.90642)
(0.0508621 1.44606 1.11892)
(0.0149669 1.29699 1.21938)
(-0.00975648 1.43651 1.125)
(0.0520749 1.28709 1.0779)
(0.104568 1.14512 1.06364)
(0.128902 1.19976 1.06539)
(0.189437 1.35725 1.05281)
(0.00402577 1.44951 1.23557)
(-0.00215082 1.21517 1.21815)
(-0.0132063 1.12 1.16979)
(0.0248089 1.19327 1.00317)
(-0.038534 1.31251 1.17474)
(0.00241887 1.09765 1.12559)
(0.0244779 0.968268 1.04944)
(0.00376314 0.797028 0.818598)
(-0.0413321 0.918507 0.969556)
(-0.0279964 0.953501 0.966153)
(-0.0513789 1.28741 0.886458)
(-0.00439848 1.05402 0.786334)
(-0.0778853 1.46122 0.843016)
(-0.0316579 1.03623 0.776048)
(-0.023848 1.23036 0.679858)
(-0.121973 1.56487 0.869463)
(-0.151928 1.25324 0.910183)
(-0.00943684 0.667289 0.41851)
(0.00939492 0.8032 0.556397)
(0.0864084 0.645215 0.257654)
(0.0162457 0.820969 0.571356)
(0.0771275 0.642475 0.161353)
(0.102522 0.714707 0.319617)
(0.0457045 0.790764 0.143924)