/*--------------------------------*- C++ -*----------------------------------*\
| =========                 |                                                 |
| \\      /  F ield         | OpenFOAM: The Open Source CFD Toolbox           |
|  \\    /   O peration     | Version:  v2012                                 |
|   \\  /    A nd           | Website:  www.openfoam.com                      |
|    \\/     M anipulation  |                                                 |
\*---------------------------------------------------------------------------*/
FoamFile
{
    version     2.0;
    format      ascii;
    class       surfaceScalarField;
    location    "0.35";
    object      alphaPhi0.water;
}
// * * * * * * * * * * * * * * * * * * * * * * * * * * * * * * * * * * * * * //

dimensions      [0 3 -1 0 0 0 0];
oriented        oriented;


internalField   nonuniform List<scalar> 
13152
(
1.08745e-06
2.0378e-05
-1.81959e-06
-1.96459e-05
1.88192e-05
-1.70323e-05
-6.99446e-07
-3.44645e-06
4.26436e-05
-3.46338e-05
3.54267e-05
-2.61247e-06
2.12044e-05
-7.5484e-05
2.8538e-05
-2.43659e-05
6.05183e-05
-1.60711e-05
-2.95463e-05
-2.84958e-05
7.41131e-05
3.8307e-07
-1.67281e-05
2.7392e-07
-2.99488e-05
7.85594e-07
7.82899e-06
5.14716e-06
-2.97042e-05
7.78418e-06
3.18724e-07
-5.09923e-06
-1.56124e-05
-2.99008e-05
-8.6602e-06
-1.46553e-05
-5.139e-06
2.84545e-05
-8.79867e-08
-8.66165e-06
8.94304e-08
-1.41678e-05
-5.75469e-07
5.68331e-06
-3.05626e-05
1.62177e-05
-2.92937e-05
2.9838e-05
2.93827e-05
-4.86455e-07
3.19696e-08
-1.53256e-05
-2.99419e-05
7.29936e-08
-7.49717e-05
3.29544e-07
1.59776e-05
3.02522e-05
-8.46409e-08
7.46842e-05
3.57226e-05
1.2651e-05
2.5458e-05
-7.38317e-05
4.36665e-07
-8.10767e-07
3.60967e-05
1.23883e-05
2.81305e-07
-1.86906e-05
7.37225e-05
7.79244e-05
2.91265e-05
-7.57044e-07
-2.93911e-05
1.02156e-06
-1.64172e-05
-2.68329e-05
7.23767e-05
1.56538e-07
-1.73308e-05
-8.09141e-06
8.00986e-06
2.38085e-07
5.32025e-06
-3.07425e-05
-4.96767e-06
-1.38554e-05
-2.90385e-05
-1.37752e-05
1.5787e-07
2.92049e-05
3.2425e-07
5.07316e-05
1.14228e-06
-1.64333e-05
-3.48259e-05
-2.82152e-05
3.10577e-06
7.77518e-05
-2.14896e-05
-5.12054e-06
-4.04823e-05
-2.47375e-05
7.33766e-05
-3.82029e-06
-5.2839e-05
5.38552e-06
-7.58411e-06
-1.91749e-05
3.34495e-06
-3.00264e-06
-1.07996e-05
-1.0458e-05
-2.1532e-05
-7.55938e-09
4.7803e-08
-1.36743e-08
-2.48606e-08
8.12759e-08
-3.50334e-08
-5.75722e-08
-1.2223e-08
-1.21743e-07
2.8045e-08
2.5701e-08
-5.43634e-08
1.74478e-08
-8.56826e-09
-1.23256e-07
1.16954e-07
-1.34441e-07
-1.07702e-09
-5.44645e-10
-4.90244e-11
1.0993e-09
3.90411e-10
-8.74823e-09
2.92503e-09
-2.97478e-09
2.56694e-10
3.03405e-09
1.21679e-08
-3.89565e-08
1.09499e-09
9.11852e-11
-5.6093e-09
7.36861e-09
-1.71085e-08
-5.5206e-11
-2.09248e-12
-2.01205e-09
-1.5331e-10
-4.43861e-11
-1.30571e-11
1.53037e-12
-5.26045e-13
-4.3692e-10
-1.87776e-09
-1.51293e-10
4.62973e-10
9.09696e-10
-1.82706e-08
-8.09503e-10
1.76018e-12
-7.12603e-09
1.24818e-09
8.1709e-11
1.37856e-09
-1.60286e-08
1.54649e-09
8.21188e-09
-1.70395e-08
6.6266e-10
7.50487e-11
-2.99671e-09
4.19436e-09
8.76414e-09
2.32646e-09
-4.38985e-09
-4.09271e-10
2.72039e-09
9.84973e-09
-2.91233e-09
-1.35717e-09
5.30397e-09
4.92438e-09
4.65929e-09
3.49916e-09
-1.41348e-08
5.26981e-09
-1.44903e-09
-4.73307e-09
-5.63985e-09
1.76977e-08
-4.01875e-09
5.35335e-09
6.29151e-09
-6.2069e-10
6.75651e-09
-2.31705e-05
-7.46899e-06
-1.3379e-06
2.97779e-05
2.33609e-06
-1.81316e-05
-7.37969e-06
-1.31783e-06
4.89174e-07
1.87784e-06
2.25273e-06
-7.11504e-06
6.38561e-06
2.31963e-07
2.2935e-05
-3.88172e-05
2.10513e-05
-4.01259e-07
-3.23345e-06
-1.49254e-06
5.35004e-06
3.85237e-08
-2.95576e-07
-2.62494e-07
-6.91369e-06
3.69371e-06
4.83383e-07
1.96433e-07
-1.48203e-06
2.66265e-06
-2.5009e-06
3.03673e-06
-1.10775e-05
1.88676e-06
7.30699e-06
1.11686e-08
-7.72664e-06
4.26702e-07
-1.05987e-05
-3.58519e-06
2.10529e-05
7.16035e-07
-1.28293e-05
-5.4679e-06
-2.22093e-05
2.36307e-05
-2.66892e-05
1.3519e-05
-3.52473e-05
4.37798e-06
-7.54363e-05
1.2756e-05
1.18044e-05
2.10404e-05
-4.54509e-05
-1.60241e-06
6.06628e-06
8.49196e-06
2.68767e-06
6.59846e-06
9.19923e-06
1.80051e-05
-1.8298e-06
1.35182e-05
1.30292e-05
1.06855e-120
2.36397e-24
6.24823e-26
-1.77879e-25
-1.61409e-120
-9.41701e-121
-1.48094e-120
1.80917e-25
2.60918e-24
-1.22277e-94
-4.60909e-94
-6.96849e-94
-7.50686e-95
-1.50214e-94
-6.21357e-26
2.92365e-25
3.46599e-28
1.75833e-05
-1.68452e-07
-1.79099e-05
-1.40945e-07
-2.40645e-05
-2.70958e-05
6.85182e-05
-8.69826e-07
-2.34987e-05
-2.58498e-05
2.57448e-05
-8.31834e-07
2.15372e-05
-7.11854e-05
-3.87403e-06
2.52204e-06
-2.48481e-07
-4.03512e-104
6.57529e-116
2.73481e-104
1.30031e-104
4.18893e-116
1.62948e-103
2.443e-103
-4.71246e-116
-7.17422e-116
-2.86405e-58
-4.6707e-60
-3.02262e-62
-9.15763e-19
9.40657e-19
3.91262e-17
5.15686e-17
3.82104e-17
1.70484e-12
1.08412e-12
-1.38525e-12
-2.92538e-12
6.49573e-13
-1.17896e-11
1.1878e-11
-1.33523e-12
2.24567e-12
-3.63209e-13
1.4908e-12
-6.70753e-12
5.89901e-12
-9.95792e-12
8.15978e-13
-6.81785e-12
1.28923e-12
-3.97466e-14
-4.81924e-14
-5.05513e-14
1.36765e-13
2.32795e-14
-2.40088e-14
-4.47694e-14
-1.41869e-13
8.12547e-14
-3.22942e-14
1.06478e-13
-9.64834e-14
7.84293e-14
-1.58866e-13
1.01748e-13
-1.81346e-13
1.56723e-13
-3.57432e-15
1.76408e-14
-3.46078e-14
1.44519e-14
3.71375e-14
-4.96851e-14
-8.76662e-16
-4.08354e-14
8.57504e-14
5.384e-14
3.77314e-14
-1.43801e-13
4.15026e-14
4.54776e-15
5.26876e-15
-1.02028e-14
-1.45473e-15
8.25653e-14
1.12843e-14
-7.34619e-14
-2.31804e-14
-4.92913e-14
1.54221e-15
1.27684e-13
5.95287e-15
-2.93029e-14
2.37205e-14
-2.28466e-14
-7.38301e-14
-1.84695e-14
4.55368e-14
-2.60062e-14
6.80707e-14
-2.58396e-14
2.92678e-14
-7.0895e-14
-1.59421e-14
6.72179e-14
-7.1146e-15
2.64712e-14
1.97884e-14
-4.30649e-14
-1.68225e-14
1.40582e-14
-5.27848e-14
6.2856e-14
-3.77273e-14
6.65668e-14
6.38579e-15
7.50249e-14
3.00781e-14
-3.76381e-14
3.89616e-14
-5.74297e-14
7.60977e-14
6.02295e-14
2.71144e-14
-8.68011e-15
-9.49879e-14
4.37571e-15
3.49788e-14
2.28208e-14
5.15214e-15
1.95932e-14
9.11643e-14
7.12195e-15
-1.16348e-13
1.43943e-14
1.18549e-13
2.55693e-14
-3.51238e-14
1.46586e-14
-1.70029e-14
4.69521e-14
-5.08625e-14
4.85016e-14
-7.67094e-14
1.5527e-15
4.04789e-15
5.48453e-15
-1.01564e-14
2.95139e-15
1.49422e-15
-1.936e-15
2.20588e-15
5.18524e-15
4.64991e-16
3.64227e-15
1.67283e-15
1.39704e-15
1.46127e-15
2.94395e-15
-4.03809e-15
3.5646e-15
-8.18442e-15
1.41126e-14
8.95149e-17
-5.07382e-15
-2.3466e-15
-5.37992e-16
-7.12111e-16
1.96323e-16
1.23029e-15
-1.66246e-16
-4.19717e-16
6.64082e-16
-2.12418e-16
-4.89824e-16
1.18517e-15
-9.06776e-18
-1.44011e-15
2.44212e-16
6.03001e-16
-7.04145e-16
1.19621e-15
-8.15492e-17
-1.88047e-16
5.40313e-18
1.93495e-16
-8.13653e-17
7.90844e-16
-6.35595e-16
3.01008e-16
-6.23462e-16
7.56062e-17
-6.35291e-16
5.29721e-16
-1.58925e-15
2.13194e-15
8.98904e-16
-1.5222e-15
6.36427e-16
-2.12303e-16
-2.75268e-16
2.7216e-16
-1.6552e-17
1.77347e-15
5.00122e-17
-2.04003e-15
4.87301e-15
-3.49126e-15
-3.28132e-16
-1.1479e-16
-2.71701e-17
-2.94069e-16
8.71825e-17
-6.66245e-17
4.82774e-15
3.98916e-17
6.02258e-18
4.6014e-18
-5.05957e-17
2.66263e-15
2.17364e-13
-2.19986e-13
2.661e-15
1.48471e-17
-1.61573e-17
-3.54881e-14
3.81681e-14
-1.29854e-18
3.68162e-20
3.37154e-18
1.74804e-21
1.81879e-13
-3.21111e-21
2.21116e-20
2.16086e-20
-8.36158e-21
3.258e-20
-8.35376e-21
-1.45155e-20
3.10084e-20
6.42993e-20
-6.42362e-20
1.57155e-19
4.42352e-19
8.0486e-21
-3.43557e-20
4.05186e-20
-9.62434e-21
1.61053e-19
8.274e-20
6.44676e-20
4.20785e-20
-1.97885e-19
4.84087e-19
2.0859e-18
9.9705e-20
4.31651e-19
-6.16833e-19
2.22031e-18
1.4969e-18
5.09082e-18
-5.67418e-18
2.72531e-17
2.34423e-17
2.86207e-17
-1.66806e-17
-2.93834e-16
-7.98204e-18
2.6275e-16
-2.88635e-16
2.47368e-16
-2.52693e-17
3.4481e-16
-2.7827e-15
5.55615e-16
-1.66979e-16
-2.60784e-16
-3.18118e-16
-3.137e-16
1.32471e-15
-6.27137e-17
9.38886e-15
1.51432e-14
1.09086e-14
-3.84024e-14
-4.61006e-15
7.7538e-15
2.89094e-15
2.77657e-14
-1.77837e-14
-1.04307e-14
-7.75546e-15
2.43149e-14
-1.3634e-14
3.9791e-15
-2.04886e-14
3.79105e-14
-2.70442e-14
-1.95577e-14
-2.67773e-14
1.5193e-14
2.12709e-14
-2.46689e-15
3.7416e-14
5.25531e-14
-9.2568e-14
1.22293e-14
-4.56867e-14
3.57732e-14
-2.0862e-14
4.97369e-14
3.04349e-15
-2.15678e-14
-3.21917e-14
-1.29358e-14
-6.36511e-15
-8.3426e-16
2.06657e-14
2.54698e-14
-2.52293e-14
-1.55377e-14
1.93415e-14
3.81115e-14
3.29663e-14
2.13705e-14
6.11784e-14
-3.06853e-14
2.04771e-14
-4.44216e-14
-2.77652e-14
9.24191e-14
4.37361e-14
-7.0711e-14
7.84732e-14
1.90153e-12
-2.64328e-12
-6.60652e-12
4.10908e-13
-3.33392e-13
-5.01781e-13
1.59475e-12
-4.11565e-12
-3.90016e-11
1.16313e-11
2.02681e-12
-2.41765e-11
1.40052e-12
6.06726e-12
-3.58795e-12
3.28547e-12
-9.7503e-12
-7.93255e-06
1.16892e-06
8.19296e-06
-9.22633e-07
9.30571e-06
2.02136e-06
-1.92897e-05
4.69388e-06
7.30395e-06
-4.79569e-06
1.12394e-05
1.73676e-06
1.11185e-05
-1.39085e-05
5.50238e-06
-2.77431e-05
2.39172e-05
-1.71172e-05
2.96367e-05
6.96134e-06
-2.34776e-05
2.51444e-06
-4.29381e-06
1.88215e-07
5.11367e-06
-1.00627e-06
1.26847e-05
1.28665e-06
-1.82628e-05
7.85354e-07
1.2096e-05
3.80615e-06
1.60439e-05
-1.85612e-05
2.06789e-05
-1.17572e-05
2.06154e-05
-3.49615e-06
5.34088e-05
-1.84628e-05
-7.77204e-06
-1.88608e-05
4.50875e-05
-1.25586e-06
-2.97476e-05
1.2537e-05
-8.28471e-06
-7.56235e-07
9.36352e-06
7.19186e-06
-2.48395e-05
9.55867e-06
-9.5761e-07
4.30197e-05
-2.08303e-05
-5.19398e-05
-2.66173e-05
5.07729e-05
3.34914e-06
-1.69868e-05
-1.3716e-05
9.51147e-06
1.26668e-05
-3.9773e-05
-3.24469e-06
-7.79712e-06
-6.95212e-07
2.28185e-05
-2.02779e-05
-1.83337e-06
1.13986e-05
-1.15843e-05
-5.14513e-07
-2.07614e-05
5.49775e-05
4.99488e-06
3.8716e-06
-2.04508e-05
5.32283e-06
-8.43453e-07
-3.82767e-06
-1.16112e-05
-2.0234e-05
-6.00978e-12
-1.47928e-12
2.05191e-12
-2.51676e-12
8.96832e-12
2.03674e-11
-1.34618e-10
2.72788e-12
7.54534e-14
6.20162e-13
2.47599e-12
1.57871e-11
2.41401e-13
9.81567e-13
-5.29566e-13
1.36626e-12
5.72743e-13
3.74854e-06
2.81257e-07
-6.03256e-06
-1.78104e-07
-2.88885e-07
-5.52399e-07
3.81496e-06
-6.54e-09
-7.0825e-10
5.99814e-07
-2.00051e-07
-6.4938e-06
-7.65185e-09
5.45908e-08
5.89647e-09
6.07987e-09
-2.31157e-08
6.87276e-09
-1.40771e-09
-2.83284e-09
2.07723e-09
-1.96812e-07
-2.54827e-11
-6.18328e-12
7.55965e-12
9.49462e-12
6.53613e-12
4.38929e-11
-1.05867e-10
8.4197e-12
-1.09377e-11
5.75912e-12
-1.85162e-11
8.26063e-12
-3.6316e-12
1.15201e-11
2.31267e-11
-1.78011e-11
2.33956e-11
1.39166e-06
1.70382e-06
1.96483e-06
-4.10195e-06
-6.47478e-07
9.33037e-07
8.55789e-07
1.28062e-06
-4.63861e-07
4.48789e-07
-2.58512e-06
3.75768e-06
-1.09278e-06
2.27429e-06
-7.43722e-07
9.19431e-07
-9.04364e-07
-7.09755e-08
1.60264e-06
-3.89802e-08
-1.45655e-06
1.84243e-06
-5.80968e-06
4.73769e-06
8.16198e-07
4.38248e-05
-1.74593e-05
-3.16956e-05
1.78027e-06
5.0397e-05
4.43914e-06
-2.42769e-06
-1.17556e-05
-8.12479e-07
1.2078e-05
-1.54857e-06
1.75385e-06
-3.9794e-06
-2.75132e-05
-1.12539e-06
2.73749e-05
-7.28318e-08
2.10265e-05
1.39404e-05
-6.13505e-05
1.74861e-05
-1.17796e-06
-7.63461e-06
9.41262e-06
2.82403e-05
1.29772e-05
-6.68429e-06
-2.89357e-05
-8.09941e-06
5.6526e-05
-3.03925e-05
3.51859e-06
7.19498e-06
-2.47224e-05
8.40672e-06
8.15629e-06
-1.9665e-07
-9.39775e-06
1.46736e-06
-7.58077e-06
-3.53271e-06
1.93068e-05
1.16953e-06
-8.8115e-06
-6.92508e-06
-2.09096e-05
2.27187e-05
-3.22588e-05
1.5975e-05
-2.94488e-05
5.02159e-06
-7.35231e-05
-2.58663e-06
-5.62939e-06
1.01083e-05
-2.09785e-06
-6.14668e-06
4.95742e-06
-7.43647e-06
1.77485e-05
-4.45596e-05
-2.35073e-06
-4.389e-05
-1.37167e-05
3.43723e-05
1.49887e-05
-6.00568e-05
6.55586e-06
1.96433e-05
-5.01762e-06
-1.41721e-05
-6.43452e-06
2.63853e-05
-4.35844e-06
-7.0063e-07
1.01178e-07
-4.51369e-06
-4.11446e-06
8.95008e-06
1.63188e-07
-1.37098e-05
2.14812e-05
-8.6534e-06
4.21777e-06
-4.76016e-06
2.16249e-05
3.09077e-08
-3.82284e-08
1.67645e-08
-9.49272e-09
-5.57244e-08
2.09749e-08
6.55479e-08
-4.48226e-08
-4.61308e-08
1.1968e-07
5.60497e-09
-1.7018e-07
1.0484e-07
-1.0386e-07
2.68411e-09
2.38142e-08
1.27091e-07
-1.73727e-09
1.57243e-09
-2.61558e-08
1.80843e-08
1.52136e-09
-9.80091e-09
-8.69026e-10
-4.26038e-09
2.11786e-09
4.18551e-09
4.03608e-08
-5.86059e-08
7.39749e-10
-2.28576e-09
2.70711e-09
1.39751e-08
2.2418e-08
1.67468e-09
1.19645e-09
-2.49764e-09
-5.96249e-10
-1.59403e-08
4.8271e-11
-7.23425e-11
-2.42992e-10
2.64147e-10
-1.94227e-10
-2.39339e-10
4.7743e-10
-3.0337e-11
-2.4211e-10
-1.48582e-10
2.02699e-10
-8.79438e-11
3.81506e-10
-1.01716e-09
1.6041e-10
-1.99966e-10
2.96009e-10
1.59281e-09
5.92446e-09
1.23663e-09
-8.74829e-09
8.46489e-10
-1.40254e-10
5.72287e-10
2.37239e-09
4.40412e-09
1.12006e-09
-1.46124e-09
1.01361e-10
-5.96669e-10
3.98887e-09
1.14954e-10
-1.18814e-09
-1.19608e-09
-4.56277e-10
-1.33524e-10
-1.46122e-09
3.37892e-09
-1.41114e-09
1.57513e-07
-2.12941e-07
7.21054e-08
1.52886e-09
-8.15697e-07
-2.11797e-09
8.83944e-07
-7.71999e-09
-6.18133e-07
-1.193e-08
9.83211e-09
7.64889e-08
-3.60779e-10
-9.49121e-09
1.17572e-09
-3.11154e-09
3.83498e-09
1.24613e-06
-4.05078e-05
-1.24058e-06
4.05311e-05
-4.17649e-05
3.87733e-05
4.25243e-06
3.84195e-05
-0.000120671
4.41184e-05
-3.96231e-05
-5.70077e-06
-3.83976e-05
0.000123043
-3.03028e-06
3.40697e-06
-4.21808e-06
1.79034e-14
2.18977e-14
-1.18618e-13
-6.84773e-15
2.3432e-14
-2.46816e-13
7.36767e-14
-3.3837e-14
3.61368e-14
1.19521e-13
2.43731e-13
-7.5093e-13
9.35728e-14
-5.54808e-14
2.01653e-13
-5.04119e-13
1.16755e-13
2.27718e-14
1.41913e-14
1.40784e-14
-1.06779e-13
-1.8958e-15
1.40424e-14
2.74107e-15
-8.70914e-16
1.11861e-14
-2.38785e-14
4.57012e-15
2.65076e-14
2.7882e-14
-1.19277e-13
1.54704e-14
-5.20212e-16
2.89338e-14
5.1645e-15
8.30555e-14
4.24671e-15
-2.62499e-13
8.70688e-14
-7.26714e-13
4.71805e-14
-2.29792e-14
1.15119e-13
-4.54944e-13
1.00347e-14
1.04251e-13
7.17701e-13
-2.43969e-12
6.68261e-13
-2.29359e-12
3.07002e-13
3.30343e-11
2.21959e-12
-2.8663e-11
-6.38217e-12
-9.51837e-12
-3.77416e-12
3.05522e-11
1.00419e-12
-1.12197e-11
7.97776e-12
-1.12262e-11
-3.44308e-11
-2.86521e-12
2.92003e-12
-1.15186e-11
7.48138e-12
3.53649e-12
3.64925e-12
-2.86148e-11
-5.20604e-12
9.13354e-12
-1.04002e-11
2.1728e-10
2.28908e-12
-1.91756e-10
-9.4949e-12
-2.708e-10
-5.23143e-11
6.12375e-10
1.48618e-11
-1.3128e-11
-2.29269e-11
-2.95661e-11
8.21587e-11
5.93718e-12
-3.23247e-11
-2.56515e-10
1.97936e-10
-3.91049e-10
-1.53452e-06
-1.67437e-07
1.45727e-10
1.30343e-06
2.78472e-06
2.7936e-06
-7.11143e-06
3.12187e-06
-5.03104e-07
7.02967e-07
-7.39637e-07
-4.60593e-08
-5.56977e-07
2.44973e-06
4.72355e-07
1.5819e-06
3.03775e-06
-1.001e-08
8.66481e-07
1.03394e-07
-8.73981e-07
3.16878e-07
-3.39642e-07
-1.56681e-10
-2.31535e-06
3.08388e-06
-2.99018e-06
2.59166e-06
7.29678e-07
-4.96633e-06
1.46635e-07
-2.06211e-10
4.24195e-07
2.92925e-09
-2.92466e-07
-2.02633e-08
2.85452e-07
-2.06258e-07
1.94063e-07
-6.93565e-09
1.18017e-06
-1.48268e-06
3.59306e-07
-3.44423e-07
-2.54764e-08
-1.23398e-07
7.20107e-07
-1.50262e-07
1.84899e-07
6.24641e-07
7.34895e-07
1.60135e-06
1.73791e-07
-3.08916e-06
-2.15112e-08
3.60681e-07
4.59384e-08
3.10382e-07
-1.05166e-08
3.26785e-07
6.98547e-07
-1.07195e-06
6.36725e-07
-1.16848e-07
-5.80828e-07
-4.06643e-08
-6.19325e-07
-1.93573e-07
1.16877e-06
1.85214e-08
-1.24758e-09
7.88852e-08
-2.64537e-06
-1.38356e-07
-1.36344e-06
-7.11029e-06
-2.4815e-07
-1.78537e-07
-2.56799e-08
5.11827e-07
-3.04842e-09
-2.71304e-08
1.3828e-09
-4.49576e-09
-9.5417e-08
9.74914e-08
-1.02453e-07
-3.1914e-09
-2.46736e-07
3.34137e-07
-1.71629e-07
-8.86546e-09
-2.99515e-07
3.22734e-08
2.81528e-07
-1.22343e-09
-1.34423e-09
5.34168e-08
-2.9744e-09
4.33918e-08
-2.64363e-08
4.90332e-07
4.60291e-09
3.12558e-09
-4.68341e-09
3.10274e-08
-3.56484e-08
-2.49577e-09
3.73209e-09
1.54274e-07
-4.01641e-08
4.89165e-07
9.32721e-09
-7.87895e-09
6.08555e-10
4.1108e-09
-5.20354e-12
4.15077e-08
7.58755e-09
-5.45126e-08
1.2925e-07
-5.77663e-09
-3.47231e-10
-3.80204e-09
8.51797e-09
-1.58455e-10
4.84576e-12
-1.05322e-09
-3.27669e-08
2.92988e-08
-1.00921e-09
-7.66654e-11
7.3897e-09
-5.63117e-10
1.35457e-07
-2.36623e-07
-3.71987e-08
-1.54866e-09
3.45566e-08
-2.13065e-07
-1.25573e-09
-1.07184e-09
-1.65948e-09
2.44486e-12
-2.29194e-09
-4.75763e-10
-5.1506e-11
3.11089e-11
7.90409e-10
-1.40027e-09
6.16806e-11
-1.38284e-12
2.25526e-11
-5.5918e-12
-2.47357e-11
3.29816e-11
-3.73903e-11
-3.34858e-11
-7.28063e-11
-1.57567e-11
-1.27869e-11
2.35315e-13
-6.98656e-13
1.34924e-11
-1.59408e-10
4.07526e-11
-1.56501e-10
-1.0346e-12
5.75615e-15
-2.45613e-14
-9.69587e-15
3.35823e-14
-3.99953e-14
3.25633e-14
1.73191e-14
-8.58917e-16
-5.7936e-14
1.14423e-13
-8.5897e-14
-6.00935e-14
1.40815e-15
1.49958e-13
2.64448e-14
-4.95796e-15
-1.33091e-13
-7.23453e-15
5.5899e-14
-7.68066e-15
3.221e-14
-1.16139e-14
-2.36839e-15
-4.4797e-16
1.06917e-14
-4.31561e-16
2.3173e-15
3.13537e-15
-8.25085e-15
-2.34365e-17
2.21429e-14
1.88778e-15
-2.27295e-15
1.59194e-16
-8.78245e-15
3.7615e-14
-1.58905e-15
1.38826e-15
2.0623e-15
8.41767e-16
-7.06089e-16
-2.2952e-16
8.59299e-16
-3.32766e-15
-8.68009e-17
4.6388e-15
-2.32625e-15
3.43754e-16
3.40621e-17
-1.09391e-15
1.28085e-16
1.32366e-17
-1.98197e-15
2.47816e-15
-3.12999e-15
7.21914e-16
6.00448e-16
1.07059e-15
-2.63776e-15
-4.27886e-16
4.45054e-16
5.53753e-16
2.33583e-15
-3.22646e-15
1.40878e-17
-1.75999e-15
1.93073e-15
-8.40537e-16
1.33806e-15
-1.02706e-15
1.99239e-15
-1.89583e-15
-1.02888e-14
1.94812e-14
1.31774e-14
-2.86878e-14
4.71846e-14
-4.54233e-14
5.4823e-14
-9.12912e-14
5.73242e-14
-1.14239e-13
3.34139e-14
2.35497e-14
1.25953e-14
-5.4762e-14
9.07429e-15
7.16977e-14
-4.56685e-14
2.60016e-14
3.92479e-15
-3.37464e-14
-1.96599e-14
8.41157e-14
-2.56054e-14
4.30435e-15
-4.25641e-14
1.01445e-13
-5.29522e-14
3.43971e-14
3.26442e-14
6.31128e-14
-1.28389e-13
-8.94967e-15
1.70319e-14
1.39325e-14
-1.8815e-14
1.56048e-14
6.53163e-14
-2.13351e-14
-7.55851e-14
1.98676e-14
3.27605e-14
-2.78414e-14
4.69054e-14
6.04054e-15
5.29889e-13
-2.26763e-13
-8.38788e-13
1.24027e-13
-7.74079e-13
-3.36384e-13
1.36617e-12
-1.26851e-12
-2.0185e-13
2.67576e-12
1.73411e-12
-6.66737e-12
1.4586e-12
1.04141e-12
-1.21805e-12
2.45079e-12
-5.38721e-13
7.93857e-11
2.69905e-10
8.56316e-11
-3.17319e-10
-1.17452e-11
1.11585e-09
3.80012e-09
1.75991e-10
-3.71181e-12
7.64098e-10
-3.66107e-09
4.53102e-09
-5.30086e-10
8.26197e-09
-2.25338e-09
1.95067e-09
-4.66477e-09
1.97219e-10
-4.12437e-09
-1.4366e-13
8.22225e-10
-7.90546e-09
7.28614e-10
-1.41253e-09
7.45777e-10
-1.80991e-08
1.14803e-11
-1.16151e-11
-9.0011e-15
4.55185e-12
3.1009e-10
2.91736e-12
-1.49374e-11
-6.14262e-12
-6.35137e-12
3.45781e-12
-3.76927e-10
3.39146e-10
-2.26331e-10
5.08574e-14
1.58097e-14
2.66071e-14
-2.74551e-13
6.9901e-14
4.08891e-13
-9.64452e-13
5.70984e-14
4.76423e-15
1.21556e-13
1.91381e-13
-1.79404e-13
2.44433e-14
5.42073e-14
-9.43889e-15
1.28895e-13
8.9778e-15
7.72825e-15
-1.5296e-16
-7.36787e-13
7.44944e-13
-2.47203e-14
-5.88717e-15
4.88706e-14
-2.49318e-14
9.93618e-15
3.92701e-14
2.81912e-14
-8.69679e-14
2.04953e-14
3.60064e-14
-1.08991e-14
3.63775e-14
-7.16531e-13
-2.12193e-12
-2.35622e-12
-2.4373e-12
5.94481e-12
-1.34725e-12
-3.99871e-12
1.84188e-12
-3.34535e-12
-2.30167e-12
-5.40171e-12
-1.60397e-11
1.80355e-11
-5.64412e-12
-2.01321e-12
4.50569e-12
-2.53825e-11
-1.77042e-12
3.17282e-10
-1.01697e-10
-1.09983e-08
1.06562e-08
-2.68165e-10
-9.99394e-10
1.50048e-09
-3.93137e-12
-5.34719e-10
-5.14394e-10
1.46259e-10
1.27633e-10
-1.46731e-09
3.05249e-10
1.19858e-09
-1.69996e-08
-2.05279e-09
6.00314e-06
1.7926e-06
-4.27853e-06
-3.43322e-06
-4.50093e-06
-3.9187e-06
1.43681e-05
-5.0093e-06
2.31319e-06
2.41825e-06
-2.03201e-06
-4.65809e-06
-4.49516e-06
2.95819e-06
9.57978e-06
-1.66111e-05
7.36442e-06
-1.75831e-05
-3.66399e-06
8.20199e-06
1.3058e-05
4.03864e-06
2.4713e-06
-2.4254e-05
-2.6468e-06
2.99084e-06
1.07454e-05
-1.15677e-05
-2.04753e-06
-3.60815e-06
1.70579e-05
1.87467e-05
1.10423e-05
-2.74164e-05
5.43325e-06
2.14596e-05
1.50133e-06
-2.30861e-06
3.3099e-06
-1.4635e-05
-8.88171e-06
-4.41052e-06
2.77516e-05
1.0036e-06
-1.79432e-05
-8.9466e-06
7.4262e-07
3.03583e-06
-1.48864e-06
-1.0522e-05
3.60113e-06
1.23578e-07
4.04308e-06
5.63803e-06
-1.11981e-05
1.35176e-05
-5.85494e-06
1.98429e-05
-3.25453e-05
2.90002e-05
-1.9628e-05
-1.21912e-06
1.45028e-05
6.20398e-06
5.26011e-06
1.33944e-05
-3.82836e-05
-6.60906e-07
4.62129e-06
8.32433e-06
-1.01846e-05
1.15776e-06
-2.94546e-06
1.5847e-05
-4.32418e-06
1.39256e-05
4.81157e-06
1.38826e-05
-4.81312e-06
-1.86062e-05
2.95859e-05
-1.49084e-05
-2.12416e-06
-9.87361e-06
2.77358e-05
-3.29466e-06
1.90349e-06
3.83512e-06
4.30104e-06
-1.14793e-05
4.23906e-06
1.30488e-06
4.27793e-06
-1.48853e-05
1.80429e-05
-9.77319e-06
3.76019e-05
-2.07947e-05
-2.94008e-07
1.5873e-05
5.20294e-06
1.2912e-05
1.70493e-05
7.92485e-07
1.17289e-05
1.51241e-05
2.62118e-06
-1.3326e-05
4.0103e-05
5.16741e-06
1.10642e-05
1.40307e-05
2.8154e-06
-2.79105e-05
6.60617e-07
1.1156e-05
-7.5928e-07
-1.67946e-05
1.09625e-05
-3.88189e-05
2.07327e-05
1.11047e-05
3.25254e-06
-3.96437e-05
-8.76678e-06
2.73279e-05
-7.59563e-06
1.82963e-05
4.26153e-05
2.75429e-05
5.97092e-06
7.26036e-05
3.51314e-05
-8.84348e-06
6.07067e-05
1.85117e-05
8.55468e-06
1.73184e-05
4.10672e-07
-2.36703e-05
-3.21044e-05
-6.23693e-05
-1.12193e-05
-1.23533e-06
2.17387e-05
2.69441e-07
-2.02407e-06
-1.81046e-06
-1.14182e-06
-1.40107e-06
-1.42507e-06
-7.31904e-07
-1.21323e-06
-1.05281e-06
-8.50885e-09
-1.10572e-06
3.98052e-08
-1.44035e-06
-4.12187e-07
-2.14787e-06
-2.50049e-06
-2.43626e-05
2.72722e-06
-3.49986e-06
1.4717e-05
-4.61832e-05
2.71138e-06
1.76892e-05
2.04359e-05
-3.25873e-06
8.14692e-06
1.83741e-05
6.69268e-06
1.63272e-05
-2.66268e-05
4.30917e-06
1.31289e-05
9.66603e-06
-1.49556e-05
9.2258e-06
-2.38229e-05
1.16118e-05
-2.00971e-05
1.46213e-05
4.44129e-06
1.31181e-05
1.28989e-05
2.04286e-05
1.61405e-05
2.01203e-07
-2.37061e-05
7.83616e-08
-1.51248e-05
-6.73714e-06
3.23382e-05
9.50759e-07
-1.63137e-05
-1.52374e-05
1.35545e-05
1.3203e-06
1.02194e-06
-3.2614e-05
-1.79688e-05
2.00424e-05
-4.20278e-05
-7.68548e-06
-1.75004e-05
3.55503e-06
2.18072e-05
1.76968e-06
-9.52553e-06
2.92921e-07
-1.68427e-05
2.47687e-06
-7.17673e-06
-1.34539e-05
2.51893e-05
-3.33852e-05
1.11022e-05
3.09143e-05
3.32288e-06
-3.29778e-05
3.94507e-05
3.15267e-06
3.85419e-05
-6.21078e-05
6.90086e-05
-1.06783e-05
-1.90432e-05
1.4957e-06
4.48145e-06
3.82578e-06
4.42928e-07
-5.91211e-06
-6.13978e-07
-2.17839e-05
-5.92226e-07
2.61925e-05
6.93518e-07
-2.17758e-05
2.14513e-06
-1.78295e-05
6.59105e-06
-1.27795e-05
1.15612e-05
-2.14769e-05
2.15257e-05
7.60461e-07
9.31604e-07
-4.41142e-05
1.73894e-05
-3.7078e-05
2.49834e-05
-1.18923e-05
-9.10685e-06
-5.06832e-06
2.60988e-05
-3.75417e-07
-1.13945e-05
-9.16042e-08
-8.58708e-06
9.12842e-06
-3.5716e-05
1.52324e-05
1.8583e-05
1.80133e-05
-5.51984e-05
-6.01913e-05
-1.50086e-05
-2.09218e-05
2.10668e-07
1.37965e-07
8.92466e-06
-6.67143e-07
-8.83756e-06
5.79993e-07
-2.04967e-05
-4.86207e-06
3.42834e-05
-1.33101e-06
-1.98332e-05
5.97095e-06
-3.22195e-05
1.7411e-05
-3.54717e-05
2.58386e-05
-3.37385e-05
-3.06418e-06
-8.57912e-05
-5.33517e-06
-1.72761e-05
-2.07572e-05
-9.88082e-07
-3.57209e-06
8.84233e-08
-1.73034e-05
8.14255e-06
-7.05387e-05
3.51807e-06
-4.43183e-05
-8.00774e-07
4.93708e-08
-2.57272e-07
6.35707e-07
6.24872e-07
4.17207e-07
-8.46727e-07
-1.63909e-08
4.5476e-09
3.79072e-07
5.86753e-07
-5.31397e-08
1.48331e-06
-4.57103e-07
-2.58851e-07
2.34687e-06
-3.88053e-07
1.2584e-06
-3.91825e-07
-1.44161e-07
-2.79101e-07
-2.05159e-08
7.01376e-07
7.83977e-10
-1.20069e-07
-1.88795e-08
-5.84219e-08
2.92016e-09
9.26698e-08
1.39482e-08
-1.65048e-07
1.22014e-07
4.02659e-07
4.22095e-08
-1.44463e-07
1.47245e-07
-1.63648e-07
2.05461e-08
1.61831e-08
-1.81909e-09
1.01016e-07
3.48532e-08
-3.85442e-07
1.06678e-07
4.17055e-08
-8.21221e-07
1.33675e-07
5.27891e-07
9.91514e-07
-3.36175e-06
-2.00568e-07
3.00116e-07
-6.2464e-08
-3.81568e-06
-1.44447e-05
4.06317e-06
1.26533e-05
-8.01459e-06
4.88522e-06
-1.70151e-06
2.45381e-06
-2.40689e-05
-8.73834e-06
5.25951e-07
6.36772e-06
-3.91986e-06
-6.91342e-06
1.35024e-05
-1.68244e-05
1.35499e-05
-3.94647e-06
2.63159e-06
9.16118e-06
-6.02875e-06
2.95456e-06
1.55615e-06
-6.48303e-06
2.28492e-06
2.67566e-06
1.43312e-06
6.88794e-07
-4.38307e-07
3.92976e-06
6.03544e-06
7.74496e-07
1.82962e-06
3.15863e-06
-5.53359e-08
1.07461e-08
3.36755e-09
1.72378e-08
1.33989e-07
2.06198e-09
-4.56844e-08
-8.96272e-08
2.3358e-07
-1.74647e-07
8.99901e-08
3.73941e-08
1.99794e-07
-4.71436e-07
-2.60691e-08
3.56541e-08
7.33773e-08
1.02083e-07
3.16655e-08
9.8564e-09
-1.47785e-08
4.17852e-08
1.41121e-07
4.64852e-07
-3.85806e-07
-2.38021e-07
3.41871e-08
-9.91691e-08
1.76285e-07
5.31992e-07
9.58559e-09
-3.34025e-07
4.15212e-07
-2.34563e-07
-6.19915e-08
-6.44934e-08
5.43964e-08
3.29259e-07
9.00835e-08
-3.81172e-07
-3.2288e-08
-4.23627e-08
-3.74656e-07
1.8723e-09
2.052e-09
-3.82664e-10
-3.66562e-09
4.02845e-09
1.75235e-08
-1.83208e-08
1.6922e-09
4.14027e-09
4.71914e-09
-2.08584e-10
-5.01819e-09
4.92935e-09
1.83026e-08
2.59433e-09
-1.28942e-09
1.1545e-08
3.41921e-14
2.7443e-14
4.32406e-14
-9.55025e-14
-3.71163e-14
4.38778e-14
2.73827e-14
9.71567e-14
-8.85642e-14
-2.17279e-14
-8.35429e-14
1.53614e-13
-5.93564e-14
6.64408e-14
-5.69955e-14
-7.92061e-14
-2.28967e-14
-1.89135e-14
-1.928e-14
6.30457e-14
1.54362e-15
-6.10449e-14
3.96879e-14
-1.60746e-14
1.51159e-14
-5.10066e-14
-3.70923e-14
7.17056e-14
-2.03352e-14
-8.69678e-14
2.65817e-14
-5.87021e-14
1.85255e-14
5.31007e-14
-1.95494e-14
3.95279e-14
-6.38543e-14
1.65019e-13
-6.87324e-14
-1.96458e-14
8.58241e-14
-1.15154e-14
7.91971e-14
8.0741e-13
-7.5424e-14
-7.44105e-13
1.0368e-12
-1.04909e-12
1.57459e-13
-4.05896e-12
6.91658e-12
-1.24447e-12
1.28277e-12
-8.91038e-14
3.49236e-13
-2.02342e-12
4.94879e-13
-1.13681e-12
-3.03709e-13
-1.21834e-12
-5.91855e-12
-5.64898e-13
7.37351e-12
-4.09054e-13
1.11817e-13
-3.77299e-13
-1.13299e-12
-1.35246e-13
-1.08856e-12
2.54612e-13
1.38118e-12
2.64104e-13
-1.43112e-12
2.49899e-12
-4.03911e-12
2.04898e-12
-2.03997e-08
-3.29687e-10
1.15761e-09
1.90837e-08
3.41608e-09
1.92986e-09
-5.51565e-08
1.94012e-09
-9.59197e-11
8.08208e-10
1.52819e-09
-5.48995e-09
1.06481e-10
1.37529e-09
-9.11969e-10
2.27559e-09
-9.566e-10
-2.60276e-06
-1.30375e-07
-6.98715e-09
1.65284e-06
4.41038e-06
4.18599e-06
-1.1172e-05
2.92636e-06
-1.94719e-07
1.04954e-06
-9.7608e-07
-3.90532e-08
-6.72034e-07
3.07326e-06
1.06827e-06
2.10058e-06
3.30738e-06
-3.66118e-08
2.02395e-06
-3.17966e-06
-5.66784e-09
9.92557e-07
-1.436e-06
-2.79974e-10
-5.28555e-07
1.6137e-06
3.58804e-06
2.94774e-06
-9.68283e-06
1.41908e-06
4.35229e-07
-2.87347e-09
2.08653e-07
-2.91724e-07
-5.98291e-07
-2.00145e-06
5.41556e-06
-5.68134e-09
1.45643e-08
-8.84572e-07
-6.71973e-07
-5.56115e-08
-9.19872e-07
3.84535e-07
-1.3219e-08
1.0442e-07
-3.34756e-06
-1.2506e-08
-6.27965e-07
1.65596e-07
1.48541e-07
-6.96249e-08
2.49443e-06
1.14615e-06
-7.38364e-06
6.46984e-07
-5.43989e-08
-3.22662e-07
4.20797e-07
-6.97433e-07
-4.22111e-11
3.03042e-06
-7.65193e-08
-6.52839e-08
-2.5473e-06
-1.11519e-06
-2.97047e-06
-2.23649e-08
-1.25305e-06
-2.82572e-06
2.69838e-06
-7.89621e-11
1.85532e-06
-4.98512e-06
-2.67766e-06
-3.18947e-07
4.90211e-06
4.94425e-06
7.85264e-08
3.38492e-06
1.27737e-06
-2.89295e-11
-1.42049e-11
4.92034e-11
1.26344e-12
-1.1205e-11
5.1534e-10
-3.57741e-13
9.29268e-12
-2.35636e-11
-9.52387e-12
-6.01199e-10
1.52575e-09
-7.91656e-12
-1.80725e-12
3.8376e-12
-2.41662e-12
2.42125e-10
-4.26783e-09
-1.69449e-08
-1.79598e-08
-4.30598e-10
-3.75112e-09
2.1828e-11
-2.33927e-11
-3.83294e-09
-3.32016e-09
2.79453e-09
-1.06149e-11
-8.35277e-10
-4.46269e-09
-1.43051e-09
3.48029e-10
-1.30496e-09
-4.89195e-12
1.5151e-10
-6.86032e-12
-7.06661e-11
2.04657e-10
-2.00638e-10
1.57333e-12
-7.56892e-11
5.1409e-10
-2.04917e-11
6.818e-11
-8.63167e-12
1.87101e-10
-3.45773e-10
-2.53228e-12
-3.18044e-13
-9.02867e-13
-8.43184e-13
-5.71207e-11
-1.36916e-10
-7.00529e-10
-2.0594e-15
-1.82447e-14
1.49763e-14
5.31472e-15
-1.56696e-14
1.63313e-14
-2.74763e-15
1.16056e-14
-4.55399e-14
-1.93698e-14
-1.33181e-14
4.89995e-14
-1.54412e-14
-6.68944e-15
4.91389e-15
-8.76263e-15
6.55882e-15
1.26818e-14
7.40298e-13
-1.4589e-14
-7.41235e-13
-7.41855e-13
-4.88622e-14
-8.2583e-12
-1.89685e-12
6.98395e-15
-7.28888e-14
-3.10584e-12
-3.24994e-12
-4.99714e-12
8.97714e-12
8.67424e-12
-4.2627e-12
-1.16238e-11
-8.21766e-12
-2.28392e-12
-2.94861e-12
-1.3849e-13
1.54845e-14
-2.14743e-12
-6.5542e-14
-1.11779e-12
-5.9807e-12
-3.60932e-15
5.00668e-14
-2.36335e-14
-3.12517e-14
4.15604e-14
-2.28478e-14
-3.21708e-14
-1.49991e-13
-8.65302e-14
-2.46077e-14
-8.91208e-15
-3.60701e-15
1.34132e-14
-8.7014e-14
1.69713e-13
-3.96669e-13
1.33511e-14
-4.83398e-16
-7.38544e-16
1.52083e-16
1.11935e-15
1.53754e-16
3.13572e-17
-3.55802e-15
-1.26807e-16
-4.51981e-17
2.76466e-17
7.88128e-17
1.15992e-17
2.3454e-16
-1.40818e-16
-3.36147e-17
1.71752e-15
3.71948e-100
-2.85816e-14
4.50598e-17
6.53035e-15
5.20329e-14
5.75215e-15
-5.79821e-15
-1.14578e-14
3.10694e-15
1.26542e-14
-4.05262e-16
-2.52102e-15
8.36613e-15
-3.24306e-15
1.69012e-14
-3.40461e-15
9.52012e-15
-9.20065e-16
1.53226e-15
-5.83513e-16
-1.46525e-15
2.99291e-16
2.13771e-15
-9.70288e-19
-2.78362e-17
-2.68065e-19
2.61001e-17
1.57931e-19
-1.25344e-18
-3.29118e-18
-4.92532e-17
-6.4301e-17
-5.76862e-19
1.13866e-18
-7.64793e-18
7.66036e-18
7.30685e-18
-3.21154e-16
2.1581e-18
-1.86458e-17
-1.29285e-16
1.62582e-16
-9.43899e-17
2.1088e-16
-2.04174e-17
4.21899e-17
-3.17943e-16
-2.07906e-16
-1.03486e-16
-2.48035e-17
-5.43702e-17
-7.07277e-17
-6.55307e-15
5.85549e-15
-1.97719e-15
1.62045e-15
2.02391e-14
-2.37816e-14
2.04386e-14
3.90648e-15
-2.36939e-15
3.40837e-15
5.06075e-15
7.73349e-18
-1.43164e-15
-3.44368e-14
-8.1658e-15
4.45007e-14
-4.77047e-15
-4.38366e-14
-2.08048e-13
2.12755e-13
-1.64933e-14
1.45073e-14
-2.666e-13
-1.52292e-14
2.15346e-13
1.88774e-12
-1.88458e-12
-3.55169e-15
-6.38521e-16
-7.73265e-12
-4.083e-13
-3.61855e-12
-1.42337e-11
1.16267e-14
5.09177e-15
-2.19578e-14
1.42669e-14
-4.05535e-15
7.67358e-15
3.11807e-14
-3.41016e-14
7.58108e-15
1.41511e-14
-6.99785e-13
3.3933e-13
-4.28745e-12
4.31167e-11
7.65565e-12
-4.19186e-11