/*--------------------------------*- C++ -*----------------------------------*\
| =========                 |                                                 |
| \\      /  F ield         | OpenFOAM: The Open Source CFD Toolbox           |
|  \\    /   O peration     | Version:  v2012                                 |
|   \\  /    A nd           | Website:  www.openfoam.com                      |
|    \\/     M anipulation  |                                                 |
\*---------------------------------------------------------------------------*/
FoamFile
{
    version     2.0;
    format      ascii;
    class       volScalarField;
    location    "0.35";
    object      alpha.water;
}
// * * * * * * * * * * * * * * * * * * * * * * * * * * * * * * * * * * * * * //

dimensions      [0 0 0 0 0 0 0];


internalField   nonuniform List<scalar> 
6576
(
1
1
1
1
1
1
1
1
1
1
1
1
1
1
1
1
1
1
1
1
1
1
1
1
1
1
1
1
1
1
1
1
1
1
1
1
1
1
1
1
1
1
1
0.685526
0.886938
0.986908
0.794528
0.684524
0.980926
0.986874
0.986908
0.82605
0.000792849
0.00079929
0.00127465
0.00120771
0.000792849
0.000799324
0.00127625
3.83562e-05
0.000223765
3.66791e-05
0.00042775
3.11401e-05
3.50043e-05
0.00106421
4.09291e-05
2.34152e-08
2.82734e-06
3.15941e-05
0.000532243
6.39055e-06
0.000135541
0.000163087
0.00036865
6.97217e-05
0.000311314
6.97217e-05
6.98578e-05
0.000296255
0.000852575
0.000489138
0.000226598
0.000462398
0.000486316
0.000869262
0.000226638
0.67796
0.993577
0.127321
0.241738
0.11945
0.99355
0.565146
0.126357
0.0192933
0.309224
0.0252032
0.0192933
0.422328
0.122512
0.450689
0.377633
0.377535
0.379021
0.450689
0.504696
0.416652
0.581583
0.581583
0.573208
0.581532
0.572759
0.572809
5.45181e-20
-1.29477e-116
1.20823e-20
-1.75996e-89
-1.85683e-90
4.74454e-21
0
0.216364
0.826685
0.958976
0.959805
0.887303
0.999936
0.999486
2.47394e-196
1.5725e-99
-1.47152e-112
-2.71293e-54
6.40643e-16
1.00081e-12
0
2.27984e-08
2.04638e-08
2.36991e-08
2.61656e-08
2.09794e-08
1.47528e-08
1.08834e-08
7.49804e-10
7.55597e-10
8.29725e-10
9.88316e-10
7.61625e-10
7.99571e-10
8.66347e-10
4.30608e-10
6.70335e-10
5.41072e-10
7.50431e-10
7.04597e-10
5.35248e-10
6.15575e-10
6.80719e-10
9.0688e-10
1.04569e-09
1.02427e-09
1.07276e-09
1.03869e-09
8.07359e-10
1.10454e-09
1.08312e-09
5.96e-10
5.25926e-10
5.59193e-10
9.03227e-10
4.37842e-10
4.96272e-10
6.78514e-10
6.14226e-10
4.69203e-10
4.60764e-10
9.28993e-10
7.56627e-10
9.13251e-10
5.62294e-10
9.65644e-10
9.8112e-10
8.84476e-11
1.96595e-11
7.12008e-11
8.80031e-11
3.39234e-11
4.89711e-11
7.31234e-11
1.21962e-10
4.93334e-11
1.50679e-11
1.85473e-11
6.45672e-12
1.02734e-11
1.49734e-11
6.34972e-12
9.84281e-12
1.98029e-12
8.52733e-12
1.98029e-12
1.98029e-12
4.95348e-12
1.65671e-11
7.46679e-12
2.87269e-12
4.00681e-13
1.90225e-12
2.29227e-12
3.55522e-12
3.78924e-13
4.00681e-13
4.87605e-15
1.39367e-14
6.8552e-15
5.82073e-15
3.41665e-16
1.47867e-15
3.86386e-15
6.6854e-16
6.83386e-16
1.9255e-15
2.1062e-14
5.90433e-16
5.8101e-16
4.38645e-15
2.54545e-15
4.79809e-14
2.54545e-15
1.74298e-14
2.54545e-15
1.23299e-12
2.81439e-13
6.00063e-12
6.1021e-12
1.79388e-11
5.64478e-12
1.24478e-11
2.57305e-11
4.47377e-12
2.56192e-10
1.52253e-10
3.37899e-10
1.73533e-10
1.40266e-10
2.50838e-10
1.82253e-10
3.84586e-10
4.88691e-10
7.88616e-10
4.66478e-10
3.43312e-10
6.6676e-10
3.43731e-10
3.91271e-10
6.01351e-10
7.02003e-10
4.22763e-10
6.66337e-10
4.11471e-10
5.95748e-10
4.10951e-10
4.94302e-10
2.73515e-08
1.0856e-08
1.96353e-07
3.01485e-08
2.43104e-08
1.00534e-08
2.82684e-08
0.647927
0.561926
0.653143
0.56186
0.56186
0.625263
0.582159
0.70544
0.642624
0.999746
0.999746
0.999746
0.999736
0.999739
0.990267
0.999545
0.999168
0.999355
0.998123
0.999714
0.998118
0.99936
0.999346
0.999488
0.998116
0.983026
0.999745
0.954718
0.998727
0.999368
0.999832
0.999914
0.999417
0.999834
0.999914
4.85671e-07
5.89766e-06
1.96315e-07
9.07856e-08
8.89311e-08
8.78712e-08
8.89311e-08
0.244744
0.0393867
0.000141984
0.179228
0.012611
0.000248747
0.000142336
7.90626e-05
8.81308e-05
7.87204e-07
3.06902e-06
1.13519e-06
8.80178e-07
7.93155e-07
2.31324e-06
6.79042e-07
0.0649308
0.0472149
0.0545248
0.0462622
0.0472904
0.035517
0.0460506
0.00932042
0.0615261
0.0534663
0.874704
0.567962
0.3047
0.352468
0.0106298
0.00944416
0.133836
0.696179
0.190329
0.485815
0.694368
0.519283
0.932033
0.567395
0.571119
0.620661
0.62061
0.620596
0.553694
0.620661
0.552021
0.583546
0.598192
0.59263
0.653676
0.561869
0.56186
0.706681
0.704953
0.706723
0.598453
0.230544
0.00201139
0.482735
0.0093026
0.488143
0.00470323
0.150741
0.0012635
0.00126251
0.00136963
0.00126251
0.0157583
0.00126249
0.00500879
0.000758958
0.000359527
0.000363123
0.00130391
0.000359501
0.00133059
0.000369503
0.000241199
0.00133044
1.18566e-05
1.18565e-05
1.18565e-05
1.18811e-05
1.22068e-05
1.18566e-05
1.18566e-05
0.000377036
0.00018496
0.000377034
9.00857e-05
0.000233455
0.000134257
7.18492e-05
0.000377034
0.000377034
0.00300546
0.04142
0.170608
0.000798337
4.98529e-05
4.93704e-05
4.99136e-05
0.981735
0.981724
0.981735
0.914821
0.979347
0.952313
0.981715
5.56473e-10
1.60005e-09
5.2959e-10
6.03279e-09
1.16888e-09
6.08919e-09
2.21741e-09
5.21749e-10
2.51608e-10
3.11198e-10
2.322e-10
9.14086e-10
2.99488e-10
2.7586e-10
1.52021e-09
5.36393e-09
1.17423e-09
2.42147e-09
1.77391e-08
2.80267e-08
2.72622e-09
2.6036e-07
1.58823e-07
5.39674e-08
2.30268e-07
1.08946e-07
4.93288e-08
1.01302e-07
4.34733e-08
1.51484e-07
2.81006e-07
1.64507e-06
2.69393e-06
1.30857e-07
1.28349e-07
5.77331e-07
1.28317e-06
0.0436416
0.0570277
0.057041
0.0438656
0.0436585
0.0569913
0.0570415
0.00207798
0.000707558
0.0235901
0.0570376
0.0350306
0.0211825
0.0570415
0.00254498
0.00230944
0.0125923
0.0251604
0.0147847
0.00324749
0.024902
0.0363079
0.0401078
0.038039
0.0126087
0.0359353
0.0230646
0.00603578
0.00790694
0.0251604
0.000329207
0.0210351
0.0422737
0.0565437
0.00222457
0.00339524
0.00134791
0.0006286
0.000731348
0.00128896
0.00149165
0.00537852
0.00183902
0.00473756
2.13162e-05
0.00043904
2.20409e-05
2.45815e-05
0.00490197
0.00395374
0.000279437
2.55307e-05
9.57086e-05
0.000643038
2.93476e-06
2.58202e-06
0.000515877
2.93476e-06
4.2195e-06
0.00103921
0.000536785
0.00150011
1.2956e-05
7.1153e-07
1.21657e-05
5.24762e-06
5.41871e-06
1.58352e-05
0.00150011
4.12853e-07
4.77245e-07
2.58174e-07
2.58174e-07
1.15924e-06
7.58281e-07
2.59275e-07
5.84088e-10
6.31414e-10
5.845e-10
2.18931e-09
5.87369e-10
2.51199e-09
1.26584e-09
5.02257e-10
3.89218e-10
4.37246e-10
1.06971e-10
1.0304e-09
1.02597e-10
6.15178e-10
1.11309e-10
5.45976e-10
2.30908e-10
2.30906e-10
2.12969e-10
1.78858e-11
1.64524e-11
1.1223e-10
8.81613e-11
3.61315e-11
3.76371e-11
9.21326e-11
3.51912e-11
3.60503e-11
4.43011e-11
3.51545e-11
3.51349e-10
3.70546e-10
3.4403e-10
7.03619e-10
1.0983e-09
3.26517e-10
9.60462e-10
5.54773e-10
4.96858e-10
2.6861e-10
5.58771e-10
2.83497e-10
9.59537e-10
5.39373e-10
4.19532e-10
7.87918e-10
4.28306e-10
5.39574e-10
8.37115e-10
2.20169e-09
2.06279e-09
2.47426e-09
1.2008e-08
2.67187e-09
1.10668e-09
3.0706e-09
4.73707e-06
0.000274809
9.94177e-06
0.000246443
0.000112577
1.84288e-05
4.60058e-05
5.89556e-05
0.000228701
0.000531741
6.07564e-12
1.0992e-05
2.75201e-07
3.37183e-07
1.64808e-05
5.16801e-05
5.44916e-09
3.72948e-08
8.88442e-10
1.68268e-08
4.80071e-09
5.22185e-09
8.55188e-10
1.38762e-09
1.36666e-09
3.68457e-09
3.64467e-09
3.68788e-09
1.33492e-09
1.56408e-09
2.5149e-07
2.59654e-07
2.51015e-07
2.50837e-07
4.37504e-07
2.52094e-07
8.12017e-07
3.05303e-05
3.05303e-05
3.04885e-05
1.64826e-05
8.53317e-05
0.00127937
0.000222059
0.981565
0.988841
0.985889
0.99324
0.988847
0.993236
0.991082
0.98912
0.994543
0.986005
0.88847
0.957364
0.9918
0.991553
0.975155
0.985769
0.888343
0.888345
0.888402
0.97583
0.905384
0.975806
0.934677
0.922526
0.934595
0.985657
0.999068
0.985086
0.99097
0.992742
0.990715
0.999067
0.999047
0.999056
0.975999
0.90083
0.997705
0.90083
0.998994
0.900993
0.961967
0.998691
0.998628
0.991176
0.991176
0.994299
0.999066
0.999806
0.998117
0.998113
0.99962
0.999807
0.366742
0.639251
0.866457
0.441174
0.690007
0.920767
0.913152
0.99981
0.998123
0.998598
0.999782
0.999808
0.999913
0.999913
0.999914
0.0751858
0.17075
0.137344
0.0105348
0.0112077
0.0117898
0.0517969
0.567182
0.567271
0.663307
0.37535
0.365429
0.567492
0.568413
0.670294
0.567428
0.567357
0.568698
0.567555
0.620661
0.571745
0.563509
0.0556158
0.376425
0.503322
0.508613
0.377845
0.387549
0.488785
0.535323
0.535805
0.535455
0.453195
0.52254
0.152475
0.408364
0.312861
0.326944
0.447692
0.535805
0.443661
0.22059
0.55682
0.559395
0.224991
0.319964
0.559393
0.559337
0.223339
0.485671
0.513151
0.513177
0.511973
0.513177
0.474913
0.374882
0.510556
0.513177
0.513177
0.145305
0.617738
0.617739
0.617738
0.617738
0.454168
0.617737
0.617737
0.208109
0.041554
0.559398
0.547686
0.300435
0.0446661
0.486917
0.0180173
0.0047327
0.00455607
0.0424729
0.0134403
0.00407084
0.00198551
0.00204268
0.00129889
0.00309254
0.00111368
0.0189074
0.00131626
0.00131118
0.00743039
0.00265623
0.00532869
0.0104281
0.0609626
0.00696497
0.0411658
0.53553
0.200297
0.754252
0.231361
0.198833
0.667589
0.515851
0.521127
0.27
0.233283
0.00792039
0.485938
0.286526
0.178378
0.00744933
0.0184487
0.00640522
0.00552153
0.00442775
0.00383565
0.00434923
0.0067276
0.0038345
0.0586662
0.0441407
0.113628
0.106378
0.113628
0.0716305
0.113628
0.0143974
0.0918702
0.000181781
0.000387085
0.000181781
0.000181782
0.000606635
0.000181878
0.000181784
9.12615e-10
9.35728e-10
8.43389e-10
9.49183e-10
9.85517e-10
9.87662e-10
8.91248e-10
4.44955e-10
3.56285e-10
5.72977e-10
3.90423e-10
2.89244e-10
2.82262e-10
5.77001e-10
1.10454e-09
1.07263e-09
8.57359e-10
1.07412e-09
8.50863e-10
1.20462e-08
1.2026e-08
4.17571e-08
3.41828e-08
1.86109e-08
1.21685e-08
6.62129e-08
2.77237e-08
5.65341e-09
5.19035e-08
5.61535e-09
5.53116e-09
1.00694e-08
6.58377e-09
1.48012e-05
0.000452797
3.41773e-05
0.000127499
1.45345e-05
1.34077e-05
3.47038e-05
0.0680163
0.115873
0.0737305
0.0924136
0.0684445
0.115349
0.115259
0.0411656
0.0113931
0.0351391
0.116084
0.0998301
0.0795729
0.0629437
0.0419383
0.0553479
0.0123059
0.0576534
0.0314545
0.0123979
0.0147554
0.0187316
0.0717922
0.0583585
0.0136365
0.00137275
0.0297781
0.0548448
0.0569754
0.0164494
0.0153839
0.0534187
0.0555757
0.0549142
0.0301675
0.0570415
0.0440617
0.0569248
1.12749e-07
5.14442e-06
1.13777e-07
4.52918e-06
7.86379e-08
7.75135e-08
1.33328e-05
0.000139494
2.41875e-06
0.000171981
2.79315e-05
4.26714e-05
5.76763e-05
0.000171774
1.36045e-06
2.70394e-06
8.02998e-07
1.65974e-06
2.56943e-06
2.70709e-06
3.81737e-07
2.91628e-07
6.20268e-07
4.60376e-06
3.16812e-10
3.16804e-10
3.16804e-10
3.16812e-10
3.16812e-10
3.16824e-10
3.16812e-10
3.38806e-10
1.26798e-08
3.34636e-08
3.34053e-10
2.65216e-07
3.38917e-10
2.65431e-07
1.63794e-07
2.65462e-07
6.2859e-09
1.02584e-08
1.02938e-07
3.3767e-09
5.31468e-09
4.11802e-09
4.35279e-09
9.39893e-09
2.18978e-08
7.56732e-09
1.47769e-10
2.00679e-10
1.43071e-10
8.73584e-11
1.20031e-10
3.66386e-10
0
1.58915e-09
8.99433e-10
2.46302e-09
1.75225e-09
2.26746e-09
1.84116e-09
1.2634e-09
3.21451e-10
7.80473e-10
5.48009e-13
5.25816e-14
4.12064e-12
5.242e-14
5.25816e-14
2.73388e-12
5.09423e-14
4.48702e-12
6.10974e-12
1.5682e-12
6.40238e-12
1.48687e-12
6.20268e-12
1.22118e-12
5.529e-11
1.60234e-10
1.32185e-10
2.40923e-11
3.60038e-11
7.57843e-12
1.11645e-10
2.22322e-10
1.56769e-10
1.39288e-11
1.39288e-11
5.0731e-12
6.1079e-11
2.55223e-08
6.84833e-08
6.38544e-11
6.1079e-11
6.15304e-11
6.1079e-11
2.17682e-09
9.70467e-11
7.00537e-07
1.20083e-06
2.16407e-06
2.39606e-06
3.57954e-07
6.83359e-08
5.2243e-07
6.7649e-08
6.76752e-08
8.47307e-11
7.38297e-10
9.73299e-11
7.14241e-13
4.6451e-11
7.91155e-11
1.05581e-10
5.15822e-14
5.99865e-13
5.74211e-14
6.41914e-14
7.15346e-14
3.45176e-13
3.25305e-13
2.32908e-14
2.72454e-13
6.2757e-13
2.32908e-14
2.32908e-14
4.0786e-13
2.21517e-12
2.73137e-12
2.32908e-14
8.20461e-11
1.88358e-11
4.15799e-10
1.81874e-11
4.00712e-11
1.82947e-10
7.68568e-11
0.820524
0.896515
0.896515
0.896496
0.686515
0.834003
0.686815
0.70336
0.795519
0.954033
0.717889
0.724553
0.963572
0.964175
0.958404
0.964175
0.674414
0.674427
0.757064
0.674443
0.905695
0.674623
0.817818
0.810219
0.810104
0.810264
0.928602
0.871266
0.934595
0.934561
0.841483
0.810104
0.928484
0.90559
0.975908
0.975841
0.900992
0.993515
0.992847
0.00876139
0.0228314
0.00244462
0.00950547
0.00174224
0.0276155
0.0471189
0.372418
0.396134
0.322202
0.616022
0.37013
0.421822
0.596953
0.390318
0.0889897
0.617732
0.617738
0.470457
0.372331
0.61744
0.617529
0.61752
0.617278
0.617529
0.617391
0.567923
0.617673
0.617612
0.606791
0.598303
0.456257
0.455679
0.455679
0.538074
0.458882
0.526322
0.495354
0.542758
0.542602
0.426508
0.422756
0.532204
0.00137377
0.00291507
0.00130606
0.00111831
0.00608731
0.0115092
0.00321616
0.00417027
0.00416064
0.00416064
0.00417972
0.0131297
0.010304
0.00417027
0.00156067
0.0015627
0.00245617
0.0179003
0.0114097
0.00227192
0.00489046
0.0151912
0.00624118
0.00658177
0.0195907
0.01959
0.0193892
0.01959
0.154696
0.00423898
0.865651
0.454057
0.873573
0.00501006
0.287156
0.0780361
0.619383
0.943507
0.943462
0.943507
0.874998
0.914549
8.53466e-05
0.000102506
0.000284341
0.00147433
8.14315e-05
8.14169e-05
8.37119e-05
9.03232e-05
0.000139446
0.000527559
8.54628e-05
0.000748076
0.000852592
9.55525e-05
0.00123621
0.000635422
0.00132418
0.000982473
0.000210667
0.000164526
0.000399765
2.29003e-09
2.29003e-09
2.29003e-09
5.3061e-09
2.29003e-09
1.87091e-08
1.07554e-08
8.23171e-08
1.20101e-07
8.50016e-08
7.10025e-08
9.80013e-08
5.70439e-07
7.37773e-08
2.95016e-08
6.91104e-09
4.48319e-09
3.96832e-09
4.48319e-09
3.55736e-09
3.96832e-09
0.000105879
7.10025e-05
6.63409e-05
7.32903e-05
7.35671e-05
0.000150192
0.000103303
0.0422531
0.030883
0.0357052
0.0328214
0.10103
0.072522
0.101314
0.00134703
0.0017587
0.00194532
0.000740607
0.000769749
0.00322982
0.018911
0.00130617
0.00205745
0.0194735
0.0195697
0.0194735
0.0511625
0.0305805
0.0339489
0.0195289
0.0200599
0.0219957
0.0227291
0.0195773
0.0505694
0.0432714
0.0499053
0.0480343
0.0486153
0.0478825
0.0863764
0.0295526
0.0535965
0.103194
0.102022
0.0932253
0.116165
0.11575
0.116297
0.0933245
0.116376
0.0295526
0.0295526
0.0859365
0.116354
0.0932253
0.116431
0.0719732
0.0710883
0.0714885
4.10743e-07
4.36583e-08
8.74194e-07
5.40374e-08
8.13565e-08
2.27064e-07
2.22418e-07
9.49076e-08
4.34733e-08
4.51679e-08
8.21768e-08
3.62898e-07
4.49338e-08
3.73014e-08
8.4247e-08
3.85246e-08
3.77228e-08
3.73014e-08
2.14046e-07
1.76875e-07
4.73372e-08
5.63096e-08
1.83287e-07
1.82715e-07
1.09192e-07
2.42137e-07
2.19674e-07
7.29539e-09
2.57859e-07
3.1951e-10
2.00343e-07
2.60929e-07
1.82958e-07
5.22243e-09
5.01745e-10
3.07411e-09
4.11935e-09
3.86731e-10
1.10257e-08
1.10101e-08
3.88361e-08
1.06476e-08
1.02702e-08
1.47082e-08
4.57682e-09
5.70204e-10
3.76917e-09
5.59e-09
3.20814e-09
1.29058e-10
1.41495e-09
6.32587e-10
2.28104e-08
1.24658e-08
1.88935e-09
2.29348e-08
1.31372e-08
1.83926e-09
8.86281e-09
3.37377e-09
7.46967e-09
6.25154e-09
2.119e-10
1.53776e-10
2.37639e-10
4.03621e-10
1.77501e-10
6.13045e-10
7.67469e-10
1.89038e-09
1.46438e-10
5.79876e-09
-6.35468e-91
2.87503e-17
1.38368e-34
0
1.58879e-21
3.99157e-15
-3.84857e-32
-4.58867e-95
-8.38858e-95
0
-2.2108e-52
-2.85115e-51
1.38712e-18
0
-1.09311e-94
-3.65426e-49
-8.84696e-44
-1.72202e-45
-1.68588e-45
-8.05481e-46
4.48981e-22
1.0252e-22
9.57335e-23
3.04256e-23
4.46544e-22
1.17849e-22
1.17916e-22
1.8134e-22
3.01305e-22
8.18128e-23
1.15732e-22
6.67261e-19
1.5164e-19
8.22339e-19
4.31188e-19
8.12247e-19
9.19181e-19
4.90606e-19
4.57052e-18
6.28255e-18
5.9847e-18
1.17935e-19
1.37952e-19
4.01138e-18
1.42676e-19
3.60691e-07
7.62838e-07
3.61071e-07
3.60691e-07
3.60056e-07
3.60821e-07
8.74488e-07
4.71599e-05
3.64881e-07
8.56291e-06
3.63174e-07
3.64881e-07
3.64889e-07
3.7714e-07
1.08664e-05
1.21278e-05
6.59888e-05
4.71485e-05
8.76671e-05
2.57596e-05
1.84421e-05
9.33537e-06
9.33537e-06
1.42307e-05
4.86864e-05
2.8096e-05
7.18545e-05
7.18462e-05
6.67737e-05
3.90916e-05
3.57686e-05
1.22266e-07
9.07747e-06
2.15005e-05
1.57378e-07
1.20863e-07
5.54388e-06
0.000185316
0.000115353
8.22076e-05
0.000166901
0.000156435
0.000185316
0.000153152
8.21612e-07
1.85575e-09
7.73602e-10
7.67359e-10
7.97852e-10
4.69919e-10
2.89978e-09
4.5004e-10
1.62315e-07
4.29571e-12
2.65739e-11
2.08933e-10
3.15752e-11
5.10517e-13
1.96488e-10
3.20877e-11
2.15148e-11
6.43839e-11
7.19655e-11
7.57912e-12
7.06134e-12
1.13401e-11
3.70993e-12
3.72907e-11
3.80394e-12
2.39088e-09
1.65695e-10
1.02712e-10
1.14519e-10
1.01936e-09
3.28057e-11
1.14998e-10
2.34302e-09
1.92991e-05
9.39937e-06
5.9168e-10
1.71637e-06
3.7767e-06
6.74087e-10
1.59746e-07
1.59242e-07
1.59746e-07
6.00229e-07
1.64494e-06
3.6519e-06
2.04103e-06
2.78162e-06
1.18004e-06
4.09701e-06
1.20883e-06
1.54181e-06
2.21983e-06
1.58794e-06
1.23687e-05
1.20945e-05
1.23313e-05
2.16286e-05
1.72888e-05
1.24893e-05
4.78344e-05
0.839616
0.836695
0.938048
0.91045
0.892948
0.926293
0.987702
0.928877
0.914633
0.914649
0.940459
0.941093
0.964784
0.914909
0.834181
0.834859
0.835877
0.882014
0.881928
0.968765
0.674417
0.674411
0.896376
0.687694
0.866615
0.735163
0.987703
0.885389
0.986873
0.687306
0.925651
0.964175
0.674794
0.00168783
0.00209295
0.00209344
0.00125376
0.00111047
0.00170686
0.00145712
0.600738
0.305239
0.513051
0.326011
0.301266
0.0692357
0.600748
0.599292
0.600491
0.508394
0.606693
0.555513
0.612067
0.557113
0.59209
0.460396
0.604156
0.567327
0.56859
0.22892
0.00430609
0.00431877
0.00735551
0.00946141
0.00431877
0.00431225
0.0142182
0.0030539
0.00514634
0.0110183
0.0030594
0.00305566
0.00305396
0.00793076
0.00666103
0.0124382
0.00691287
0.0120727
0.0186986
0.0117194
0.00646857
0.00108389
0.00513723
0.00103461
0.016308
0.0191121
0.00573737
0.000889153
0.0154242
0.000204554
0.000185343
0.00385484
0.0234545
0.000185799
0.00362764
0.0532462
0.0146116
0.00276291
0.00576777
0.00606782
0.00276291
0.00276291
0.0137951
0.0129928
0.0102409
0.0083085
0.00453324
0.00173999
1.09781e-07
0.000533761
9.80538e-05
1.01924e-07
1.00559e-07
8.22425e-08
8.39217e-08
4.22895e-05
0.000118109
9.79378e-05
0.000157872
0.000177471
4.9238e-05
9.55898e-05
9.80896e-05
1.08957e-05
9.38688e-06
3.41933e-05
0.000173469
7.92104e-06
4.17731e-05
2.41321e-06
4.50019e-07
1.53243e-06
6.36574e-07
6.76451e-06
6.66541e-07
6.68463e-07
0.328324
0.189796
0.346007
0.138792
0.137831
0.142303
0.138012
0.469712
0.335718
0.33933
0.470276
0.470276
0.470276
0.469965
0.477177
0.562869
0.356222
0.169858
0.220553
0.289061
0.213843
0.33245
0.470276
0.470276
0.563696
0.448849
0.282447
0.0398036
0.059171
0.123616
0.130027
0.470276
0.250375
0.331721
0.0511682
0.0297349
0.0501999
0.000658327
0.000765668
0.000621857
0.0230587
0.00914944
0.000527748
0.000477168
0.00015815
0.000155167
3.0657e-08
7.88299e-05
9.45394e-05
2.47393e-06
1.05308e-05
2.63969e-06
9.11004e-06
2.66764e-06
5.99947e-05
5.80096e-06
1.0305e-08
1.58491e-08
2.99687e-09
1.59344e-08
4.72171e-09
3.01652e-09
2.99687e-09
4.22085e-08
8.64382e-08
8.73617e-09
6.62363e-09
1.37518e-08
2.89711e-08
8.70553e-08
1.0787e-10
1.07817e-10
1.29546e-10
1.07944e-10
1.07817e-10
7.06486e-10
1.07944e-10
8.37722e-17
8.37722e-17
8.37722e-17
7.03972e-16
1.28637e-16
1.14238e-15
1.78309e-15
5.55773e-22
4.51328e-22
2.68809e-22
8.02611e-19
9.89329e-19
2.2458e-18
2.45932e-18
2.43178e-18
3.55253e-18
4.78926e-18
9.86178e-21
3.23282e-19
1.15617e-22
-1.09076e-65
-2.22453e-66
0
1.51924e-43
1.18654e-45
8.71408e-37
3.03927e-27
1.47833e-20
-4.82954e-47
8.34024e-30
2.64903e-51
0
1.22685e-70
1.51514e-28
0
2.21897e-62
4.7924e-73
0
5.47081e-16
0.000409729
0.000496162
0.000488181
0.000163798
0.000470207
0.000295212
0.000195784
0.214979
0.787056
0.999934
0.999934
0.999936
0.999934
0.99986
3.04671e-11
9.74863e-05
1.36066e-06
9.72695e-05
0.000287476
2.86636e-06
0.0742812
0.00639644
0.021823
0.000197783
0.000104876
0.000104824
0.152893
0.0014875
1.66471e-21
3.56955e-17
1.27983e-16
3.10943e-21
3.32007e-17
1.66471e-21
1.59719e-21
2.11913e-15
2.47274e-13
6.10977e-14
5.23618e-17
5.22285e-17
5.22951e-17
1.45128e-15
0.000103091
0.0001031
7.57104e-05
8.97045e-05
0.000103064
6.12762e-05
6.13908e-05
4.00365e-07
1.64215e-07
7.0886e-07
1.22862e-05
2.59519e-06
2.39713e-08
1.9436e-07
3.39773e-06
2.47339e-08
1.32931e-05
3.5268e-06
3.57557e-06
0.000103084
3.45882e-05
4.86053e-07
4.7665e-05
1.75921e-06
5.27902e-09
4.89389e-08
4.75002e-07
4.57522e-09
8.38725e-08
4.5401e-09
1.2493e-12
1.25574e-12
4.72769e-12
1.34053e-12
1.12655e-12
3.48612e-12
1.34053e-12
9.77212e-16
1.15007e-15
1.15007e-15
5.90306e-16
5.90306e-16
1.11077e-15
7.65186e-15
0.000593676
0.000381762
0.000701573
0.000507696
0.000303747
0.000170317
3.38442e-05
0.268558
0.246219
0.246219
0.459352
0.246384
0.361166
0.473874
0.0668454
0.175212
0.0678323
0.662343
0.222846
1.66275e-06
0.000870259
0.169066
0.701987
0.30786
0.45898
0.823493
0.769392
0.823426
0.823406
0.477718
0.824579
0.809882
0.810569
0.879741
0.879903
0.880256
0.834639
0.809336
0.824164
0.808948
0.939404
0.875037
0.874726
0.880655
0.939242
0.880615
0.865609
0.00013713
0.000138396
7.88834e-05
7.68921e-05
0.00136011
0.000104067
3.73789e-07
0.875542
0.939684
0.892925
0.914665
0.95775
0.965126
0.0040351
0.0187111
0.130009
0.000290889
0.00304861
0.00740841
0.011877
0.00227623
0.0789987
0.253603
0.275816
0.362417
0.221029
0.0650182
0.00334861
0.00241601
0.00569082
0.0140512
0.0136743
0.00368044
0.0153452
0.00182207
0.00184908
0.0494648
0.004805
0.0122328
0.00182087
0.00182207
0.023847
0.00312773
0.00782601
0.0149447
0.0213177
0.00305566
0.00389566
0.837411
0.837411
0.837411
0.837401
0.780387
0.834615
0.445026
0.507008
0.825283
0.798337
0.825283
0.82528
0.825283
0.000111066
7.67227e-05
4.23335e-05
7.83116e-05
7.3288e-05
4.22956e-05
4.27957e-05
4.0628e-05
3.91691e-05
5.98815e-05
2.13418e-05
8.2213e-06
4.13258e-05
2.135e-05
0.0658926
0.0463246
0.0655358
0.0463246
0.0854686
0.224687
0.156178
0.841607
0.0464633
0.452479
0.840322
0.841915
0.125748
0.726976
0.500884
0.499668
0.500153
0.718368
0.718634
0.601319
0.716868
0.499721
0.565196
0.565076
0.0485434
0.0257334
0.0008008
0.0456461
0.0221252
0.0223357
0.0213256
3.93658e-06
4.53091e-06
1.57765e-05
7.14005e-06
3.95497e-06
6.49892e-06
5.97865e-05
0.000110059
0.000181203
4.96406e-05
0.000174127
4.76162e-05
0.000181492
0.000181492
9.58862e-05
4.56218e-06
3.99687e-06
6.11673e-05
5.18891e-05
1.04204e-05
3.9732e-06
3.02438e-10
2.20485e-10
2.02717e-10
3.69129e-10
3.69314e-10
6.55888e-10
2.49512e-09
1.0817e-10
1.0818e-10
1.0817e-10
1.08323e-10
1.08662e-10
1.09726e-10
1.09726e-10
2.47494e-08
1.27789e-10
9.70467e-11
6.70105e-11
6.40707e-11
2.94406e-06
1.19009e-06
8.86826e-07
5.64977e-06
1.98234e-06
3.93778e-07
2.48097e-07
0.659005
0.661757
0.997828
0.856178
0.7831
0.163657
0.921882
9.9737e-05
0.000260904
0.0002991
1.96511e-11
8.58631e-05
0.000198246
9.92741e-05
2.14055e-08
1.37567e-13
6.56722e-09
7.39834e-14
1.37567e-13
1.24445e-09
1.02508e-10
1.57322e-21
0
-3.88806e-41
1.75498e-19
-2.28242e-131
5.18108e-25
-7.46679e-62
1.21678e-19
5.09846e-21
1.15294e-24
6.8196e-20
-7.93194e-138
0
2.49027e-05
3.98845e-21
-1.75172e-44
4.86703e-06
2.52197e-20
6.50858e-09
7.53131e-05
3.78647e-05
7.01451e-05
5.954e-06
7.52824e-05
5.99378e-06
7.53131e-05
1.38672e-06
1.17274e-07
5.30634e-06
2.94257e-07
2.93646e-07
9.12773e-07
2.99572e-07
1.98827e-14
1.91914e-14
8.7878e-13
7.4396e-15
5.14565e-15
2.15074e-14
5.7103e-14
3.55047e-18
3.61643e-18
3.63078e-18
3.55047e-18
5.20376e-16
3.741e-18
3.79004e-18
1.70576e-15
2.86152e-18
5.31489e-17
6.69437e-18
2.63136e-18
2.62931e-18
3.86479e-17
9.65562e-12
7.3774e-10
1.2403e-09
1.14814e-09
1.06995e-09
1.66105e-09
1.66532e-11
2.0475e-09
1.65943e-11
0.000410685
7.27237e-07
0.000801682
0.000615079
0.000624634
0.000622863
0.000801624
0.141223
0.140297
0.284135
0.149074
0.312468
0.00039485
0.312431
0.154654
0.19035
0.146013
0.29449
0.289054
0.289054
0.289095
0.312467
0.297753
0.312468
0.358271
0.356746
0.355721
0.192366
0.359767
0.295397
0.474845
0.246429
0.473086
0.103409
0.333854
0.112582
0.475619
0.476977
0.474692
0.474851
0.475498
0.82356
0.823796
2.47317e-05
2.38558e-05
2.4734e-05
1.62073e-06
1.64091e-06
5.81864e-06
3.27671e-06
3.36443e-08
9.43848e-08
7.81598e-08
2.44972e-10
2.89393e-08
2.45492e-10
2.47931e-10
0.096703
0.0524278
0.0418693
0.0137383
0.0106974
0.00777705
0.00636319
0.00636319
0.00636319
0.00642269
0.00638509
0.0401073
0.030435
0.0454183
0.030493
0.0606812
0.0606812
0.0606839
0.0606549
0.0290812
0.0109704
0.00827892
0.00649987
0.0038345
0.0346938
0.0213635
0.00627756
0.00627955
0.00761156
0.0062745
0.0133941
0.00718789
0.00646415
0.00752419
0.0199752
0.0175907
0.0062745
0.0112732
0.0141911
0.0142186
0.00889559
0.0141712
0.0141911
0.0141281
0.00633406
0.837401
0.686952
0.207546
0.93503
0.935026
0.93503
0.93501
0.935012
0.935026
0.935026
0.856615
0.856615
0.854297
0.696958
0.816049
0.680089
0.948207
0.948207
0.948207
0.948205
0.948179
0.914968
0.627236
0.911786
0.935025
0.780936
0.911237
0.929088
0.929109
0.513996
0.857057
0.929005
0.929111
0.911477
0.929215
0.929285
0.245485
0.245488
0.245485
0.245485
0.245485
0.191484
0.0407271
0.00011047
7.99036e-05
7.94567e-05
0.000118471
8.7557e-05
0.000118705
0.000118705
4.20242e-05
5.59613e-06
1.81615e-06
0.000103218
5.91424e-05
3.11727e-05
3.65834e-05
0.000171346
3.18931e-05
5.20404e-05
3.18931e-05
3.2081e-05
3.54162e-05
5.76749e-05
0.000356423
1.48335e-07
0.000836217
0.000591187
3.87112e-06
0.0026532
5.45314e-06
0.00754151
0.00051649
0.00283911
0.0385538
3.38364e-05
3.3517e-05
0.0149267
0.000114997
4.80998e-07
1.67425e-05
1.80427e-05
3.72088e-05
6.10717e-05
1.70982e-05
3.20766e-08
6.99862e-09
6.73504e-09
3.53337e-06
1.30438e-05
6.99862e-09
7.19449e-09
6.32275e-07
8.02919e-08
8.07236e-08
8.11226e-07
3.00776e-06
3.67553e-05
8.29117e-06
3.6307e-07
2.73951e-06
7.60487e-08
1.72137e-10
5.3727e-06
3.22924e-13
4.66032e-08
4.48808e-11
6.54281e-07
3.39356e-06
4.59233e-06
1.98111e-06
3.17646e-07
2.1821e-06
1.97096e-06
1.68519e-06
7.53035e-05
7.53131e-05
7.5325e-05
4.87735e-07
1.95175e-06
4.86516e-07
5.96599e-07
4.91959e-07
9.56583e-08
7.09724e-07
5.89693e-06
1.8899e-06
2.89878e-05
7.35898e-09
2.37591e-11
7.62905e-08
1.18804e-11
9.4396e-08
4.37045e-07
1.78291e-11
9.32918e-12
2.68713e-11
6.32524e-18
1.08146e-16
2.36232e-15
3.95804e-12
5.20087e-15
1.31788e-13
1.30976e-11
5.34796e-15
8.15084e-15
8.49534e-14
6.19027e-15
2.54777e-12
6.17276e-15
2.52982e-06
6.48876e-07
6.27783e-07
0.000562927
0.000292734
0.000410443
0.000773922
0.000771834
0.00038091
0.000768855
2.95833e-05
0.00020038
3.30927e-05
0.000420382
0.281171
0.290218
0.289904
0.290218
0.214461
0.258729
0.0812298
0.296988
0.296997
0.297096
0.296997
0.258547
0.144128
0.297263
0.257207
0.296997
0.0340761
0.297771
0.297771
0.297771
0.297771
0.237113
0.29766
0.312431
0.289105
0.31234
2.24494e-09
7.6834e-10
4.7821e-09
2.31679e-10
3.87027e-10
2.31679e-10
2.295e-10
6.34377e-10
1.37e-09
1.72275e-09
2.87938e-09
2.99638e-10
4.8559e-08
2.99387e-10
3.71591e-09
2.74472e-09
2.74472e-09
1.36561e-08
9.72945e-08
2.19855e-08
5.76569e-09
1.05635e-07
9.93463e-08
2.42584e-06
4.23723e-06
6.44813e-07
1.10819e-06
1.01094e-05
1.56839e-05
1.56828e-05
1.57233e-05
5.31334e-05
2.61607e-05
9.01534e-05
6.03844e-05
2.84796e-05
5.39514e-05
2.84947e-05
2.8462e-05
2.938e-05
6.69537e-05
2.8462e-05
0.000459576
0.000455452
0.000521683
0.00140873
0.000454238
0.000455395
0.000561595
0.00011523
0.000143988
0.000403467
0.00133044
0.0013281
0.000502488
0.000502488
0.000451968
0.00045338
0.000482223
0.000452342
0.000451701
0.00184785
0.00397719
0.0232217
0.00398491
0.00398549
0.0265146
0.00866829
0.000596664
0.000656033
0.000597023
0.00130279
0.000451905
0.000475399
0.00261296
0.948205
0.921595
0.948155
0.949574
0.949572
0.949572
0.949297
0.879761
0.949574
0.94952
0.932722
0.932723
0.932723
0.932723
0.625739
0.835129
0.950062
0.950062
0.950062
0.950056
0.950034
0.949868
0.73328
0.901092
0.949574
0.600455
0.437843
0.435458
0.56483
0.654769
0.948748
0.488044
0.847918
0.932842
0.932837
0.932837
0.932839
0.944304
0.965696
0.975657
0.918001
0.91807
0.91819
0.965346
0.918362
0.934729
0.929935
0.932839
0.963248
0.959809
0.929371
0.929719
0.918001
0.0230726
0.0224658
0.0283784
0.522926
0.0522109
0.121079
0.0413824
0.0161962
0.0161962
0.0161961
0.0161961
0.0161961
0.0161961
0.0161961
0.0161988
0.0161961
4.88759e-06
2.97023e-06
1.02714e-06
1.01146e-06
7.10471e-07
1.02841e-06
2.50734e-06
4.90946e-06
1.18205e-05
3.09268e-06
4.224e-06
2.00137e-05
1.37001e-06
5.82721e-06
4.44403e-08
3.55546e-13
9.22882e-08
8.21907e-13
2.49919e-08
8.04955e-10
4.03728e-13
3.27493e-11
1.56204e-12
1.5621e-12
6.92211e-18
8.14284e-19
8.14299e-19
5.97079e-18
1.29815e-18
1.29815e-18
6.92196e-18
1.67461e-17
2.12488e-17
2.12826e-17
1.53948e-18
1.66346e-17
8.8769e-18
5.03218e-22
5.03218e-22
7.99227e-18
6.32524e-18
7.75177e-18
7.50192e-18
5.18834e-22
5.11629e-22
5.18834e-22
8.51091e-21
1.21916e-21
5.18834e-22
6.38186e-22
5.07424e-22
6.41358e-22
5.11629e-22
6.70377e-13
1.31786e-14
1.82745e-15
7.15385e-14
1.82337e-15
5.0023e-13
1.57996e-11
1.39392e-11
2.40492e-10
1.89774e-11
8.63206e-11
1.58046e-09
2.94221e-08
0.00200853
0.00200853
0.00171988
0.0018903
0.00188945
0.00192022
0.00200769
0.0958968
0.0958383
0.0958968
0.0958383
0.0676311
0.0959716
0.155918
0.155664
0.158413
0.000313097
0.046997
0.131628
0.0191778
0.0472673
0.182342
0.290218
0.290218
5.68088e-10
3.80667e-06
6.09429e-07
3.84451e-10
3.2404e-10
2.78306e-07
1.38182e-06
3.03087e-06
3.15394e-06
5.78771e-05
2.96988e-05
7.16009e-06
1.45931e-05
2.27154e-05
4.09334e-09
2.87469e-06
4.20968e-09
4.18801e-06
6.41494e-06
1.93493e-05
4.5927e-05
6.38496e-06
2.60444e-06
1.08573e-07
3.60948e-09
3.62436e-06
9.54097e-07
1.21512e-07
5.72264e-09
3.13192e-09
3.12938e-09
9.75145e-10
3.23438e-10
6.02034e-08
1.02097e-08
3.34659e-13
3.7922e-13
7.3679e-13
4.86156e-17
3.80598e-16
6.18105e-14
3.07014e-14
2.05625e-12
3.1758e-12
2.22963e-13
4.72404e-13
1.31309e-12
1.01099e-12
2.22963e-13
4.60139e-14
1.11487e-13
1.4494e-14
1.38917e-14
5.01293e-14
1.83658e-13
3.36509e-14
2.32726e-11
3.96882e-12
4.9072e-12
7.04938e-12
2.21519e-12
2.38331e-12
4.46892e-12
4.15687e-12
8.60321e-12
7.66782e-14
9.25541e-14
7.67025e-14
1.39844e-12
1.57872e-12
1.39844e-12
2.37989e-09
5.40188e-12
1.3977e-12
1.52357e-12
1.85594e-12
1.65947e-10
1.2216e-10
1.14153e-10
4.76029e-12