/*--------------------------------*- C++ -*----------------------------------*\
| =========                 |                                                 |
| \\      /  F ield         | OpenFOAM: The Open Source CFD Toolbox           |
|  \\    /   O peration     | Version:  v2012                                 |
|   \\  /    A nd           | Website:  www.openfoam.com                      |
|    \\/     M anipulation  |                                                 |
\*---------------------------------------------------------------------------*/
FoamFile
{
    version     2.0;
    format      ascii;
    class       surfaceScalarField;
    location    "0.35";
    object      phi;
}
// * * * * * * * * * * * * * * * * * * * * * * * * * * * * * * * * * * * * * //

dimensions      [0 3 -1 0 0 0 0];
oriented        oriented;


internalField   nonuniform List<scalar> 
13152
(
1.08749e-06
2.0378e-05
-1.81964e-06
-1.96459e-05
1.88193e-05
-1.70323e-05
-6.99489e-07
-3.44645e-06
4.26437e-05
-3.46338e-05
3.54267e-05
-2.61253e-06
2.12044e-05
-7.54841e-05
2.8538e-05
-2.43659e-05
6.05183e-05
-1.6071e-05
-2.95462e-05
-2.84957e-05
7.4113e-05
3.83052e-07
-1.6728e-05
2.7396e-07
-2.99488e-05
7.85576e-07
7.82895e-06
5.14717e-06
-2.97042e-05
7.78416e-06
3.18755e-07
-5.09921e-06
-1.56124e-05
-2.99008e-05
-8.66021e-06
-1.46552e-05
-5.13898e-06
2.84544e-05
-8.78852e-08
-8.66171e-06
8.93842e-08
-1.41677e-05
-5.7536e-07
5.68326e-06
-3.05627e-05
1.62177e-05
-2.92936e-05
2.98379e-05
2.93826e-05
-4.8634e-07
3.20075e-08
-1.53256e-05
-2.99419e-05
7.31034e-08
-7.49717e-05
3.29522e-07
1.59775e-05
3.02518e-05
-8.44645e-08
7.46838e-05
3.57228e-05
1.26511e-05
2.54578e-05
-7.38317e-05
4.36709e-07
-8.10773e-07
3.60969e-05
1.23883e-05
2.81098e-07
-1.86907e-05
7.37228e-05
7.79245e-05
2.9127e-05
-7.56996e-07
-2.93913e-05
1.02131e-06
-1.64174e-05
-2.68331e-05
7.23775e-05
1.56524e-07
-1.73309e-05
-8.0914e-06
8.00994e-06
2.37989e-07
5.3203e-06
-3.07426e-05
-4.96773e-06
-1.38555e-05
-2.90387e-05
-1.37752e-05
1.57745e-07
2.92049e-05
3.2396e-07
6.57149e-05
1.66611e-06
-2.23735e-05
-4.50075e-05
-2.88045e-05
3.69362e-06
9.08257e-05
-2.19563e-05
-5.18208e-06
-5.33837e-05
-2.63592e-05
8.34365e-05
-4.95541e-06
-7.08018e-05
5.49841e-06
-7.97011e-06
-1.94846e-05
3.38881e-06
-3.07248e-06
-1.2235e-05
-1.07354e-05
-2.51605e-05
-9.29697e-06
5.73475e-05
-1.6658e-05
-3.13926e-05
8.72171e-05
-3.16824e-05
-6.48317e-05
-4.59315e-05
-8.61898e-05
2.52865e-05
1.67763e-05
-7.37452e-05
1.93717e-05
-1.07431e-05
-6.32109e-05
3.66511e-05
-0.000132624
-5.48966e-06
-9.59353e-06
-8.3534e-07
1.59185e-05
2.34026e-06
-1.22507e-05
4.42082e-06
-1.2237e-05
4.98368e-06
3.18297e-05
2.08956e-05
-6.49623e-05
1.41823e-05
2.26311e-05
-1.52165e-05
2.85634e-05
-6.57164e-06
1.10919e-05
-9.52936e-08
-1.01535e-05
-8.4305e-07
-1.15381e-05
-3.67991e-06
2.63099e-05
-1.49199e-07
-1.14842e-05
-1.62013e-05
-1.52531e-05
2.77745e-05
1.77858e-06
-2.81334e-05
-2.08594e-05
5.4571e-06
-3.0565e-05
6.93342e-06
9.97259e-07
1.10854e-05
-1.90161e-05
7.03597e-06
1.5317e-05
-1.54195e-05
7.41156e-06
6.2174e-07
-2.74388e-05
1.50242e-05
2.77316e-05
2.74767e-05
-4.383e-05
-1.27421e-06
3.61625e-05
1.43719e-05
-6.10114e-06
-6.0077e-06
6.26172e-06
5.84713e-06
9.90572e-06
4.83389e-06
-2.08407e-05
1.98681e-05
-1.597e-05
-7.92764e-06
-1.46278e-05
2.88171e-05
-1.59739e-05
1.38934e-05
1.43531e-05
-2.54931e-05
1.95935e-05
-2.34491e-05
-1.14916e-05
-2.24915e-06
3.71899e-05
2.34728e-06
-1.83873e-05
-7.40906e-06
-1.21523e-05
3.00794e-06
2.08353e-05
5.40215e-06
-3.83898e-05
1.27669e-05
1.10764e-05
2.68241e-05
-3.98092e-05
3.73418e-05
-2.07356e-05
-3.01894e-05
-1.91964e-05
7.01214e-05
1.95487e-06
-1.18706e-05
-1.08199e-05
-3.92732e-05
1.10387e-05
1.05434e-05
2.93513e-05
-5.17653e-05
2.09517e-05
-2.12282e-05
3.21343e-05
-5.04558e-05
4.22892e-05
1.64612e-05
1.76948e-08
-1.7427e-05
9.48126e-07
-2.807e-05
-9.27309e-06
5.38043e-05
1.89597e-06
-2.99483e-05
-1.32656e-05
-5.63964e-05
6.03889e-05
-6.08799e-05
3.01873e-05
-6.32649e-05
8.76454e-06
-0.000154093
2.22381e-05
1.67522e-05
4.30346e-05
-8.20249e-05
-2.79589e-06
1.04439e-05
1.459e-05
3.33872e-06
1.06176e-05
1.59309e-05
3.75476e-05
-3.11994e-06
2.23896e-05
2.20877e-05
-8.25385e-05
8.34001e-05
2.18296e-06
-3.0445e-06
0.000124679
7.27391e-05
0.000114391
1.43824e-05
0.000193696
6.94761e-06
2.61918e-05
3.95997e-05
4.04342e-05
8.0904e-05
-2.68024e-05
8.16189e-05
1.57238e-06
2.74408e-05
-1.96016e-07
-2.17873e-05
-5.4575e-06
-2.62754e-05
-2.78296e-05
8.15458e-05
-9.08656e-07
-2.55628e-05
-2.65396e-05
2.64717e-05
-8.40741e-07
2.5042e-05
-7.71444e-05
-3.87355e-06
2.5157e-06
-6.18844e-07
-2.56273e-05
-0.000446241
0.000160404
0.000311463
-0.00028429
0.000103492
0.00015517
0.000319837
0.000486899
0.000105427
1.73412e-06
-3.66906e-06
-4.76947e-05
0.000313527
0.000320389
1.18156e-06
0.000759594
5.43802e-05
6.26031e-05
-5.6967e-05
-6.00162e-05
5.11384e-05
-0.000164321
0.000167563
-8.70651e-05
0.000200806
-2.93107e-05
0.000156411
-0.000184068
9.76974e-05
-0.000187024
0.000140745
-0.000207369
0.000210091
-5.21015e-05
-6.79586e-05
-6.06874e-05
0.000180747
2.67347e-05
-2.54962e-05
-5.334e-05
-0.00013813
9.69059e-05
-4.21389e-05
0.000113127
-9.64842e-05
7.51903e-05
-0.000170669
0.000129836
-0.000192775
0.000182275
-6.4254e-06
3.53507e-05
-6.44609e-05
3.55357e-05
6.36365e-05
-6.86079e-05
-1.45403e-06
-7.67356e-05
0.000175723
7.26135e-05
5.32953e-05
-0.000194517
6.55955e-05
5.56404e-06
9.54665e-06
-2.06868e-05
-1.61889e-06
0.000100648
1.71148e-05
-7.43933e-05
-4.33699e-05
-4.67541e-05
2.36727e-06
0.000145035
6.37851e-06
-3.60177e-05
2.32169e-05
-2.10594e-05
-7.65506e-05
-1.65518e-05
4.2136e-05
-2.89077e-05
6.27229e-05
-2.74366e-05
2.89512e-05
-9.38765e-05
-1.49835e-05
6.11548e-05
-7.09156e-06
4.82323e-05
3.33731e-05
-5.064e-05
-3.09654e-05
2.58964e-05
-0.000101567
0.000123903
-5.92193e-05
0.000118489
6.70789e-06
8.76875e-05
6.75208e-05
-9.17782e-05
7.67068e-05
-0.000110753
0.000105175
0.00011636
4.52408e-05
-9.59046e-06
-0.00015201
9.67455e-06
5.12197e-05
5.54659e-05
1.14383e-05
4.34773e-05
0.00010848
9.02374e-06
-0.000127094
1.6832e-05
0.000142868
3.19203e-05
-3.72508e-05
1.67689e-05
-1.97707e-05
9.51684e-05
-5.03165e-05
4.73781e-05
-7.85432e-05
2.02013e-05
5.04775e-05
6.10742e-05
-0.000131753
5.91505e-05
6.99084e-05
-0.000108858
3.66748e-05
7.29533e-05
9.23372e-06
3.28478e-05
1.89927e-05
3.26264e-05
4.65156e-05
4.96106e-05
-8.23725e-05
6.94367e-05
-7.05989e-05
0.000193163
8.81324e-07
-3.86325e-05
-4.88648e-05
-2.86942e-05
-6.59419e-05
1.32531e-05
8.1383e-05
-2.53737e-05
-3.93854e-05
3.60649e-05
-3.20834e-05
-5.92322e-05
9.58458e-05
-1.75718e-06
-0.000133474
2.30532e-05
7.41243e-05
-0.000107965
0.00011043
-9.19895e-06
-9.05101e-05
2.55462e-06
9.71545e-05
-3.9534e-05
7.66396e-05
-4.63045e-05
9.4736e-05
-0.00022478
6.30185e-05
-8.48798e-05
2.44159e-05
-0.000106283
0.000266456
6.09353e-05
-9.05786e-05
7.07914e-05
-7.6634e-05
-4.51496e-06
8.60971e-05
-4.94806e-06
0.000124286
1.75185e-05
-0.000218438
0.000141433
-2.1662e-05
-0.000107972
-3.07112e-05
-4.0535e-05
-7.2385e-05
0.000130603
-0.00015362
0.000241325
0.000248914
0.000256085
0.000258228
-0.000763226
6.29195e-06
0.00024321
-5.88049e-07
0.000255245
7.13164e-06
-0.000253464
-0.000241182
0.00074989
-0.000252344
6.01181e-06
5.33879e-06
5.45051e-07
7.36684e-06
-4.76147e-06
1.21222e-05
5.78517e-06
-1.3146e-05
3.02746e-05
-1.40721e-05
-2.0964e-05
9.14021e-06
3.32566e-05
-2.28849e-05
7.40332e-06
2.12667e-05
1.29963e-05
-4.90272e-05
2.03639e-05
-2.14397e-05
3.69074e-05
3.21631e-05
2.51719e-05
1.66033e-05
-7.39384e-05
1.01675e-05
4.32623e-05
6.70069e-06
2.86388e-05
-5.72991e-05
2.12668e-05
7.92947e-05
4.90121e-05
-8.97079e-05
3.68657e-05
1.88471e-05
8.67712e-05
-2.46124e-06
-3.50536e-05
-1.72287e-06
3.92377e-05
-3.16158e-05
2.93086e-05
-1.53989e-07
4.5189e-05
-0.000111858
7.60719e-05
-3.49234e-05
-4.28714e-05
-1.81643e-05
-2.37519e-05
3.48962e-05
-1.34862e-05
4.49981e-05
5.85062e-05
4.40251e-05
-0.000147529
-1.81329e-05
4.48145e-05
1.83165e-05
9.24961e-05
-5.21228e-05
-6.21486e-05
-3.44934e-05
0.000141457
-7.90104e-05
3.51783e-05
-0.000100736
0.000158739
-0.000135721
-3.99091e-05
-4.91155e-05
3.3838e-05
5.51866e-05
-4.9636e-06
8.89576e-05
7.08362e-05
-0.000124915
3.29975e-05
-7.50326e-05
7.58731e-05
-5.94397e-05
0.000147624
6.16661e-06
-3.32975e-05
-4.79016e-05
-3.55611e-05
-1.7712e-05
-2.21313e-06
5.56097e-05
3.53256e-05
-5.82696e-05
-2.37328e-05
2.78503e-05
5.41521e-05
6.76991e-05
4.97542e-05
0.000106113
-6.21465e-05
4.45067e-05
-0.000108435
-5.46494e-05
0.000153308
0.000106267
-0.000164947
0.00015773
0.000101841
-2.0924e-05
-9.31002e-05
1.21831e-05
-0.000169685
-1.97848e-05
0.000291311
-9.11387e-05
-9.94704e-05
0.000164699
1.85819e-05
-0.000276381
0.000128924
4.79585e-05
-0.000184794
0.000293933
-0.000257351
-1.4062e-05
1.82618e-06
1.36572e-05
-1.42139e-06
1.6577e-05
3.60006e-06
-3.4239e-05
7.19426e-06
1.12089e-05
-8.49215e-06
1.88761e-05
3.27324e-06
1.93594e-05
-2.42515e-05
9.0954e-06
-4.18211e-05
3.99199e-05
-2.57461e-05
4.60504e-05
1.08436e-05
-3.33052e-05
3.97355e-06
-4.30136e-06
1.88201e-07
5.11973e-06
-1.00658e-06
1.27098e-05
1.29383e-06
-1.8305e-05
7.87738e-07
1.21103e-05
3.81145e-06
1.6096e-05
-1.86136e-05
2.07052e-05
-1.17741e-05
2.06552e-05
-3.77149e-06
5.34707e-05
-1.84758e-05
-7.79171e-06
-1.88943e-05
4.51618e-05
-1.25925e-06
-2.98108e-05
1.25943e-05
-8.29478e-06
-7.56188e-07
9.38395e-06
7.2063e-06
-2.4885e-05
9.5857e-06
-9.57942e-07
4.30857e-05
-2.08641e-05
-5.20324e-05
-2.6691e-05
5.08824e-05
3.3533e-06
-1.70111e-05
-1.3752e-05
9.52689e-06
1.30692e-05
-4.09011e-05
-3.25374e-06
-8.7981e-06
-7.00323e-07
2.28428e-05
-2.03025e-05
-1.83997e-06
1.14171e-05
-1.16005e-05
-5.16992e-07
-2.07833e-05
5.50432e-05
5.00055e-06
3.87651e-06
-2.04775e-05
5.32932e-06
-8.45763e-07
-3.83031e-06
-1.16237e-05
-2.02563e-05
-1.5703e-05
-3.07617e-06
8.31194e-06
1.04673e-05
9.81155e-06
5.68013e-06
-3.11947e-05
9.39168e-06
-2.65631e-06
6.37375e-06
8.77547e-06
-9.4691e-06
4.96801e-06
9.71766e-06
-1.40793e-05
2.8439e-05
-7.96017e-06
5.71736e-05
1.33785e-06
-5.57738e-05
-2.7377e-06
-3.66436e-05
-1.87524e-05
0.00011257
-3.01682e-05
-5.13758e-06
1.40553e-05
-1.69989e-05
-5.28301e-05
-1.68161e-05
1.21189e-05
3.19959e-05
1.19038e-05
-7.4068e-05
3.40927e-05
-7.23436e-06
-5.71822e-06
2.29948e-05
-1.08134e-05
-1.12189e-05
-7.67991e-06
7.66502e-06
1.12337e-05
8.48263e-06
1.41532e-05
-3.38547e-05
2.3779e-05
-2.29763e-05
9.43799e-06
-2.46498e-05
2.28768e-05
-1.29911e-05
3.36628e-05
2.20307e-05
-3.25273e-05
3.28185e-05
2.14818e-05
2.61799e-05
3.02223e-05
-7.7884e-05
-9.08201e-06
1.17497e-05
1.88141e-05
5.44965e-05
-3.73986e-05
1.77241e-05
-5.63639e-05
5.03895e-05
-2.88866e-05
6.54248e-05
-5.70595e-05
8.26694e-05
-8.32011e-05
1.74104e-05
7.73502e-05
-3.74476e-06
-9.10159e-05
1.62613e-05
-1.20347e-05
1.31838e-05
1.57276e-05
6.04005e-05
-3.08838e-05
-4.15514e-05
4.97568e-06
6.86085e-05
3.93537e-05
-3.37817e-05
-3.64557e-05
-1.20978e-05
5.64271e-05
-9.5007e-05
9.86368e-05
-0.000132534
-4.67698e-05
-4.98496e-06
5.41545e-05
-2.39974e-06
3.63519e-05
2.03624e-05
-0.000103484
3.35952e-05
-2.2283e-06
-1.2746e-05
1.60996e-05
5.08009e-05
1.93012e-05
-1.16848e-05
-4.29565e-05
-1.06424e-05
8.71941e-05
-4.87788e-05
3.59399e-06
1.25362e-05
-4.20138e-05
1.79934e-05
1.318e-05
-3.24109e-07
-1.52086e-05
2.35269e-06
-1.25949e-05
-6.19048e-06
3.19654e-05
1.87251e-06
-1.47915e-05
-1.18295e-05
-3.80519e-05
4.36909e-05
-5.2951e-05
2.59129e-05
-4.52668e-05
9.08738e-06
-0.000113009
-5.87638e-06
-8.6084e-06
1.7758e-05
-3.20195e-06
-1.0847e-05
8.17256e-06
-1.32317e-05
3.14832e-05
-7.89539e-05
-3.6153e-06
-6.22317e-05
-1.9699e-05
4.86255e-05
2.10019e-05
-8.68489e-05
9.47545e-06
3.1207e-05
-4.63766e-05
-4.33359e-05
-3.24373e-05
0.00012215
-9.83488e-06
-7.22294e-05
3.56877e-05
-4.54791e-05
-7.69167e-06
5.69706e-05
3.29402e-05
-0.00013539
7.61419e-05
-2.68629e-05
7.75589e-05
-0.000116848
0.000121264
1.80891e-05
-1.82535e-05
6.35667e-06
-6.19234e-06
-2.07473e-05
1.63163e-05
2.25201e-05
-2.64182e-05
-1.25825e-05
3.57998e-05
4.39169e-06
-6.66097e-05
3.69163e-05
-1.3699e-05
2.2573e-06
1.84507e-05
4.55302e-05
-4.75105e-06
7.25888e-06
-2.59784e-05
2.34706e-05
5.05406e-06
-7.42796e-06
-2.37715e-06
-1.08974e-05
2.32103e-05
6.07872e-06
2.72884e-05
-4.07951e-05
1.07902e-05
-7.08866e-06
2.49405e-06
1.14956e-05
1.32987e-05
6.22941e-06
7.05485e-06
-2.52231e-06
-2.14565e-06
-1.70051e-05
4.22266e-06
-4.80651e-06
-1.83645e-05
1.89484e-05
-1.40794e-05
-2.05324e-05
3.88344e-05
-2.8431e-06
-1.60428e-05
-1.14604e-05
1.76961e-05
-9.07877e-06
2.26678e-05
-5.0171e-05
9.81267e-06
-1.2649e-05
1.41159e-05
4.31021e-06
1.58554e-05
3.32018e-06
-2.34858e-05
3.69843e-06
-1.36117e-06
1.97294e-06
7.18283e-06
1.2371e-05
9.93041e-06
-1.24308e-05
1.13927e-06
-5.24222e-06
1.71456e-05
2.32524e-06
-3.17578e-06
-1.15803e-05
-1.31626e-06
-1.60073e-06
-3.88611e-06
9.75268e-06
-3.74172e-06
4.60284e-06
-4.3966e-06
1.30624e-05
-1.32686e-05
-2.44484e-05
-2.62463e-06
3.16759e-05
-2.60387e-05
-2.80631e-06
-8.06364e-05
1.26864e-05
8.10125e-05
-8.38596e-06
-8.55189e-05
2.19775e-05
-3.2988e-05
8.62549e-06
1.27132e-06
-4.12375e-05
-1.34678e-06
4.13129e-05
-4.25719e-05
3.95066e-05
4.33662e-06
3.91569e-05
-0.000122966
4.50917e-05
-4.08561e-05
-5.58231e-06
-3.8742e-05
0.000125147
-3.09152e-06
3.85609e-06
-4.79074e-06
1.28363e-05
3.47957e-05
-3.99677e-05
-7.66422e-06
3.06814e-05
-7.95973e-05
6.17522e-05
-3.37977e-05
9.92748e-05
4.754e-05
3.75489e-05
-0.000125057
6.85774e-05
-2.87016e-05
7.13722e-05
-0.000113421
0.000106152
6.85041e-05
3.91539e-05
1.69772e-05
-0.000124635
-6.25139e-06
5.44231e-05
2.03324e-05
-2.91091e-06
3.58135e-05
-8.28072e-05
1.77985e-05
0.000119432
6.00024e-05
-0.000125832
5.82958e-05
-1.20431e-06
0.000111908
1.07344e-06
4.46684e-05
1.04213e-06
-4.6784e-05
6.2984e-05
-7.24803e-05
1.05698e-05
-2.39525e-05
0.000131605
-7.14777e-05
6.84607e-05
4.05913e-06
2.58541e-05
-0.000144116
8.99208e-05
-0.000136547
0.000134429
0.00014655
9.59532e-06
-0.000127575
-2.85707e-05
-0.000122114
-1.78961e-05
0.00028656
1.59154e-05
-0.000128434
4.49168e-05
-3.53462e-05
-0.000137145
-3.92178e-05
6.62385e-05
-0.000191173
0.000159962
4.7127e-05
1.65437e-05
-0.000336151
-4.94791e-05
0.000170223
-6.82816e-05
0.000168689
6.17453e-06
-0.000154984
-1.98801e-05
-0.000100623
-4.30089e-05
0.000312321
5.19683e-06
-9.96452e-05
-0.000149098
0.000136024
1.82701e-05
4.35139e-05
-0.000292257
-0.000211889
0.000304905
-0.000323359
-2.69067e-05
-2.9314e-06
4.91195e-09
2.98331e-05
4.87497e-05
4.98909e-05
-0.000125547
5.47273e-05
-8.90895e-06
1.45633e-05
-1.35328e-05
-1.02562e-06
-9.79493e-06
5.41914e-05
8.24832e-06
2.81098e-05
5.31807e-05
-6.50344e-06
4.88203e-05
4.25098e-06
-4.65678e-05
5.86928e-05
-5.26612e-05
-1.2535e-05
-4.4252e-05
0.000151765
-5.06952e-05
4.60373e-05
4.06181e-05
-0.000137881
5.70299e-06
-1.77462e-05
7.48829e-06
7.91141e-07
-3.66822e-05
-8.05068e-07
3.66962e-05
-6.07285e-05
6.32086e-05
-1.68898e-06
5.26964e-05
-0.000150107
1.47031e-05
-1.45246e-05
-9.83573e-07
-9.89905e-06
6.12983e-05
-1.17589e-05
6.50684e-05
2.64129e-05
1.67252e-05
3.53819e-05
9.99484e-06
-6.21019e-05
-7.73238e-07
1.68288e-05
6.69637e-07
3.5524e-05
-9.15353e-07
1.02274e-05
5.82466e-05
-5.84792e-05
5.38608e-05
-2.68046e-05
-6.07222e-05
-3.39099e-06
-2.46645e-05
-6.71631e-05
0.000153126
7.64783e-07
-1.32989e-06
1.39727e-06
-5.51049e-05
-4.77154e-06
-2.47377e-05
-0.000141945
-4.72772e-05
-6.56936e-05
-1.15871e-05
0.000124558
-7.10872e-06
-3.71733e-05
-2.99516e-06
-8.84613e-06
-6.39562e-05
6.73114e-05
-6.52482e-05
-3.92365e-05
-0.000111762
0.000167486
-0.000114818
-5.79047e-06
-0.000244022
6.32588e-06
5.25144e-05
-5.54056e-05
-3.43464e-06
2.1321e-05
-3.06535e-05
1.56584e-05
-3.94811e-05
0.000113316
8.61501e-05
0.000125327
-0.000266883
9.92424e-05
-1.6527e-05
-2.05248e-05
0.000115199
7.67988e-05
-9.63408e-05
3.52004e-05
1.58628e-05
-8.34452e-05
4.09698e-06
8.05062e-05
-1.15801e-06
0.00011962
8.87737e-05
-0.000291839
0.000129479
-5.7616e-06
-3.71264e-05
-7.63522e-06
0.000125268
-3.98737e-05
1.58923e-06
-1.10932e-05
-4.43336e-05
4.77916e-05
-7.42697e-05
2.33028e-05
5.67884e-05
-4.22844e-05
0.000141934
-0.00016577
-0.00015986
-0.00012056
2.38762e-05
-0.000141855
-4.11003e-05
-9.48831e-05
-0.000126734
7.76299e-06
-0.000144532
-9.73185e-05
-3.27648e-06
5.71182e-06
0.000151459
-0.000291062
3.65076e-06
-8.74871e-06
8.14849e-05
-2.8803e-05
-4.39331e-05
0.00012857
-4.28627e-05
-9.44558e-05
-0.000127131
-8.70313e-05
-2.83045e-05
6.39343e-07
-1.13784e-06
1.7868e-05
-8.90352e-05
7.73028e-05
-0.000186566
-9.08919e-06
9.74931e-06
-4.24337e-05
-8.64209e-06
4.13265e-05
-6.90321e-05
5.14778e-05
2.73037e-05
-2.38563e-06
-0.00010908
5.59338e-05
-4.05213e-05
-2.40547e-05
2.17601e-06
9.50843e-05
1.73662e-05
-9.23151e-06
-4.86559e-05
-1.07703e-05
3.03125e-05
-1.86653e-05
5.93727e-05
-3.02824e-05
-2.19853e-05
-3.51891e-07
2.43554e-05
-2.01826e-06
2.16277e-05
3.03438e-05
-7.39568e-05
-1.50849e-07
2.14267e-05
1.82659e-05
-2.02553e-05
1.83854e-06
-1.66456e-05
5.63383e-05
-4.35671e-06
1.44453e-05
3.35316e-06
3.60193e-06
-3.2117e-06
-5.24772e-06
4.85749e-06
-1.55605e-05
-6.99394e-07
1.98618e-05
-1.69336e-05
1.87955e-05
1.79999e-06
-2.58432e-05
3.06826e-06
2.05848e-05
-1.92082e-05
2.15771e-05
-3.43417e-05
1.90957e-05
1.514e-05
2.79146e-05
-6.21503e-05
-7.50965e-06
1.20539e-05
1.45515e-05
3.79246e-05
-3.02942e-05
1.37384e-07
-4.97986e-05
6.17152e-05
-2.19841e-05
3.6673e-05
-2.81422e-05
4.40828e-05
-5.00261e-05
-2.94728e-05
5.31419e-05
2.20447e-05
-4.57138e-05
0.00012526
-9.91229e-05
0.00016069
-0.0001076
8.17427e-05
-0.000117988
6.26007e-05
4.81405e-05
4.3574e-05
-0.000154315
1.18282e-05
9.96224e-05
-4.88499e-05
5.12549e-05
8.71397e-06
-7.82394e-05
-3.64692e-05
0.000165964
-8.66737e-05
1.71482e-05
-0.000114242
0.000177396
-0.000157342
4.0193e-05
3.47278e-05
6.64761e-05
-0.000141397
-2.15952e-05
3.27534e-05
2.90351e-05
-2.47555e-05
3.78885e-05
0.000101467
-2.58987e-05
-0.000100324
3.75514e-05
0.000101804
-3.51206e-05
0.000105426
5.4573e-06
0.000276247
-6.48592e-05
-0.00029896
8.75717e-05
-0.000254427
-0.000171058
0.000701732
-0.000232916
-8.6371e-05
0.000298582
0.000134755
-0.000666253
0.000451137
-0.000238926
-0.000419195
0.000699273
-0.0005834
1.67205e-05
2.71085e-05
1.34802e-05
-5.73092e-05
-1.1694e-06
4.03008e-06
1.38598e-05
2.7234e-05
-1.29493e-06
1.78754e-05
-2.78095e-05
1.39641e-05
-9.89381e-06
4.1629e-05
-3.46172e-05
5.19573e-05
-4.89464e-05
9.5313e-07
-1.42446e-05
-3.18613e-06
1.64776e-05
-1.7243e-05
2.07178e-05
-2.52162e-06
2.54908e-06
-3.40367e-05
2.77036e-05
-1.76346e-05
-1.32551e-05
2.00233e-06
4.21788e-05
7.50756e-06
-4.28079e-06
-2.08614e-05
-4.81381e-06
1.43237e-05
-6.63516e-06
2.25391e-05
-8.36688e-06
5.305e-06
1.23459e-05
1.65323e-05
-3.41832e-05
4.69802e-06
1.36318e-05
-1.30248e-05
1.23153e-05
4.72867e-06
9.05027e-06
1.92523e-05
-1.46708e-05
1.39674e-05
1.16151e-05
-4.40511e-06
3.59727e-05
1.4291e-05
4.37477e-06
4.33223e-07
-1.2942e-05
8.13398e-06
-4.93675e-06
-2.91239e-06
1.22239e-05
-7.3541e-06
2.85057e-06
1.51357e-05
2.94443e-06
-2.54342e-05
8.48891e-06
9.49735e-06
-1.47918e-05
2.03683e-05
-2.47894e-05
-6.77481e-06
-7.66019e-06
-9.35836e-06
2.37934e-05
-4.03135e-06
-1.39467e-05
1.12032e-05
-7.27775e-06
-4.41379e-06
-6.54596e-06
-1.66442e-05
1.38318e-05
-8.59027e-06
-1.19024e-05
9.32499e-06
-3.32469e-05
-3.67908e-06
8.69411e-06
-1.93173e-06
-8.89928e-06
2.13689e-06
-5.10507e-06
-4.47802e-06
1.82772e-05
-1.16754e-07
-6.92006e-06
-1.60697e-05
1.07017e-06
1.48828e-05
-1.16293e-06
-2.18268e-05
2.87696e-06
-1.29392e-05
-5.30905e-07
6.07001e-06
1.81147e-06
-4.32132e-06
-3.56017e-06
-4.54488e-06
-3.9281e-06
1.4543e-05
-5.07559e-06
2.34218e-06
2.4488e-06
-2.04177e-06
-4.72835e-06
-4.53545e-06
3.05615e-06
9.70721e-06
-1.68246e-05
7.51395e-06
-1.78127e-05
-3.75776e-06
8.355e-06
1.32154e-05
4.0449e-06
2.48965e-06
-2.43472e-05
-2.83152e-06
3.11867e-06
1.16884e-05
-1.22975e-05
-2.22236e-06
-3.74565e-06
1.85527e-05
1.905e-05
1.12981e-05
-2.78584e-05
5.54037e-06
2.18646e-05
1.52141e-06
-2.52086e-06
3.31613e-06
-1.66763e-05
-9.69061e-06
-4.87786e-06
3.12448e-05
1.19284e-06
-2.00915e-05
-9.28569e-06
7.87923e-07
3.17592e-06
-1.5362e-06
-1.09254e-05
3.82669e-06
1.37147e-07
4.19076e-06
5.82948e-06
-1.15565e-05
1.43129e-05
-6.29549e-06
2.22299e-05
-3.64919e-05
3.1665e-05
-1.96574e-05
-1.23864e-06
1.46036e-05
6.29236e-06
5.26816e-06
1.3411e-05
-3.83366e-05
-6.6461e-07
4.69413e-06
8.37705e-06
-1.02011e-05
1.15942e-06
-2.95856e-06
1.60297e-05
-4.3402e-06
1.40705e-05
4.87338e-06
1.39029e-05
-4.83204e-06
-1.86363e-05
2.97482e-05
-1.49345e-05
-2.37345e-06
-1.01351e-05
2.85383e-05
-3.321e-06
2.10697e-06
3.96771e-06
4.30436e-06
-1.15931e-05
4.60167e-06
1.47301e-06
4.33679e-06
-1.49669e-05
1.95016e-05
-1.05631e-05
3.91146e-05
-2.0833e-05
-2.99987e-07
1.59107e-05
5.22236e-06
1.29449e-05
1.71045e-05
8.01978e-07
1.18429e-05
1.52576e-05
2.64881e-06
-1.33816e-05
4.04821e-05
5.17789e-06
1.10785e-05
1.40459e-05
2.81772e-06
-2.79421e-05
6.6408e-07
1.1177e-05
-7.6254e-07
-1.68195e-05
1.09854e-05
-3.88869e-05
5.30877e-05
2.76537e-05
8.66562e-06
-8.9407e-05
-1.43217e-05
3.09537e-05
-8.80637e-06
2.21383e-05
5.74266e-05
3.84331e-05
6.74435e-06
8.1636e-05
3.85559e-05
-8.92913e-06
6.74385e-05
1.85339e-05
8.56719e-06
1.73597e-05
4.11622e-07
-2.36873e-05
-3.22048e-05
-6.25245e-05
-1.12311e-05
-1.23838e-06
2.17621e-05
2.67473e-07
-5.56624e-05
-4.07197e-05
-3.61515e-05
-7.63343e-06
-3.78617e-05
-1.01672e-05
-3.90632e-05
-9.28987e-06
-1.9495e-05
-4.28564e-05
2.61999e-05
-5.97565e-05
2.28318e-05
-0.000121651
-2.93145e-05
-4.27939e-05
4.80608e-06
-4.02599e-06
2.59738e-05
-8.04526e-05
4.07303e-06
2.67069e-05
4.47067e-05
-5.80987e-06
1.43316e-05
3.13981e-05
1.16904e-05
2.93607e-05
-4.6861e-05
6.43216e-06
1.95899e-05
1.75279e-05
-2.62546e-05
1.51589e-05
-4.33348e-05
2.04398e-05
-3.44139e-05
2.55834e-05
7.13118e-06
2.11344e-05
2.58541e-05
2.4968e-05
6.45319e-05
1.00818e-06
-7.13843e-05
5.84419e-06
-3.76383e-05
-4.22103e-05
0.000144381
2.11049e-06
-3.87406e-05
-3.61459e-05
3.59322e-05
2.32419e-06
5.62368e-06
-8.05102e-05
-5.96683e-05
5.33902e-05
-0.000125429
-1.49455e-05
-4.35686e-05
8.47034e-06
5.00437e-05
2.85591e-06
-1.83418e-05
5.40478e-07
-4.74992e-05
6.78653e-06
-2.17324e-05
-2.54459e-05
5.56486e-05
-6.22597e-05
2.21854e-05
8.07151e-05
1.31635e-05
-0.000141378
7.33699e-05
1.41318e-05
9.16383e-05
-0.000140735
0.000139562
-1.99147e-05
-4.30509e-05
2.81118e-06
1.54089e-05
1.77124e-05
2.05405e-06
-1.82224e-05
-1.5441e-06
-3.94922e-05
-1.52165e-06
5.87263e-05
1.26677e-06
-3.87049e-05
1.84927e-05
-6.64956e-05
2.97805e-05
-4.52048e-05
6.21758e-05
-3.75502e-05
3.74465e-05
1.37048e-06
1.7745e-06
-7.80296e-05
5.75763e-05
-0.000122297
4.9818e-05
-2.33082e-05
-2.221e-05
-9.69057e-06
5.52088e-05
-9.09643e-07
-2.2205e-05
-1.93535e-07
-2.07955e-05
1.86182e-05
-7.06434e-05
2.98202e-05
6.23179e-05
4.52897e-05
-0.000146595
-0.000150783
-2.92476e-05
-5.62782e-05
3.79017e-07
6.41874e-06
1.44474e-05
-1.06252e-06
-1.43094e-05
9.24571e-07
-3.31839e-05
-1.02783e-05
5.79096e-05
-2.14161e-06
-3.21048e-05
9.65007e-06
-5.21408e-05
2.81814e-05
-5.74564e-05
5.68282e-05
-5.45951e-05
-5.00295e-06
-0.000138841
-6.88719e-05
-3.12632e-05
-5.06475e-05
-1.81938e-06
-7.26832e-05
5.63074e-06
-3.17121e-05
3.67244e-05
-0.000146466
7.21308e-05
-0.000157704
-1.7136e-06
1.16117e-06
-2.5431e-06
4.43338e-05
6.05861e-05
2.25804e-05
-0.0001275
-4.03353e-06
9.14476e-07
4.74529e-05
6.74473e-05
-1.08947e-05
7.50248e-05
-6.84796e-05
-2.19386e-05
0.000144416
-9.27929e-05
0.000138302
-0.000138692
-5.76426e-05
-5.07514e-05
-2.04856e-05
0.00012888
5.50642e-07
-4.97931e-05
-8.40011e-06
-5.08427e-05
6.41905e-07
7.71154e-05
2.03168e-05
-0.000148275
7.27481e-05
5.00922e-06
8.70549e-05
-0.000116531
0.000139317
-6.15484e-05
4.36005e-06
5.81285e-05
-9.4008e-07
3.79834e-05
1.29663e-05
-0.000112498
3.90262e-05
3.3173e-06
-4.71981e-05
1.71765e-05
8.815e-05
3.28092e-05
-6.7041e-05
-4.27667e-05
9.89694e-05
-6.6402e-06
-6.41339e-06
-2.01955e-05
8.72513e-06
1.78837e-05
-1.24433e-05
1.65314e-05
-1.05015e-05
3.45003e-06
-3.60888e-05
-3.85653e-05
7.78986e-07
5.43177e-05
-1.19328e-05
-3.71341e-05
1.67767e-05
-2.52594e-05
2.62808e-05
-9.09145e-06
7.68337e-06
1.77266e-05
-1.63185e-05
8.57545e-06
6.84114e-06
-2.4508e-05
6.42306e-06
9.83576e-06
1.7111e-05
1.63176e-05
-2.65875e-05
1.29894e-05
2.18482e-05
5.32443e-06
1.4088e-05
3.14778e-05
-2.96188e-06
2.09472e-06
5.57792e-07
3.09372e-07
7.28065e-06
5.76639e-08
-1.03002e-05
-1.85297e-05
2.79051e-05
-2.04391e-05
1.85808e-05
1.91594e-06
2.48886e-05
-5.56279e-05
-6.67327e-06
8.29638e-06
1.69577e-05
1.45671e-05
3.64823e-06
1.97666e-06
-5.93927e-06
1.08308e-05
3.84178e-06
5.81345e-06
-6.05925e-06
-3.59599e-06
5.00064e-07
-4.50139e-06
7.84311e-06
6.20737e-06
1.06143e-07
-2.95709e-06
9.47384e-06
-2.07804e-06
-7.72906e-07
-6.32699e-07
2.23453e-06
7.87201e-06
9.05101e-07
-3.61584e-06
-4.29004e-07
-1.83785e-06
-5.58315e-06
1.02573e-05
1.12772e-05
-2.11267e-06
-1.94219e-05
1.39088e-05
2.52368e-05
-2.88882e-05
8.04839e-06
1.71376e-05
1.40048e-05
-1.81856e-06
-1.4299e-05
8.69857e-06
3.05431e-05
1.35646e-05
-7.33473e-06
3.94008e-05
3.57148e-05
2.9868e-05
4.75423e-05
-0.000113125
-3.98876e-05
4.64243e-05
2.91782e-05
9.94233e-05
-0.000109443
-2.21626e-05
-8.6509e-05
0.000155096
-6.01097e-05
6.71255e-05
-5.71704e-05
-9.61369e-05
-5.79573e-05
-3.31091e-05
-4.71642e-05
0.000138231
4.17434e-06
-0.00017257
0.000110439
-5.53833e-05
2.64486e-05
-0.000143586
-7.32107e-05
0.000169632
-7.19231e-05
-0.000244233
7.59281e-05
-0.000203234
2.9166e-05
4.6884e-05
-2.3139e-05
3.74099e-05
-6.55423e-05
0.000154562
-6.52232e-05
-2.3458e-05
8.27816e-05
-1.72268e-05
5.87754e-06
4.23044e-05
-2.95739e-06
-4.52246e-05
6.6123e-05
-9.08018e-05
3.05564e-05
-6.95076e-05
0.000177935
-3.15921e-05
3.2342e-05
-3.70727e-06
2.20048e-05
-9.88215e-05
2.86497e-05
-9.74467e-05
-8.5159e-06
-7.82059e-05
-0.000115164
-3.35601e-05
0.00022693
-7.89358e-06
1.45411e-05
-8.48534e-05
-0.000114442
-8.61551e-06
-0.000143357
0.000113282
4.46156e-05
3.27865e-05
-0.000260997
0.000160326
-0.000241982
0.000240048
-4.21831e-05
-4.61248e-06
4.00427e-05
6.75279e-06
4.42845e-05
2.53502e-05
-0.000111818
4.86956e-05
-9.0235e-06
4.0305e-06
3.81837e-05
-1.6864e-05
4.26951e-05
1.37815e-06
-6.50898e-05
0.000156481
-3.59296e-05
-2.24512e-05
-1.76894e-06
-7.37739e-08
2.4294e-05
4.00138e-05
4.0434e-05
-0.000102899
4.17159e-05
-3.47099e-06
1.20572e-05
-1.16392e-05
-4.91771e-07
-7.49584e-06
4.3847e-05
7.27701e-06
2.15178e-05
4.14971e-05
-1.29189e-06
3.42319e-05
-3.28942e-05
-4.5841e-08
3.9694e-05
-3.40718e-05
-6.91407e-06
-3.1737e-05
0.000105663
3.40634e-05
3.07844e-05
-9.77419e-05
3.05465e-05
3.17905e-06
-6.46645e-06
1.98859e-06
-1.71965e-05
-4.85408e-05
-4.40305e-05
0.000109768
-4.48735e-07
6.38744e-07
-1.73865e-05
-4.69813e-05
-2.0082e-06
-2.44001e-05
2.54563e-05
-4.17379e-07
1.21841e-05
-5.39707e-05
3.60081e-05
-7.08053e-05
4.3228e-05
1.82364e-05
-2.81079e-06
3.69716e-05
1.74163e-05
-0.000108359
3.83875e-05
-1.83331e-06
-6.3261e-05
0.000119885
-5.2274e-05
-1.28204e-05
5.15967e-05
-1.82648e-06
-6.9258e-07
-4.90776e-05
-3.20455e-05
-4.19051e-05
-2.71694e-06
-3.11551e-05
-7.00342e-05
6.97586e-05
-2.44131e-06
3.17599e-05
-0.000132949
-3.912e-05
-3.47764e-06
9.24501e-05
0.000123089
1.37806e-06
5.92909e-05
2.84622e-05
-5.65798e-06
-0.000109558
9.75913e-05
1.76243e-05
-0.00010128
0.000100207
-4.58548e-06
9.15504e-05
-0.000302388
-0.000105323
-9.62958e-05
0.000301826
-9.91062e-05
-1.08019e-05
8.58147e-06
-1.61372e-05
9.87697e-06
-8.93438e-05
-9.8554e-05
-0.000103941
-2.37234e-06
-9.86439e-05
1.16725e-05
-6.89001e-07
-0.000100237
-9.94887e-05
9.86513e-05
1.4839e-07
9.89841e-05
-0.00029871
-7.77625e-06
8.1165e-06
-1.30665e-05
-1.80764e-06
7.09131e-05
-2.38084e-06
-6.67247e-05
7.7365e-05
-7.20066e-05
-7.16602e-06
-6.79664e-05
0.000216244
-5.7659e-05
6.54095e-05
-1.01314e-05
6.74512e-05
-0.000191835
-4.13498e-06
-4.20413e-07
-6.69192e-06
-1.67043e-06
-4.34005e-05
-8.83633e-05
-0.000220799
-6.45428e-06
-5.73225e-05
4.73683e-05
1.64086e-05
-4.93238e-05
5.13881e-05
-8.51852e-06
3.64161e-05
-0.000143063
-5.97193e-05
-4.26676e-05
0.000153775
-4.68907e-05
-2.13471e-05
1.16635e-05
-2.21381e-05
1.63641e-05
3.11807e-06
5.37673e-05
-5.31284e-05
-3.757e-06
7.69974e-05
-8.29685e-05
-7.1164e-05
-9.35218e-05
2.01149e-05
-0.000156212
-5.95578e-05
-1.53632e-05
-0.000132965
5.46167e-05
4.80236e-05
-1.80529e-05
-8.45874e-05
-3.58887e-05
-3.70788e-05
-2.46463e-05
-3.22835e-06
2.45648e-06
-3.40453e-05
-5.48997e-06
-2.54182e-05
-7.75164e-05
-7.30929e-07
1.54426e-05
-5.82672e-06
-8.885e-06
1.42373e-05
-6.90562e-06
-8.06257e-06
-2.46391e-05
-1.41319e-05
-3.37834e-06
-1.49785e-06
-9.50523e-07
8.00787e-07
-1.10848e-05
1.89278e-05
-4.27661e-05
3.29807e-06
-4.02108e-06
-4.91681e-06
1.36992e-06
7.56796e-06
1.30814e-06
3.2716e-07
-5.65638e-06
-7.87757e-07
-2.82093e-06
3.81231e-07
1.01968e-06
-3.09889e-08
1.76526e-06
-1.05688e-06
-1.62438e-06
2.60186e-06
-3.42564e-06
-1.71425e-05
-3.28898e-09
4.83219e-06
1.23136e-05
6.3069e-06
-4.11236e-06
-1.93371e-05
1.21821e-06
5.08543e-06
-2.79895e-07
-3.39411e-06
4.89222e-06
-2.68297e-06
7.48854e-06
-1.92075e-06
7.47607e-06
-7.231e-07
2.33747e-06
-8.37051e-06
-2.2384e-06
1.1818e-06
2.55477e-06
-1.85099e-05
-3.63324e-05
-3.37477e-06
5.8217e-05
3.19023e-06
-1.13854e-05
-1.03146e-05
-1.59138e-05
-1.72284e-05
-3.60101e-06
1.4052e-05
-2.18364e-05
6.66918e-06
2.57718e-05
-3.50163e-05
3.64491e-05
-4.18865e-06
-3.96964e-05
3.03989e-05
-3.31657e-05
3.44998e-05
-5.52276e-06
2.9413e-05
-0.000102275
-5.74448e-05
-1.60203e-05
-1.97675e-05
-4.32e-05
-2.84926e-05
-4.16406e-05
6.1743e-05
-4.90698e-05
2.89673e-05
0.000127214
-0.000149862
0.000150325
0.000123214
-0.000125768
0.000103316
0.000178429
3.52271e-07
-7.54652e-05
-0.00014572
-4.89598e-05
0.000373109
-2.03046e-05
-0.000125063
-0.000201483
0.000252257
-7.10786e-05
3.87535e-05
-0.0003653
-0.000229744
0.000433041
0.000210976
-3.80095e-05
-0.000158955
-1.40115e-05
-0.000414845
-4.04311e-05
-0.00031159
-0.000141265
0.000178961
6.47165e-05
-0.000402633
0.000226389
-6.14392e-05
5.82473e-05
6.87171e-05
-6.22479e-05
7.15627e-05
0.000213074
-9.26587e-05
0.00012379
-0.000335531
3.56591e-05
1.05839e-05
-2.56868e-05
-2.05561e-05
-1.36631e-05
5.70781e-06