/*--------------------------------*- C++ -*----------------------------------*\
| =========                 |                                                 |
| \\      /  F ield         | OpenFOAM: The Open Source CFD Toolbox           |
|  \\    /   O peration     | Version:  v2012                                 |
|   \\  /    A nd           | Website:  www.openfoam.com                      |
|    \\/     M anipulation  |                                                 |
\*---------------------------------------------------------------------------*/
FoamFile
{
    version     2.0;
    format      ascii;
    class       volVectorField;
    location    "0.35";
    object      U;
}
// * * * * * * * * * * * * * * * * * * * * * * * * * * * * * * * * * * * * * //

dimensions      [0 1 -1 0 0 0 0];


internalField   nonuniform List<vector> 
6576
(
(0.0356631 -1.48007 -0.074373)
(-0.101718 -1.54138 0.0865232)
(-0.0377741 -1.5696 0.0127947)
(0.0489826 -1.44798 -0.0674864)
(-0.00670545 -1.50868 0.0055769)
(-0.0903727 -1.6047 0.0872606)
(-0.020388 -1.55 0.0350694)
(0.0176975 -1.49875 0.00533852)
(0.0203515 -1.24918 -0.0096411)
(0.0204242 -1.45806 0.00259601)
(-0.0120419 -1.50711 -0.0164334)
(-0.0191838 -1.54707 -0.0089255)
(-0.00220655 -1.55506 0.00971502)
(0.0085056 -1.48837 0.00079698)
(0.0641458 -1.45893 0.0226608)
(0.00779335 -1.821 -0.035227)
(0.0727857 -0.864684 0.0349588)
(0.0180534 -1.72088 -0.0162131)
(0.0605529 -1.56471 0.0678245)
(0.0198814 -1.4802 0.00531543)
(0.0532407 -1.37846 0.0539693)
(0.00237817 -1.5433 0.0183894)
(0.0115138 -1.47127 0.0101214)
(-0.00488989 -1.50028 -0.0120287)
(0.00132667 -1.58969 0.0252839)
(0.057868 -1.53102 0.0606439)
(0.0668334 -1.49383 0.0706885)
(0.00116918 -1.45628 0.0141747)
(-0.00600375 -1.57792 -0.0325942)
(0.0115023 -0.963227 -0.00983145)
(-0.0619323 -1.58179 0.0715164)
(-0.0298192 -1.45845 -0.00990828)
(-0.0147348 -1.55662 0.00139318)
(0.0129001 -1.45797 0.0333255)
(0.018292 -1.46613 0.0362959)
(-0.0202714 -1.25835 0.00998262)
(0.00249669 -1.64404 0.0105053)
(-0.0161127 -1.57165 0.0106668)
(0.0195891 -1.47882 0.0255943)
(0.0111554 -1.4789 0.020239)
(0.00238658 -1.30875 0.0340993)
(-0.01919 -1.47821 0.0065721)
(-0.00112783 -1.4063 0.00724514)
(0.64585 1.79799 0.818875)
(0.375735 1.73364 0.530793)
(-0.273701 0.908409 -0.069044)
(-0.0646404 1.52954 0.539678)
(0.239963 1.6304 0.936726)
(-0.260187 0.656569 0.176258)
(-0.0988742 0.884322 -0.0872653)
(-0.331231 1.00409 -0.082582)
(-0.222922 1.00778 0.295502)
(-0.0129633 3.02929 -1.08151)
(0.075794 2.8293 -0.299804)
(-0.0276659 2.60315 -0.554179)
(-0.027119 3.28189 -0.23926)
(-0.0201277 3.33032 -0.973224)
(-0.10693 2.1346 -0.740078)
(-0.0607165 2.61289 -0.207657)
(-0.0526962 0.599698 -0.134838)
(0.24029 1.34249 -0.409835)
(-0.0265909 0.937292 0.0892739)
(-0.0698873 1.27102 0.301585)
(-0.121668 0.970464 0.394667)
(0.0988505 0.926365 0.406267)
(0.133812 1.53218 0.217903)
(0.0256956 -0.0294708 0.454179)
(-0.122736 -0.148017 0.509144)
(0.0168218 -0.047182 0.671177)
(-0.135627 -0.0210295 0.527264)
(0.076846 0.297853 0.43682)
(0.0278902 0.105449 0.655215)
(0.0312142 0.358688 0.558998)
(-0.227822 0.268709 -0.0268166)
(0.194419 0.442762 -0.24485)
(0.0506397 0.0481913 -0.181233)
(0.302397 0.87259 -0.25383)
(-0.0453907 0.843834 -0.368517)
(0.0307273 0.464862 -0.823264)
(0.190608 0.50813 -0.46799)
(0.0689083 0.0841485 -0.226525)
(0.0109019 0.379603 -0.052696)
(0.0414674 0.52504 -0.293843)
(-0.0187413 0.551261 -0.351687)
(-0.123357 0.484212 -0.316243)
(0.2352 0.166386 -0.327186)
(0.26211 0.388276 -0.561378)
(-0.0185824 -0.719768 -0.202504)
(-0.0411256 -0.827994 -0.147308)
(0.0130055 -0.538632 -0.154008)
(0.00302329 -0.753276 -0.0765514)
(0.0436736 -0.531466 -0.290986)
(-0.0410044 -0.805273 -0.105218)
(0.00313205 -0.715243 -0.230331)
(0.0841711 -0.201379 1.21768)
(0.0123666 -0.196317 1.14593)
(0.108314 -0.227128 1.33314)
(0.122856 -0.942588 0.264507)
(-0.0213203 -1.23339 0.42196)
(0.140032 -0.691661 0.811892)
(0.217145 -0.642984 0.803784)
(-0.0177597 -0.0677283 3.37566)
(0.0900384 0.140796 2.66732)
(0.0389633 0.290138 1.97975)
(0.0358615 0.248853 2.91347)
(-0.155026 0.0694674 3.2822)
(0.030496 0.239364 2.60239)
(-0.11111 0.0667927 2.84315)
(0.088249 0.329184 1.41821)
(-0.00931415 0.512887 1.02205)
(0.0846831 -0.0951271 0.650158)
(-0.0555021 0.711754 1.5296)
(0.381466 -0.0352304 0.383961)
(0.173114 0.208982 0.487309)
(0.0248297 -3.45654 0.0578985)
(-0.00409905 -3.70356 0.0109855)
(0.0319013 -3.681 0.0339624)
(-0.0147769 -3.73631 0.00852847)
(-0.023127 -3.80775 0.00964289)
(0.00699388 -3.79994 0.0300532)
(0.015266 -3.72232 0.0864942)
(-0.0556449 -1.37628 0.0193323)
(0.075048 -1.56753 0.0945836)
(-0.00471515 -1.57942 -0.00926542)
(0.0398524 -1.54989 0.0194025)
(-0.0859545 -1.50047 -0.0374913)
(0.13517 -1.6678 0.172527)
(-0.158077 -1.42666 -6.99085e-05)
(0.0426337 -14.8829 -0.0786972)
(0.0195471 -14.451 -0.0479649)
(0.0411761 -14.3145 -0.0117945)
(0.0894937 -14.3534 0.150572)
(0.14247 -14.744 0.0213284)
(0.13284 -12.9131 0.0888719)
(0.0862338 -14.1207 0.0552797)
(0.0285457 3.30181 2.85363)
(-0.147914 3.90816 3.09198)
(0.00915567 3.72185 2.74872)
(0.0492643 3.38281 3.36823)
(-0.0547561 3.53702 3.57833)
(-0.165104 3.93482 3.50321)
(0.0177823 3.88759 3.23478)
(0.311785 3.69658 1.13155)
(-0.0196222 2.85707 1.16202)
(-0.0048237 3.73038 1.83219)
(0.0597339 2.88513 1.69482)
(-0.0642657 3.30023 2.60481)
(-0.00661429 3.69463 2.41215)
(0.34868 3.78982 1.60267)
(0.371071 2.9204 -1.02562)
(0.00526353 3.77915 -0.433189)
(-0.00645496 3.38225 -0.827966)
(0.190579 3.63058 0.349083)
(0.0141894 3.7569 0.131142)
(-0.0868141 3.57972 -0.347331)
(0.362345 3.2325 -0.332499)
(0.12034 3.05208 -0.666839)
(0.0911746 2.69811 -1.17506)
(0.0191872 2.16876 -0.7817)
(-0.09036 2.84325 -0.132602)
(-0.0445985 2.54443 -0.528817)
(-0.15112 1.96361 0.324529)
(-0.210457 1.92067 1.23299)
(-0.0459089 2.2574 0.13559)
(0.0943875 2.2235 0.545932)
(0.0931807 2.6731 -1.53306)
(-0.366952 2.42294 -2.17709)
(0.129512 1.99977 -2.36125)
(0.158872 2.71611 -1.37646)
(0.116889 2.87268 -1.74135)
(-0.340404 2.60652 -2.09107)
(0.0840661 2.29997 -2.06687)
(0.253511 1.41927 -2.92638)
(0.297004 0.913285 -3.13788)
(0.0198855 -1.3428 -4.2134)
(-0.091986 2.12183 -2.36638)
(0.170866 1.95943 -2.81997)
(-0.0990268 -0.15385 -1.86021)
(-0.317431 -1.01747 -2.11074)
(-0.266765 0.732921 -1.71778)
(-0.0266005 1.51909 -1.94185)
(-0.0679766 -1.20491 -2.53845)
(0.38335 -2.14513 -2.2155)
(0.137617 -3.2571 -2.14203)
(-0.612246 -1.03069 -2.8982)
(0.077255 -1.81888 -2.38406)
(-0.100963 -3.79134 -1.55376)
(-0.313298 -3.31477 -1.91116)
(-0.366768 -2.11033 -2.57508)
(0.0436758 -2.29452 -2.02758)
(-0.192529 -1.50376 -1.34142)
(0.0103786 -2.09876 -1.57506)
(-0.0954281 -1.06722 -1.653)
(-0.0313613 -1.47196 -2.5455)
(0.115941 -1.99986 -2.21416)
(-0.0401679 -1.16949 -2.09596)
(0.000375855 -1.6188 -2.05595)
(0.0215715 -6.42836 -0.478981)
(-0.532456 -3.27751 -0.888803)
(-0.111651 -4.33244 -0.732093)
(0.643639 -4.35498 -1.38581)
(0.33728 -5.02625 -1.1169)
(-0.302179 -2.98442 -1.63664)
(0.185393 -3.14979 -1.73959)
(0.00342751 -5.25053 0.414023)
(0.182762 -3.47221 -0.0328902)
(-0.135154 -6.47453 0.472735)
(-0.262385 -4.1321 -0.584086)
(-0.360571 -2.11128 -1.57314)
(0.142087 -2.70415 -0.927812)
(0.116326 -4.60192 -0.226899)
(-0.072962 -14.1878 0.0540325)
(0.179505 -13.966 0.164674)
(0.104619 -14.3211 0.381624)
(-0.159785 -14.4906 -0.000432389)
(-0.368623 -14.4888 -0.156715)
(-0.381103 -14.4707 -0.246364)
(-0.102728 -13.3795 -0.0877817)
(0.00564669 -0.494973 -0.321499)
(-0.256759 -0.669996 -1.15551)
(-0.228092 -0.868662 -0.662081)
(0.170305 -0.400253 -0.576599)
(0.084598 -0.297165 -0.980081)
(-0.279889 -0.657196 -1.40422)
(-0.221435 -0.777032 -0.748384)
(-0.158015 -0.0949341 -1.4464)
(0.0465156 -0.407682 -1.22718)
(-0.0415558 -0.682818 -1.6264)
(-0.0602565 -0.23163 -1.47547)
(-0.0598174 0.0574923 -1.68333)
(0.194561 -0.385581 -1.93805)
(0.0716581 -0.56756 -1.71861)
(0.0883204 -0.0663116 -1.83962)
(0.133172 0.0289407 -2.01299)
(-0.114212 0.378912 -2.05784)
(-0.673537 -1.39503 -3.04455)
(-0.0369787 -1.1889 -2.52427)
(0.55921 -0.715375 -2.24188)
(-0.403388 -0.491944 -2.45381)
(-0.221583 0.956325 -2.80122)
(0.0242283 1.00883 -2.36881)
(-0.0239555 0.950466 -2.8465)
(-0.0310725 0.615401 -2.61816)
(-0.336905 0.685427 -2.46183)
(-0.142392 0.638598 -2.82331)
(-0.324778 0.675213 -2.58584)
(0.0190874 1.91995 -2.47115)
(-0.299827 2.25963 -2.37368)
(-0.0194814 2.13597 -2.38391)
(-0.0867042 1.50253 -2.7426)
(-0.0968487 1.6252 -2.75546)
(-0.17528 1.72032 -2.5335)
(-0.356623 1.96307 -2.7378)
(-0.398586 2.2206 -2.40505)
(-0.0605856 2.05263 -2.39731)
(-0.00976666 3.27219 -1.56747)
(-0.0401075 3.29029 -1.0842)
(0.00325939 3.28378 -1.20864)
(0.200978 3.06984 -1.71227)
(-0.0354996 2.89341 -1.81492)
(0.127519 3.09054 -1.35722)
(0.00318879 3.01429 -1.40293)
(0.00044569 5.73999 0.673875)
(-0.193901 5.24699 1.29399)
(-0.299273 4.71805 1.86091)
(-0.137335 5.22282 1.50707)
(0.0403467 5.7271 0.987208)
(-0.314948 5.20035 1.38627)
(-0.39474 4.89172 1.98476)
(-0.00623274 0.0561198 -1.71712)
(-0.455536 0.187048 -1.96529)
(-0.0239465 0.333143 -0.857601)
(0.0879723 0.0374394 -1.65775)
(-0.176424 0.305056 -1.72797)
(0.0628892 0.710456 -0.913589)
(0.213181 0.47387 -0.973106)
(-0.116296 0.669606 -1.61833)
(-0.0703986 0.335537 -1.52384)
(-0.0636008 0.896194 0.0725982)
(0.103865 0.73208 -0.063027)
(0.0452963 0.973231 0.11069)
(0.0937562 0.759279 -0.0111834)
(0.126126 1.02667 0.0565704)
(-0.099115 0.890416 -0.145425)
(-0.00837143 1.00861 0.0107197)
(-0.0591005 0.853382 0.180679)
(-0.0592988 0.848975 0.198032)
(0.011384 0.964503 0.151658)
(0.0959771 1.1578 0.0477858)
(7.83811e-05 1.04996 0.0527637)
(0.0139435 0.999908 0.132281)
(-0.0175935 0.977835 0.0827064)
(0.0643464 1.14011 -0.00427049)
(-0.0325015 1.04628 0.0164787)
(0.125446 0.827644 -0.0670548)
(0.208171 0.857322 -0.027022)
(0.0811064 0.794139 -0.0550946)
(0.0932826 0.982416 0.0628348)
(-0.0387752 0.868071 -0.000583632)
(0.034255 1.03664 -0.0386575)
(-0.0300094 0.968402 0.0103156)
(-0.0295127 0.999765 -0.00304026)
(0.00149216 1.08993 -0.0769924)
(0.00311847 0.984038 0.0458207)
(-0.0145986 0.19101 -0.56313)
(0.00111598 0.226932 -0.584469)
(-7.15845e-05 0.169338 -0.511921)
(0.0179594 0.194971 -0.61571)
(0.0097439 0.184328 -0.560737)
(0.00748327 0.178278 -0.538704)
(0.0134673 0.169898 -0.567875)
(0.0795798 -2.10801 -0.0159111)
(0.0223093 -2.10325 -0.0776874)
(-0.0299882 -1.54545 -0.150621)
(-0.0347141 -2.02878 0.19375)
(-0.0968776 -2.06583 0.198488)
(-0.0518876 -1.20358 0.265268)
(-0.213608 -1.64104 0.160889)
(-0.509619 -1.56377 0.651145)
(-0.696233 -1.41486 0.835264)
(0.00278861 0.415841 -0.627006)
(-0.010256 0.519471 -0.623305)
(-0.0258394 0.424101 -0.611959)
(0.0061442 0.430292 -0.619129)
(-0.00227009 0.397293 -0.626274)
(-0.0124897 0.480378 -0.602496)
(-0.0238698 0.418306 -0.611153)
(0.0429302 0.812586 1.45538)
(0.0806372 0.356027 0.954995)
(-0.0896037 0.704413 1.49536)
(-0.0283898 0.883522 1.24364)
(-0.0831295 0.674958 1.24118)
(-0.221089 0.951203 1.76947)
(-0.0854509 1.08509 1.59737)
(-0.274646 1.75091 1.14822)
(-0.00956135 0.950347 1.39625)
(-0.126344 1.32806 1.54464)
(0.0650698 1.54199 0.800065)
(0.115857 1.38729 0.941531)
(0.0584509 1.89678 0.742529)
(0.159942 1.62276 0.899703)
(-0.628818 2.56069 1.84531)
(-0.13318 2.50413 0.932176)
(0.0486985 2.09169 -0.0870497)
(-0.074251 1.98376 -0.562835)
(0.0240517 1.62276 0.396304)
(-0.0540156 2.05296 -0.246497)
(-0.489641 2.28123 -0.743582)
(0.0347763 1.6479 0.148201)
(-0.0251488 1.58937 -0.11864)
(-0.0728084 1.76385 -0.249621)
(0.0657196 1.8858 -0.0668792)
(0.10937 0.0816629 -3.05063)
(-0.213554 -0.110872 -1.69975)
(-0.551063 -0.134214 -0.313335)
(-0.326138 -0.118496 -2.25344)
(-0.0613918 0.248285 -2.93614)
(-0.313776 -0.12998 -1.56766)
(-0.0627266 0.152776 -2.02074)
(0.00111371 0.0388744 -0.551968)
(-0.158264 0.0611297 -0.713991)
(0.0413421 0.0228082 -0.547664)
(-0.264524 -0.0413741 -1.32145)
(-0.137249 0.203271 -1.46592)
(0.0892782 0.875191 -1.42751)
(0.0320081 0.539878 -1.62839)
(0.00441001 1.01875 -0.620852)
(-0.0600262 0.373596 -0.645172)
(-0.00498597 0.593033 -2.31044)
(-0.165569 0.698173 -2.03885)
(0.0306286 0.469702 -2.53596)
(-0.0730489 0.588041 -2.42224)
(0.041573 0.555739 -2.53569)
(-0.0127333 0.886469 -2.07121)
(-0.0124353 0.753006 -2.28471)
(1.14377 0.825608 0.0810061)
(0.805396 0.530678 0.155385)
(-0.270823 0.653001 -1.36633)
(-0.173823 -0.116225 -0.902325)
(-0.0983049 0.327179 -1.80709)
(0.466726 -0.00843345 0.0789245)
(0.595339 0.0923467 -0.789071)
(-0.0299299 0.470265 -0.701834)
(0.0117683 -0.0280316 -0.210365)
(-0.105163 0.111692 -0.455567)
(0.159252 0.635804 -0.706638)
(-0.144166 0.0764623 -0.430068)
(0.143015 0.663866 -0.85401)
(-0.223327 0.165153 -0.635854)
(-0.101737 0.212866 -0.58751)
(0.0499663 0.642371 -0.889869)
(-0.0805935 0.737756 -0.3315)
(0.025067 0.772089 -0.328741)
(0.0225109 0.791639 -0.254214)
(0.0270573 0.996424 -0.213273)
(-0.0605272 0.953789 -0.241749)
(0.00396289 0.783569 -0.251553)
(-0.0994445 0.876376 -0.237775)
(0.124938 -0.418653 -0.171068)
(-0.0106533 -0.137879 -0.130413)
(-0.00730544 -0.332246 -0.230274)
(-0.0210333 -0.508366 0.0252299)
(-0.161652 -0.312252 0.034619)
(-0.0245902 -0.414645 0.0246955)
(-0.15678 -0.18663 -0.0457263)
(-0.046791 -0.385949 -0.189762)
(0.0502859 -0.455253 -0.0323535)
(0.0207878 0.13374 0.269325)
(-0.177726 -0.890108 0.186481)
(-0.0954311 -1.10145 0.0127461)
(0.12176 0.962808 -1.56047)
(0.621736 2.09347 -1.96998)
(-0.0188703 1.09462 -0.70443)
(-1.2956 -0.198692 -1.46731)
(-0.025358 -2.30847 -0.126775)
(-0.00553446 -2.27367 -0.0868726)
(-0.0197212 -2.31749 -0.112211)
(0.0615912 -2.43603 -0.0802707)
(0.0103566 -2.36283 -0.0995038)
(-0.0173179 -2.29406 -0.0915586)
(0.0373793 -2.3776 -0.0666228)
(0.0459843 2.20682 -0.546776)
(-0.273578 1.8132 -1.17484)
(-0.0522744 1.87646 -0.871169)
(0.00885923 2.32603 -0.877368)
(0.0572157 2.25257 -0.51631)
(-0.1623 1.95165 -1.30325)
(-0.00342115 1.99982 -0.915446)
(0.103277 2.33904 -0.40462)
(0.00260137 2.22523 -0.357285)
(0.0227462 2.10981 -0.269938)
(-0.0582144 2.3433 -0.238711)
(0.0243671 2.34935 -0.171934)
(-0.0494563 2.28964 -0.0234431)
(-0.0948492 2.21937 -0.104493)
(0.00586735 2.60963 0.0271225)
(-0.0481232 2.48589 -0.191403)
(0.00382784 2.47933 -0.104681)
(-0.0152302 2.65873 0.0726161)
(0.00977804 2.70089 -0.0481273)
(-0.0114277 2.5615 -0.252824)
(-0.000271483 2.51677 -0.103601)
(0.0484496 4.59876 0.544644)
(0.0775506 5.41476 0.510399)
(0.0289795 6.54645 0.582283)
(0.0135523 5.06749 0.592805)
(0.0288077 5.55414 0.615434)
(0.0417239 6.49832 0.817446)
(0.0016148 6.23108 0.831602)
(-0.0146418 6.14405 0.748443)
(-0.0702184 5.53001 0.649222)
(0.0501421 6.18706 0.374673)
(0.0116863 5.90625 0.5078)
(-0.0399972 5.22782 0.392276)
(-0.13679 5.11261 0.404188)
(-0.262971 5.40613 0.0347788)
(-0.226837 5.73413 0.679494)
(-0.0901353 6.01692 0.515153)
(0.0511728 1.86447 0.0406237)
(0.0498786 2.37474 0.0329571)
(0.0552958 2.4278 0.0829577)
(-0.0906595 2.65689 -0.0637421)
(-0.0115899 2.5729 -0.0012348)
(0.0332338 2.54534 0.0127476)
(0.0547927 2.572 0.0752381)
(0.0062844 2.63264 0.218209)
(-0.188333 3.00934 0.256608)
(-0.0330718 2.78987 0.223573)
(0.0226468 2.64903 0.157959)
(-0.0822197 2.66028 0.194989)
(-0.284472 2.74402 0.287998)
(-0.0623224 2.73082 0.195722)
(-0.0255469 3.19122 -0.00649232)
(-0.0754707 2.98396 0.147455)
(-0.0303812 2.81066 0.0169662)
(0.0441919 2.61779 -0.0183141)
(0.0185766 2.93195 -0.0510471)
(0.0251091 3.04082 -0.160456)
(-0.0296986 2.78752 -0.0539707)
(-0.0346253 3.02356 0.093285)
(-0.0340977 3.21966 -0.00549935)
(-0.025282 2.87568 0.074074)
(-0.0291992 2.83615 0.0969362)
(-0.0870017 2.84582 0.01369)
(-0.0454498 2.80178 0.0624371)
(0.0243307 2.80977 0.054631)
(0.0287849 2.83233 -0.0181167)
(0.0444868 1.95947 -0.0221286)
(0.0881562 3.42434 -0.0922206)
(-0.0335122 2.59902 0.0878529)
(-0.067881 1.82536 0.0481923)
(-0.0251869 2.67286 0.0934821)
(0.232912 4.52375 0.00840107)
(0.432223 4.13461 -0.537992)
(-0.0573752 5.20851 0.705225)
(0.503007 4.74063 -0.747943)
(0.217119 4.91647 -0.318706)
(-0.124121 4.97277 0.210228)
(0.147354 4.6685 -0.379104)
(-0.116707 3.94851 0.328576)
(0.0815903 4.55151 0.660899)
(0.143182 4.28579 0.316857)
(-0.296614 5.02799 0.663895)
(0.068579 4.7299 0.335405)
(-0.343118 5.49888 0.571391)
(0.231724 5.12576 0.158084)
(0.147943 4.74114 0.520703)
(0.179558 4.53662 0.100277)
(-0.0950235 5.59316 0.209035)
(-0.0253852 4.83716 0.459524)
(0.0296424 5.52273 -0.339936)
(-0.0263812 5.14402 -0.0798857)
(0.101178 5.32111 0.224423)
(0.110793 5.97758 -0.198922)
(0.0145299 5.49086 -0.288857)
(0.070567 5.96818 -0.486618)
(0.0122421 5.85308 -0.429597)
(-0.076514 5.39868 -0.28685)
(-0.0440757 5.37562 0.0987821)
(-0.133678 5.28991 -0.136331)
(-0.0524872 5.44822 0.299556)
(0.0988627 5.52928 -0.205837)
(-0.0551854 5.63394 -0.275872)
(0.0939245 5.46362 0.607991)
(0.0422998 5.61186 -0.246187)
(-0.0418961 5.41359 -0.114189)
(-0.125434 5.19518 0.0174906)
(0.0675733 4.2766 -0.157587)
(-0.013163 4.27629 -0.16519)
(-0.0427642 3.99278 -0.0624336)
(-0.0222181 3.96381 -0.0469201)
(-0.0281395 3.96807 -0.209379)
(-0.0368153 3.58811 -0.00425889)
(-0.0606725 3.42946 0.188243)
(0.00358849 2.21364 0.42181)
(0.0134208 2.19027 0.50556)
(0.0028829 2.01961 0.484518)
(0.00720972 1.50174 0.462712)
(0.0366055 1.81791 0.431491)
(-0.000961012 1.68317 0.52043)
(0.0203861 1.84924 0.502645)
(0.00459211 2.02821 0.540698)
(-0.0109028 1.81856 0.531793)
(0.0621338 1.37468 -0.122802)
(0.160079 1.35035 -0.325962)
(0.0176983 1.32031 0.00441112)
(-0.0421578 1.07032 -0.0292614)
(0.0472781 1.05904 -0.0236924)
(0.144001 1.24494 -0.228852)
(0.261955 1.00471 -0.236037)
(-0.0463822 0.11482 -0.19791)
(-0.0719001 0.392768 -0.21908)
(-0.0203938 0.655745 -0.0344451)
(0.144782 0.633943 -0.489897)
(-0.0284551 0.166772 -0.451394)
(-0.0116137 0.444425 -0.211209)
(0.0133632 0.646245 -0.0294826)
(-0.00569271 1.12181 -0.925004)
(0.0340707 0.978533 -0.510759)
(0.0844097 1.07513 -0.54567)
(-0.294336 0.65689 -1.17634)
(0.056011 0.687483 -0.861555)
(0.0653848 0.811207 -0.972588)
(-0.201871 0.720379 -1.40197)
(-0.00831523 1.34939 -2.83873)
(0.064033 1.90657 -2.72151)
(0.0432059 1.69278 -2.96385)
(-0.152722 1.55154 -2.45385)
(-0.0726784 1.92303 -2.24274)
(0.226542 0.926757 -3.16366)
(0.124627 0.895112 -3.08359)
(-0.00517176 0.530615 -2.58282)
(0.0440743 0.388479 -3.06161)
(0.228602 0.228832 -3.18928)
(0.0821394 0.676164 -3.2921)
(0.250037 0.5255 -3.2533)
(0.224188 0.597648 -2.50121)
(0.43207 -0.14418 -1.56555)
(-0.0427817 -1.57851 -1.71537)
(0.492276 -1.79479 -2.53138)
(0.362872 -2.95921 -2.09379)
(0.709027 -1.48954 -2.09632)
(1.0568 0.383143 -2.97031)
(0.387167 -10.3168 1.67222)
(0.583427 -12.5719 3.74816)
(0.0407866 -14.3429 5.36545)
(-0.237214 -12.617 2.79364)
(0.272772 -15.4955 4.81435)
(0.469443 -12.8181 3.40929)
(-0.245254 -10.9854 0.95941)
(0.0573097 -0.183284 -1.07587)
(0.0144957 -0.124395 -0.812421)
(-0.0226356 -0.00155424 -1.08658)
(0.0306434 -0.254309 -0.779381)
(-0.0187585 -0.124047 -0.7995)
(-0.0445662 -0.0440037 -1.01857)
(0.032563 -0.245704 -0.923043)
(-0.00255875 0.127356 -0.756459)
(-0.00422341 -0.0184619 -0.747999)
(-0.00947965 -0.0754162 -0.639739)
(0.0439443 0.245793 -0.764781)
(0.0398806 0.258241 -0.798924)
(0.0451557 0.204031 -0.752395)
(0.0367212 0.214972 -0.790209)
(0.0166904 0.0902165 -0.776226)
(0.0492542 0.147234 -0.693479)
(-0.020579 0.176852 -0.649068)
(0.00337019 0.242078 -0.608257)
(-0.00873647 0.283822 -0.694596)
(0.0227841 0.271603 -0.628938)
(-0.00814583 0.231166 -0.635326)
(0.00768571 0.307014 -0.678142)
(-0.00298202 0.274141 -0.669647)
(-0.108684 -0.181919 -0.25967)
(-0.0233253 -0.0598705 -0.227164)
(0.0153349 0.0846952 -0.392648)
(0.0343284 0.149367 -0.50772)
(0.0121109 0.180298 -0.436468)
(-0.0195788 0.0795937 -0.380427)
(-0.0333251 -0.0126529 -0.425061)
(-0.0381035 0.38062 -0.454439)
(-0.125248 0.209922 -0.45059)
(-0.0290064 0.519491 -0.515245)
(0.248572 0.541373 -0.244422)
(0.0796444 0.262335 -0.286514)
(0.300026 0.726652 -0.18245)
(0.0690268 0.397016 -0.133095)
(-0.0374427 -0.0705122 -0.445732)
(-0.10912 -0.166046 -0.384079)
(-0.0110052 -0.208403 -0.310748)
(-0.0500956 0.29026 -0.358576)
(-0.000381823 0.275812 -0.413361)
(-0.124735 0.0691984 -0.12421)
(-0.0315679 0.00885575 0.0328653)
(-0.0515117 0.235229 0.0657039)
(-0.0436121 0.272401 0.0561225)
(0.00496219 0.310492 0.0757841)
(-0.0294683 0.251149 0.0902017)
(-0.00692425 0.288109 0.0695871)
(0.0289091 0.3114 0.13236)
(0.0175236 0.322418 0.124321)
(0.0219312 0.369279 0.271527)
(-0.00869053 0.452702 0.204002)
(-0.000659403 0.272534 0.307147)
(-0.0600041 0.455092 0.036223)
(-0.0158365 0.336413 0.10298)
(-0.0455938 0.510948 0.0530764)
(-0.0446602 0.470472 0.13208)
(-0.0392686 0.489908 0.0373253)
(0.0179409 0.350405 0.04245)
(-0.0596255 0.599241 0.0138357)
(-0.083554 0.596126 0.0489535)
(-0.00253409 0.543233 -0.0372537)
(0.0164373 0.529629 -0.0196343)
(0.0419052 0.540893 0.0157627)
(0.0126381 0.555693 -0.0287878)
(0.0384498 0.578787 0.0134828)
(-0.0565913 0.61412 0.0287119)
(-0.0336187 0.601782 0.013809)
(0.0207765 0.66902 0.113923)
(0.015325 0.704155 0.0989774)
(0.0272714 0.542542 0.0186464)
(-0.0616676 0.688084 0.0122427)
(-0.0679499 0.633951 0.0290914)
(0.004081 0.686228 0.0999307)
(0.00916225 0.868669 0.110976)
(-0.0338474 0.727626 0.126715)
(-0.0264137 0.794735 0.105811)
(0.0113792 0.562886 -0.0114033)
(0.1341 0.320278 -0.0758249)
(-0.0314151 0.598958 0.118321)
(0.115054 0.349035 0.0970606)
(-0.0329931 0.728437 0.098605)
(0.00597539 0.794084 -0.0516719)
(-0.00753089 0.74858 0.0500983)
(-0.159002 1.04134 -0.0763181)
(-0.0222506 0.944212 0.0806409)
(-0.0201529 0.579656 -0.00533016)
(0.0265776 0.930997 0.0947343)
(-0.0444331 0.806477 0.00445714)
(-0.102977 0.951574 -0.0120925)
(0.0522133 1.05271 -0.0211737)
(-0.0310722 1.03257 -0.011885)
(-0.0238293 0.889409 -0.00756795)
(0.0643047 1.13612 0.0122099)
(0.118965 1.16365 0.0387106)
(-0.0292782 1.69394 0.432002)
(-0.0574747 1.52363 0.664039)
(-0.0194161 1.40178 0.721036)
(0.0337815 1.64932 0.234511)
(0.0828017 1.64902 0.488995)
(0.138649 1.43152 0.136064)
(0.114625 1.4224 0.372817)
(0.0496196 1.04822 -0.0144505)
(-0.0191776 1.0014 0.0469889)
(0.0499828 1.03645 0.114005)
(0.132212 1.12038 0.177751)
(0.126433 1.16855 0.0600749)
(0.00587417 1.12121 -0.158453)
(-0.018992 1.02257 -0.000529822)
(0.00907444 1.02767 0.0270689)
(-0.079684 2.54711 0.554819)
(-0.725276 2.46255 0.309711)
(0.124209 2.02445 -0.481612)
(0.444454 3.2499 1.05257)
(-0.517124 3.33918 0.000194301)
(-0.0540426 2.52535 -0.716904)
(-0.106273 1.9698 -0.533822)
(0.213234 1.18777 0.109237)
(-0.0724696 1.69191 -0.38943)
(0.0188286 1.2936 0.113858)
(-0.163294 1.99814 0.0459545)
(-0.0134095 1.69827 0.208056)
(0.0880564 0.75766 -0.568071)
(-0.0874843 0.870738 -0.883233)
(0.00894054 0.773977 -0.45486)
(-0.0764687 1.42824 -0.261669)
(0.0344271 1.40502 -0.39444)
(-0.0180016 1.63518 -0.635318)
(0.029401 1.22089 -0.483346)
(-0.0112791 0.134366 -1.96374)
(-0.347065 0.0912552 -1.73224)
(-0.326168 -0.11812 -1.53813)
(0.126811 0.112646 -2.65173)
(0.0441679 0.0561104 -2.73194)
(-0.033111 -0.0750272 -2.88602)
(-0.0381267 -0.0890568 -2.86774)
(-0.0427425 -0.0326916 -2.95599)
(-0.057502 0.074342 -2.81299)
(0.021835 0.0565456 -2.80754)
(0.0430691 0.15392 -2.43404)
(0.242085 -0.200223 -2.68132)
(-0.0108307 0.338457 -2.45285)
(0.0203637 0.221355 -2.66249)
(0.042827 0.0813422 -2.62982)
(0.0317065 0.148341 -2.62987)
(-0.0343505 0.270113 -2.62801)
(0.0490165 0.0579771 -2.59951)
(0.0160539 0.170749 -2.63075)
(0.000367775 0.145675 -2.20174)
(0.0867995 0.0213733 -1.45807)
(-0.133536 0.15109 -2.33361)
(-0.0366938 -0.0841951 -2.85346)
(-0.0346873 -0.0412685 -2.83175)
(-0.0318032 0.0338595 -2.21267)
(-0.0575438 0.048133 -3.01218)
(-0.114342 -0.068675 -2.98754)
(-0.0730329 0.00491918 -2.75676)
(-0.111034 0.091451 -2.82856)
(-0.0584789 0.0283748 -2.94191)
(-0.0851781 -0.0112443 -2.91823)
(0.0464881 0.0690119 -2.5187)
(0.0716149 0.113481 -2.72577)
(-0.0221814 -0.0570855 -1.79381)
(0.00725275 0.0345269 -2.77791)
(-0.00120777 0.0349643 -2.83147)
(-0.0366523 -0.0824739 -2.67429)
(0.00341374 0.00834226 -2.78641)
(0.0483846 0.0451878 -2.65568)
(-0.0072727 0.0147877 -2.74941)
(-0.0182921 0.131946 -2.83439)
(0.0416278 -0.0133187 -2.7382)
(-0.0118225 -0.0568848 -2.71495)
(-0.000582592 -0.129682 -2.5864)
(0.0286334 -0.0249246 -2.65107)
(-0.0825693 0.0526561 -2.72921)
(-0.0505803 -0.0337934 -2.68778)
(0.0229949 -0.0743161 -2.57638)
(0.0245269 0.029115 -2.81269)
(0.113647 0.0877507 -2.89907)
(-0.010199 0.0139581 -2.63512)
(-0.088082 0.0754771 -2.75518)
(-0.0498471 -0.0297196 -2.93051)
(-0.0940772 -0.0172308 -2.89677)
(-0.0856907 -0.0196909 -2.88416)
(-0.0237049 -0.122535 -2.40368)
(-0.00546005 -0.172933 -2.5564)
(-0.0324608 -0.276575 -2.252)
(0.0335539 0.139337 -2.78793)
(0.0189077 0.0786278 -2.69251)
(0.0460117 -0.00458901 -2.55519)
(0.107276 0.174843 -2.69692)
(0.0730505 -0.0600016 -2.51068)
(0.0350766 -0.14569 -1.45744)
(0.0256032 -0.0278273 -3.16385)
(0.0719389 -0.240725 -2.8209)
(0.0398293 0.0423383 -2.94909)
(0.0855047 -0.140082 -2.34736)
(0.0464546 -0.0922499 -2.58775)
(0.0950598 0.0596799 2.71525)
(0.10399 -0.0712124 2.13509)
(0.0411384 0.555314 2.50118)
(0.164202 0.167842 1.34624)
(-0.0511909 -0.168174 1.2825)
(-0.0129408 0.199855 1.84456)
(-0.0587032 -0.0983038 1.39528)
(-0.0329241 -0.693041 0.384534)
(0.00571148 -0.72571 0.440364)
(-0.0250836 -0.706872 0.262139)
(0.0423747 -0.988416 0.78554)
(0.00820486 -1.10056 0.656017)
(-0.0536568 -0.79736 0.438553)
(-0.0767761 -0.819501 0.559199)
(-0.0466711 -0.54535 0.349516)
(-0.0226424 -0.469698 0.168849)
(-0.0431168 -0.427389 0.410323)
(0.0104729 -0.51228 0.153609)
(-0.0685984 -0.474851 0.397115)
(0.0932443 -0.201349 0.723108)
(0.0579088 -0.16075 0.611294)
(0.213007 0.114042 -0.130377)
(-0.0209669 -0.0614423 0.214708)
(0.304757 0.325845 -0.424041)
(-0.0865802 0.71969 -0.0471213)
(0.0650118 1.11033 -0.304155)
(-0.262426 1.0273 -0.134448)
(0.175514 1.42448 -0.496116)
(0.515696 1.16393 -0.830547)
(0.498763 0.554312 -0.401362)
(-0.121013 0.000989874 0.0835883)
(-0.0335621 0.0155665 0.201624)
(-0.065869 -0.318266 -0.146405)
(0.176252 -0.112063 0.011267)
(-0.0269191 -0.08766 -0.00112608)
(0.222506 0.0547781 0.1359)
(-0.0944975 0.010729 0.082039)
(0.0411866 0.157214 0.266994)
(-0.143588 0.0643983 0.0728699)
(-0.0461692 -0.120884 -0.349605)
(-0.0645169 0.532908 -0.720156)
(-0.103477 0.695953 -0.953505)
(0.239124 -0.650996 -0.242734)
(0.267074 0.375812 -0.300757)
(0.298257 -0.0401253 -0.171832)
(0.240225 0.483323 -0.519636)
(-0.157735 1.68932 1.71894)
(-0.0469966 2.36532 1.72115)
(-0.169921 2.14534 2.66748)
(-0.144524 2.93251 1.0141)
(0.377409 2.98222 1.28028)
(-0.0224883 2.65253 1.82926)
(-0.396875 2.51316 1.15746)
(-0.555671 -0.293361 2.54816)
(-0.718382 -2.06653 3.66923)
(0.0703764 1.71929 1.93212)
(-0.676326 -0.846689 3.23469)
(-0.30359 -2.94147 4.20448)
(-0.0917942 -1.57315 3.68727)
(-0.0743834 0.763077 2.0175)
(0.169683 2.60616 -0.752147)
(0.1876 3.09245 -1.41557)
(-0.156299 4.05033 -1.63666)
(-0.141505 2.95964 0.445014)
(-0.204185 3.33233 -0.382097)
(0.0382 3.03761 -0.254213)
(-0.00088087 3.66497 -0.554623)
(0.0100787 3.42455 -0.325641)
(-0.0902027 3.82485 -0.0571738)
(0.0520674 3.71418 -0.266319)
(0.066808 4.00494 -0.358269)
(-0.0231085 3.7968 -0.146825)
(-0.0929521 4.30301 0.255798)
(0.0562392 4.76557 0.583184)
(-0.199943 4.09866 0.132093)
(0.0628853 4.90436 0.800708)
(0.0760193 4.95763 0.729953)
(-0.0436741 4.50448 0.31739)
(0.000307206 4.53728 0.461626)
(0.108561 2.04679 0.138139)
(-0.141936 2.07784 0.311063)
(-0.0670126 2.62148 0.361874)
(0.0686249 1.89416 0.277689)
(0.0913317 2.39351 0.00910069)
(0.0331916 2.83357 0.327017)
(0.12282 2.97104 0.703718)
(-0.0116582 1.49763 0.0502775)
(-0.0437292 1.93337 0.0738242)
(-0.0578141 1.86303 0.091835)
(-0.0268427 2.27667 -0.0291242)
(-0.0259614 2.11171 -0.00609354)
(-0.0244176 2.14112 0.0372059)
(-0.0189949 2.03713 0.050065)
(-0.0404039 1.81466 0.0634545)
(0.0698375 2.08887 0.123146)
(0.0513795 1.96874 0.113902)
(-0.0240011 1.80926 0.0867895)
(-0.0741899 1.78193 0.165664)
(-0.0440904 1.92312 0.109465)
(-0.0897842 1.89475 0.13353)
(0.00994559 2.04084 0.00379343)
(0.0474148 1.65115 -0.018596)
(-0.0265113 2.08873 0.0650019)
(-0.0112876 2.13556 -0.0107055)
(-0.0324743 2.06582 -0.0425688)
(-0.0578377 1.95016 -0.105763)
(-0.0431911 2.0621 -0.0834856)
(-0.0533656 2.22672 -0.043463)
(2.58316e-05 2.02841 0.0179652)
(0.0226897 2.14651 0.0839674)
(-0.0328298 2.07981 0.144895)
(-0.105592 2.22972 0.206494)
(-0.00274262 1.99498 0.0570157)
(0.00225525 1.66283 -0.00719011)
(0.0495742 2.40337 0.0430161)
(-0.00337239 3.0405 0.263893)
(0.00996197 2.71051 0.107181)
(-0.0205068 2.41617 0.0930577)
(0.0787501 2.22397 -0.0225478)
(-0.00200796 2.12682 0.0441516)
(0.0412025 2.31653 0.0331511)
(0.020322 2.67993 0.136906)
(0.021536 2.64948 0.0287372)
(-0.0152305 2.68021 0.0894951)
(-0.00232281 5.72903 0.303623)
(-0.00158601 5.69616 0.264323)
(0.0699458 5.7072 0.280987)
(0.0518344 5.67886 0.142468)
(0.0549042 5.60778 0.150553)
(0.101521 5.68553 0.204835)
(0.08336 5.68873 0.171968)
(0.0639528 5.46507 -0.313084)
(0.110482 5.34563 -0.336967)
(-0.00893597 5.72762 -0.147434)
(-0.0310815 5.67801 -0.0316689)
(0.0345028 5.59834 -0.0619623)
(0.106342 5.36593 -0.263488)
(0.0487099 5.42363 -0.259063)
(0.0216115 3.9244 0.0719602)
(0.047252 4.36071 -0.129187)
(-0.0230288 3.98211 0.00820809)
(-0.04713 3.4932 0.217081)
(0.0299824 3.63285 0.109042)
(0.0564521 3.80613 0.0115609)
(-0.129226 3.53755 0.246022)
(0.00771094 4.18835 -0.187745)
(-0.0236267 4.46141 -0.0513368)
(-0.0683534 4.18927 -0.0829691)
(-0.0404788 2.75338 0.328831)
(-0.00438243 2.94868 0.344359)
(0.00500655 2.69974 0.373457)
(0.042109 2.86533 0.280485)
(0.145918 2.7445 0.248233)
(0.0835433 2.69684 0.318628)
(-0.0636319 2.83632 0.31915)
(0.00192073 3.19299 0.155221)
(-0.0445509 3.22667 0.155918)
(-0.0448193 2.7822 0.217581)
(0.00133073 2.91427 0.202227)
(-0.000863013 2.23644 0.278986)
(-0.0350331 2.56617 0.263807)
(-0.0332872 1.62824 0.244269)
(0.00403673 1.43204 0.220011)
(0.0306499 1.63443 0.284734)
(0.0206627 1.15122 0.118361)
(-0.0046533 1.37813 0.12077)
(-0.0512176 1.53664 0.153819)
(-0.00610523 0.825676 -0.0192903)
(0.0288186 0.538688 0.261609)