/*--------------------------------*- C++ -*----------------------------------*\
| =========                 |                                                 |
| \\      /  F ield         | OpenFOAM: The Open Source CFD Toolbox           |
|  \\    /   O peration     | Version:  v2012                                 |
|   \\  /    A nd           | Website:  www.openfoam.com                      |
|    \\/     M anipulation  |                                                 |
\*---------------------------------------------------------------------------*/
FoamFile
{
    version     2.0;
    format      ascii;
    class       surfaceScalarField;
    location    "0.2";
    object      alphaPhi0.water;
}
// * * * * * * * * * * * * * * * * * * * * * * * * * * * * * * * * * * * * * //

dimensions      [0 3 -1 0 0 0 0];
oriented        oriented;


internalField   nonuniform List<scalar> 
13152
(
9.38488e-07
2.02369e-05
-1.53645e-06
-1.96389e-05
1.86588e-05
-1.71352e-05
-5.85091e-07
-3.48286e-06
4.23785e-05
-3.46592e-05
3.53938e-05
-2.27105e-06
2.12006e-05
-7.54987e-05
2.85096e-05
-2.44442e-05
6.04205e-05
-1.6127e-05
-2.95721e-05
-2.83953e-05
7.40944e-05
3.9166e-07
-1.68289e-05
3.10254e-07
-2.98969e-05
7.16477e-07
7.86401e-06
5.16715e-06
-2.98601e-05
7.84046e-06
3.338e-07
-5.0727e-06
-1.54821e-05
-2.98024e-05
-8.63739e-06
-1.46586e-05
-5.13102e-06
2.8427e-05
-6.59349e-08
-8.66129e-06
8.9842e-08
-1.41901e-05
-5.34445e-07
5.6491e-06
-3.05535e-05
1.62431e-05
-2.93977e-05
2.99158e-05
2.93508e-05
-5.81336e-07
3.2945e-08
-1.51813e-05
-2.98937e-05
1.24251e-07
-7.49351e-05
3.26302e-07
1.60066e-05
3.01929e-05
4.92214e-08
7.46265e-05
3.5833e-05
1.26793e-05
2.53606e-05
-7.38729e-05
3.24046e-07
-6.52785e-07
3.61617e-05
1.24183e-05
2.63613e-07
-1.87844e-05
7.35812e-05
7.77978e-05
2.9095e-05
-7.31075e-07
-2.93622e-05
9.98215e-07
-1.63715e-05
-2.68984e-05
7.2365e-05
1.93732e-07
-1.72964e-05
-8.0758e-06
7.99886e-06
2.70674e-07
5.28384e-06
-3.0656e-05
-4.95616e-06
-1.39434e-05
-2.90345e-05
-1.38031e-05
1.30357e-07
2.91222e-05
2.18013e-07
2.27541e-07
1.60721e-07
-6.80644e-09
-3.5578e-07
-2.41335e-08
1.00904e-07
1.68373e-07
-1.2219e-07
1.44471e-07
-2.0682e-07
-7.01445e-08
4.18471e-07
-7.03049e-08
-1.49893e-07
-1.04474e-08
-6.92429e-08
-8.41804e-09
3.20576e-08
1.00727e-07
-6.5861e-08
2.52956e-08
-1.70856e-07
-3.02801e-39
1.66069e-38
-8.07986e-39
-1.36763e-38
5.22802e-38
-3.67165e-38
-4.07673e-38
-1.95132e-38
-8.35398e-38
2.27643e-38
8.62654e-39
-1.09033e-37
5.22478e-40
-7.29407e-40
-5.51621e-38
-1.53208e-43
-2.21983e-37
-5.07129e-35
-1.02521e-34
-1.8361e-35
1.2515e-34
-4.45709e-36
-1.20284e-34
-8.4147e-38
-3.80162e-34
-5.0601e-36
7.15713e-34
4.87657e-34
-2.30765e-33
2.92636e-34
1.85163e-35
-2.04893e-34
3.66966e-34
-4.26379e-36
8.47946e-30
8.02782e-30
7.67852e-30
-2.79502e-29
-4.9776e-32
5.15991e-30
5.46924e-31
3.60574e-30
-2.72038e-32
-6.44359e-31
2.99538e-30
4.73402e-31
4.81155e-30
-2.56946e-31
-2.99761e-30
6.8482e-30
-1.28433e-31
-1.94019e-08
-6.98013e-08
-2.04574e-08
1.18136e-07
-8.84718e-09
-1.08702e-08
-3.68589e-10
-1.84557e-08
-6.48781e-08
1.87963e-08
-1.37513e-08
-1.58483e-08
-2.07e-07
2.37242e-07
-8.04389e-08
-1.09456e-07
-1.56273e-07
3.26334e-10
-7.49338e-11
-3.93889e-10
6.67183e-11
-7.07163e-11
-2.51193e-11
3.84653e-10
-4.75664e-11
-1.11687e-10
7.2369e-10
3.44876e-11
-1.16171e-09
3.75859e-10
3.47797e-10
-7.42729e-11
4.18674e-10
-8.39712e-11
1.58888e-07
1.08628e-07
-1.9153e-07
-2.0475e-07
-1.05427e-07
3.98344e-09
1.53853e-07
1.49788e-07
-2.88174e-07
-5.58738e-07
1.27004e-07
5.07669e-07
1.96449e-07
-1.36811e-06
-1.15004e-07
1.46202e-07
-2.83156e-07
-1.92865e-08
-2.70422e-07
-1.6212e-08
2.85675e-07
1.21057e-08
-2.30585e-08
-4.5719e-09
-1.15969e-07
-2.48868e-07
1.53904e-08
-9.86333e-10
-2.58293e-08
1.60547e-08
-4.98166e-09
2.3743e-07
-3.39994e-07
2.16628e-07
-4.56009e-08
1.52286e-07
-4.32533e-08
-6.34193e-08
1.82134e-07
-5.79568e-09
-2.21775e-07
1.5579e-07
1.78678e-07
-4.93066e-08
3.15815e-07
-2.7227e-07
-7.34346e-08
-1.90513e-08
-4.95188e-07
9.67086e-07
-3.86589e-07
-4.71432e-07
4.54591e-08
2.61537e-07
1.65182e-07
3.08104e-07
7.37499e-09
-7.83505e-07
3.24067e-07
2.82935e-08
-8.62581e-07
1.12576e-06
-1.69531e-06
1.1425e-06
-2.43844e-06
-4.76427e-63
6.28401e-11
4.27811e-12
-6.07766e-11
0
0
0
1.9973e-12
6.18719e-11
3.75679e-15
1.73081e-14
-2.02554e-14
1.14007e-15
2.66112e-15
-4.03017e-12
6.19991e-12
4.59758e-13
1.67329e-05
9.42988e-07
-1.77263e-05
-5.22608e-09
-2.24603e-05
-2.58399e-05
6.34393e-05
1.26059e-06
-2.29326e-05
-2.54984e-05
2.58517e-05
5.62667e-07
1.9601e-05
-6.94969e-05
-1.47926e-06
1.40282e-06
-8.31009e-09
-9.05882e-23
-1.69739e-76
2.47143e-20
2.18786e-20
-1.24499e-76
1.49197e-21
1.9251e-21
0
0
3.01947e-15
4.45812e-15
-4.19663e-15
1.30519e-17
4.03361e-15
3.4241e-15
5.34375e-15
4.49167e-15
-6.641e-21
1.20126e-19
6.84054e-20
-1.82808e-19
2.63395e-20
-3.35728e-20
-2.53948e-21
1.71409e-21
1.45876e-19
-3.90264e-19
1.59273e-19
2.93188e-19
-1.64797e-21
-5.89875e-19
6.83735e-20
-1.33127e-19
2.23158e-19
-5.95647e-18
-9.95405e-19
1.78325e-19
7.26264e-18
-2.64696e-19
3.51089e-18
-7.48841e-18
-8.07882e-19
-6.2902e-20
-1.61164e-17
7.21811e-18
1.40061e-17
-8.91301e-20
-2.16186e-17
1.71135e-18
-2.45352e-18
9.7609e-18
-6.2793e-19
6.22539e-19
-1.85483e-18
1.84247e-18
1.65717e-18
-2.03463e-18
-2.49926e-19
-6.56453e-19
2.95744e-18
7.6742e-19
3.25677e-18
-5.59657e-18
8.26484e-19
-2.62361e-20
3.31116e-19
-1.87741e-20
1.93008e-18
2.4177e-17
6.64126e-18
-2.28396e-17
-2.49397e-18
-2.15881e-16
2.79125e-17
2.26764e-16
1.40841e-16
-2.87519e-16
1.08954e-17
-6.21287e-18
-2.4684e-17
-3.73406e-17
8.38244e-17
-6.30838e-16
3.28183e-16
5.15468e-16
-1.61484e-17
-7.91625e-16
-2.09092e-17
3.27319e-16
-4.03248e-17
5.08809e-17
2.20012e-17
-7.65364e-17
-8.48128e-18
-1.53354e-17
-1.84042e-17
7.8772e-17
-6.47934e-17
6.50119e-17
2.86367e-17
1.25986e-16
2.53108e-17
-1.53817e-18
9.25308e-18
-7.57129e-19
6.9568e-17
3.54343e-16
7.64194e-17
-2.84302e-16
-7.82155e-17
-1.19179e-15
2.50141e-17
1.67861e-15
-1.86561e-15
1.21667e-15
3.62196e-16
-3.92547e-16
-9.52439e-17
-5.09757e-16
1.03841e-15
8.36674e-15
-1.77979e-16
-8.42665e-15
2.85891e-15
7.55447e-15
-1.49562e-15
3.98809e-15
-1.84522e-15
-6.00237e-15
2.36052e-15
-1.25912e-15
-1.02337e-15
1.8101e-14
-1.10365e-14
-4.23801e-15
2.4965e-14
2.21216e-14
-1.51608e-15
2.02436e-15
-2.263e-15
4.98147e-15
-1.9929e-14
3.48651e-15
-3.10165e-14
7.83927e-14
-1.47228e-14
4.21056e-14
-1.72383e-15
-8.30142e-15
-2.23326e-14
1.27821e-12
2.54493e-12
4.25002e-13
-8.98153e-12
2.6373e-14
1.2909e-13
3.37268e-14
3.45138e-13
3.0249e-13
-3.40755e-14
-2.63679e-14
5.57368e-14
-1.2638e-13
-3.40201e-13
2.31454e-13
-1.08057e-12
1.80552e-12
-2.82162e-11
-2.38664e-13
9.26758e-12
-5.00732e-11
5.20287e-12
2.71648e-11
-4.25398e-13
-1.21943e-10
8.3099e-12
-8.76396e-12
-2.00757e-11
4.64648e-14
5.21249e-12
-2.33974e-11
1.41493e-11
-5.74985e-11
-1.72497e-10
-9.49928e-11
7.69804e-11
9.34229e-11
4.29958e-10
3.21872e-10
-1.08938e-09
2.32919e-10
-3.76346e-10
2.24052e-11
-1.18941e-10
-4.26463e-10
4.03739e-10
2.76918e-10
-3.26167e-10
2.8065e-10
3.06789e-10
1.67528e-10
9.42494e-11
-7.3778e-10
-2.91667e-11
1.35709e-10
1.38256e-10
1.06627e-10
-4.49811e-12
-2.93849e-11
-1.96355e-11
1.56871e-10
-3.37624e-11
-3.25548e-12
3.71155e-11
-1.49778e-12
1.392e-10
2.68875e-11
-2.8797e-11
-1.48588e-12
5.58709e-12
-1.56699e-10
2.45084e-11
2.04287e-10
1.54781e-11
-1.88402e-10
4.70308e-12
-4.15377e-12
-2.41175e-12
2.05269e-12
5.0054e-12
-3.17833e-11
6.43904e-11
-2.08153e-11
-1.56102e-13
-1.71079e-13
-5.63326e-13
4.35921e-13
-1.99052e-13
-3.81741e-12
-1.75815e-13
-1.11015e-12
3.06475e-12
-1.56044e-12
-9.38233e-12
1.37312e-13
1.25821e-12
-8.21951e-13
-2.28453e-14
-6.04832e-12
-1.5034e-15
1.59893e-15
1.46732e-15
-4.3512e-15
3.79525e-15
6.30552e-16
-6.23017e-15
1.32253e-15
3.25065e-15
-1.32412e-14
1.1254e-15
9.81284e-15
-1.97058e-15
7.65893e-15
-9.43612e-15
9.34235e-15
1.14599e-17
-2.11003e-16
1.25657e-16
-2.59782e-18
-2.64349e-16
1.11287e-17
1.99261e-16
4.2166e-16
-9.24171e-16
2.28924e-16
-2.21215e-16
-4.82986e-17
-6.72789e-17
4.29851e-16
-1.26595e-17
1.55334e-16
-3.48991e-19
-2.48609e-17
-3.17303e-18
1.3734e-17
4.21631e-18
2.25076e-17
2.39727e-17
1.55447e-17
-3.40566e-19
-2.20729e-17
-9.76617e-18
3.91745e-17
-4.02179e-17
1.43947e-17
-8.03717e-18
-5.66969e-18
2.37286e-18
-1.16226e-17
-3.96669e-17
5.67939e-18
4.34326e-18
1.4317e-17
-9.44458e-19
-1.65579e-19
2.32921e-19
6.25322e-19
1.11448e-18
8.60914e-19
9.0693e-19
-1.09482e-20
1.47656e-18
-3.11468e-18
-9.11578e-19
2.83772e-18
3.35964e-18
-5.80024e-18
3.23316e-18
3.87683e-23
9.50111e-24
-3.10236e-22
-2.49298e-23
-3.33672e-23
-4.27036e-23
5.0672e-23
-1.96712e-22
2.10445e-23
4.12774e-22
2.27959e-22
-2.03569e-21
2.09089e-22
-4.70469e-22
-2.26159e-22
1.77773e-22
-6.01885e-22
1.00331e-07
-9.9901e-07
-8.47048e-09
9.16271e-07
-7.11592e-08
-1.13084e-07
2.87337e-07
-1.48471e-07
-8.63932e-07
1.7139e-07
6.62464e-08
-2.45906e-07
-6.41327e-08
1.23216e-07
4.43897e-08
3.14566e-08
-2.62342e-08
-9.86602e-07
1.64425e-07
5.08074e-08
-6.69347e-08
-8.68837e-07
-4.58216e-08
-1.16902e-07
1.46125e-08
1.34568e-07
-4.74312e-08
-1.69542e-09
1.41121e-08
-2.29191e-07
-5.91719e-09
6.51483e-09
2.05843e-07
-2.21592e-07
-1.72239e-08
3.06449e-08
1.58216e-07
-1.58803e-07
1.17006e-07
-7.70461e-08
1.1199e-08
-7.12717e-08
1.5115e-07
1.85825e-08
-6.7999e-08
1.07653e-08
1.22856e-08
1.7828e-08
7.62033e-09
5.37773e-09
-5.3882e-10
2.87398e-09
2.27366e-08
1.14607e-07
-4.13229e-08
-1.02117e-07
-3.51479e-08
1.32629e-07
3.43911e-09
-3.92532e-08
-2.48448e-08
-9.95081e-08
1.20719e-07
2.96487e-08
4.25854e-08
3.20428e-08
-1.81942e-08
1.17809e-08
-3.52851e-08
3.79973e-08
1.86742e-08
-4.1444e-08
2.94786e-09
-6.86319e-08
9.51006e-08
7.31189e-09
3.28661e-10
-4.96084e-08
6.43571e-09
3.41198e-09
-1.139e-08
-5.12878e-08
-4.68958e-08
-1.9224e-08
-5.45042e-08
-4.61053e-08
7.70154e-08
-5.19342e-08
-1.79345e-07
1.30171e-07
-2.76277e-08
-1.74443e-07
1.64779e-07
-1.64751e-07
-2.81268e-07
-8.55839e-08
1.4768e-07
-1.65597e-07
-7.24182e-08
-7.09545e-07
2.91177e-06
5.59538e-08
-2.99187e-06
-4.15623e-07
-8.19338e-07
-5.44121e-07
4.07765e-06
-7.3853e-07
-1.39389e-09
4.11492e-07
-5.41352e-07
-2.89219e-06
-3.84794e-07
2.19645e-07
8.18554e-07
4.38194e-07
-2.01401e-06
8.30043e-07
-7.2974e-10
-1.19791e-07
5.85501e-07
-2.24256e-07
1.92456e-11
1.80314e-11
-3.67355e-11
-3.80555e-11
-4.51699e-11
-1.67436e-10
1.6494e-10
-1.0237e-09
8.65791e-10
-3.39129e-11
-7.66541e-11
-2.10037e-12
6.89602e-11
-1.7935e-10
-6.53626e-10
3.19761e-10
-1.91217e-09
-9.65814e-10
-1.85638e-09
-6.25064e-10
3.82927e-09
9.22729e-10
3.61568e-10
-8.05264e-10
-2.13661e-09
1.229e-09
-2.73139e-09
1.98248e-09
2.48744e-10
9.99111e-10
-5.45281e-09
2.72761e-09
-4.03409e-09
4.00612e-09
-1.0126e-10
-3.08426e-09
1.01161e-09
1.29927e-09
-5.60906e-10
-3.29229e-11
1.17683e-10
2.59741e-09
-4.97255e-10
-1.59572e-09
2.09659e-09
-1.72882e-09
1.6658e-09
-3.93861e-09
-5.34913e-10
3.40858e-09
-1.85413e-09
-3.70482e-09
1.29245e-09
-3.28297e-10
1.1229e-09
1.64191e-08
2.39067e-08
1.38044e-08
-5.71393e-08
9.55488e-08
1.60542e-07
-2.07113e-07
1.9348e-08
9.77746e-08
8.89822e-09
5.25975e-09
3.12236e-09
2.84067e-08
1.41489e-07
6.71288e-08
-5.21332e-08
9.01763e-09
-1.70048e-08
1.83974e-07
-8.23407e-09
2.07245e-08
-5.40562e-08
2.62608e-08
1.85072e-07
-1.36373e-07
-7.50538e-08
-2.35019e-08
1.28362e-07
-7.87737e-08
-2.08276e-08
1.8123e-07
-1.82698e-07
8.42208e-08
2.26994e-07
8.38175e-08
-4.03822e-07
3.4569e-07
-2.80985e-07
6.11908e-07
3.86509e-09
-3.51076e-07
1.01626e-07
9.90151e-08
3.55323e-07
-4.42342e-07
6.69303e-07
-2.93316e-07
1.25261e-06
1.89367e-07
-2.17097e-07
3.9592e-07
-7.37978e-08
2.87375e-07
-2.88582e-07
3.22828e-07
-4.29879e-07
-1.19179e-07
-8.4175e-08
6.08245e-08
1.87212e-07
-7.47843e-09
-4.57982e-08
-2.17792e-08
-3.47338e-08
-6.36946e-08
2.24291e-07
-1.75855e-07
4.19054e-08
2.91239e-08
5.06293e-07
1.73028e-07
-3.39685e-07
3.32427e-07
-1.55317e-08
-1.60308e-08
-7.10506e-10
3.01773e-08
-4.45502e-09
-1e-08
-2.92197e-09
-2.21086e-08
-2.21834e-09
5.25566e-08
4.07848e-09
-8.5307e-08
1.31961e-08
2.62261e-08
1.94507e-08
-2.22757e-08
3.5925e-08
1.57719e-08
2.10214e-08
4.51942e-09
-3.96053e-08
5.88253e-09
-5.64743e-10
1.44895e-08
2.13911e-08
6.67145e-09
7.53954e-09
-6.12183e-09
1.65508e-11
-2.42106e-10
2.27852e-08
2.67624e-09
-3.08299e-09
-5.20879e-09
-3.04832e-09
6.3447e-09
-6.26178e-09
2.44496e-08
-4.9914e-09
-6.5273e-12
7.14569e-12
2.20384e-11
-2.6177e-11
2.39886e-11
5.8774e-11
-7.28523e-11
6.44475e-12
1.75045e-11
2.0751e-12
-2.80123e-11
3.22584e-11
-3.63615e-11
5.1841e-11
-1.85352e-11
5.35305e-11
-3.67999e-11
4.40232e-10
5.71099e-10
7.75668e-10
-1.19928e-09
-1.84877e-10
2.51849e-10
1.25055e-09
1.14607e-09
-1.82275e-10
7.40207e-09
-8.08226e-09
2.864e-09
-2.0678e-09
1.14518e-08
1.35543e-09
-1.20402e-09
-7.39056e-09
-6.01931e-10
1.78566e-10
-2.98036e-10
9.98583e-10
-2.32961e-10
2.24873e-06
2.05533e-07
-2.00401e-06
-4.08478e-08
-4.37763e-06
-1.58271e-06
8.4747e-06
-5.91516e-06
2.3026e-06
1.53245e-06
6.75196e-06
-9.55357e-06
1.67606e-06
-1.00945e-08
1.96391e-07
-9.18874e-09
1.59637e-06
1.08287e-06
-3.78772e-05
-1.38098e-06
3.82212e-05
-3.92603e-05
3.72488e-05
3.11726e-06
3.57634e-05
-0.000112867
4.03318e-05
-3.70089e-05
-4.6884e-06
-3.70257e-05
0.000115608
-2.69137e-06
2.89907e-06
-3.91196e-06
7.05294e-24
1.17607e-22
-3.28408e-22
-9.49065e-24
7.23356e-22
-1.28323e-21
3.19928e-23
-2.45861e-22
8.59473e-22
4.81083e-22
1.85908e-22
-1.24044e-21
2.60294e-22
-1.13599e-25
1.7644e-21
-3.4044e-21
1.45257e-21
7.62693e-25
5.04236e-25
2.43521e-25
-1.95629e-24
5.81679e-26
1.49895e-24
-5.01992e-24
2.57185e-27
1.91945e-25
-1.18907e-24
2.38689e-25
1.50344e-24
8.60528e-25
-2.29976e-24
4.73226e-25
-5.80339e-29
6.70801e-25
1.31409e-28
1.4971e-27
-1.47846e-28
-3.91423e-27
1.94435e-27
-3.90228e-27
3.11824e-28
-1.07969e-27
3.48701e-27
-5.67365e-27
3.25053e-27
-1.15785e-31
2.30374e-27
-1.45359e-26
5.0978e-27
-8.6086e-27
5.76802e-27
5.42874e-30
-3.93337e-30
-2.98062e-29
7.31348e-31
-5.17804e-29
-4.80095e-30
1.84499e-29
-7.07782e-30
-5.31423e-28
7.96853e-30
-4.26869e-29
-3.48933e-29
-2.27821e-29
4.39216e-30
-6.80223e-28
1.57305e-28
-1.99999e-28
2.09298e-28
-4.56344e-27
-3.80092e-29
7.33189e-29
-5.4092e-29
1.67684e-30
-2.37195e-32
-9.72322e-30
-1.71517e-33
-6.03528e-31
-8.9952e-31
1.20736e-30
-3.87162e-32
-6.51569e-30
-9.85968e-30
1.69288e-30
-1.36281e-33
3.2475e-30
-5.09275e-29
-1.35457e-29
5.56538e-30
-5.18725e-29
-3.02884e-33
-3.26971e-35
1.77201e-35
2.00056e-34
6.95404e-33
6.81966e-33
-5.52087e-32
1.07797e-33
1.21718e-35
9.84851e-35
-6.29557e-34
1.78441e-35
-8.94445e-35
1.2487e-34
4.68836e-34
1.37954e-33
5.22515e-34
5.0952e-35
7.77311e-34
-6.17749e-35
-8.54544e-33
3.49232e-34
-1.91007e-33
2.11666e-35
-2.58001e-34
4.05165e-34
-8.44418e-33
1.37759e-33
9.0148e-33
-8.77496e-32
9.19356e-35
-1.541e-33
-2.85517e-36
-1.16447e-40
-1.20987e-38
2.33706e-41
9.98389e-40
-1.98119e-38
4.16855e-39
-1.23566e-38
1.68514e-38
-1.74758e-37
1.92846e-40
-1.44162e-39
1.9314e-41
-2.83582e-40
4.93465e-40
-1.07838e-39
1.53914e-39
2.52731e-39
1.22976e-36
2.90554e-36
8.61384e-37
-1.38031e-35
2.48364e-38
1.84515e-37
-2.1385e-38
2.49864e-37
1.05443e-38
1.53816e-37
9.1352e-37
-1.95523e-36
1.93278e-37
-3.17056e-37
-1.76234e-37
-2.12524e-37
-1.48604e-40
-1.93406e-40
2.27104e-40
2.58181e-41
1.99287e-41
6.25848e-38
-1.27032e-35
-5.99141e-37
-4.93582e-36
-1.03446e-34
-2.9587e-38
-1.56495e-37
-1.43171e-37
3.48427e-37
-1.10143e-38
-2.703e-38
-3.83504e-39
-9.07876e-38
-6.27481e-38
4.2732e-38
-7.27721e-38
-5.929e-38
-1.89483e-36
1.95571e-36
-1.12055e-37
-8.12045e-37
-6.00628e-37
6.39804e-39
1.362e-37
-1.56191e-36
-1.0471e-38
4.04376e-38
-2.59542e-37
5.24685e-39
-5.19115e-38
7.44886e-38
2.26373e-36
2.35461e-36
-2.0488e-35
3.46594e-37
8.02938e-39
-1.71726e-38
7.42374e-37
2.03022e-38
-1.18529e-37
5.50428e-40
-6.6585e-40
-1.29628e-36
-7.62579e-38
3.43721e-36
1.13727e-37
1.84047e-36
1.09053e-36
-3.88155e-36
2.67844e-36
-1.11352e-38
-8.31422e-35
-2.97996e-36
1.22244e-34
-3.07501e-35
7.77886e-36
-1.08663e-35
-1.1936e-35
2.22944e-35
-5.07046e-35
1.43316e-35
4.6379e-35
-8.56042e-35
4.12108e-35
-1.33163e-34
-2.89713e-32
-1.51108e-31
1.79708e-35
-1.21815e-34
-2.19583e-32
-2.56428e-33
-6.3348e-32
-1.65426e-32
-6.81348e-32
-1.79563e-34
-1.37475e-33
6.0104e-35
2.6339e-34
-4.86044e-34
-3.70457e-32
-2.28294e-31
5.16036e-30
-2.8185e-30
-1.42883e-30
4.15318e-30
-1.28556e-30
-2.82066e-30
-1.44172e-28
-1.02352e-27
-7.73561e-31
2.27205e-32
-8.72257e-32
3.30678e-31
-2.01019e-30
9.33375e-29
-2.25296e-28
-8.99674e-28
4.62406e-25
-2.11697e-26
-2.52527e-22
3.66392e-23
-2.87678e-26
1.05635e-25
3.44657e-27
6.08842e-27
-7.75721e-26
1.01889e-20
-1.01672e-24
-3.21648e-20
-7.06717e-26
4.60778e-21
3.15232e-25
-5.20523e-26
-1.65573e-24
-2.22482e-26
1.40644e-25
-5.56027e-26
8.00122e-26
-1.77154e-25
-1.927e-22
-1.26288e-24
9.38886e-23
1.37575e-23
1.80982e-22
1.46838e-22
-8.10919e-22
-8.1564e-22
2.20212e-22
2.352e-20
-1.34314e-20
-4.37372e-20
-1.51447e-21
1.42293e-20
4.90444e-21
-4.67333e-20
5.07788e-22
4.2738e-19
8.89078e-20
-1.46359e-18
-5.58641e-19
-1.46437e-19
-5.0204e-19
6.87762e-19
-3.76442e-19
1.83859e-18
9.96092e-19
-7.306e-18
3.71394e-18
-8.73737e-18
-4.76832e-19
2.29678e-18
-3.10872e-19
1.99411e-20
3.22867e-20
7.84756e-21
-7.85929e-20
1.65811e-21
-7.74121e-20
2.35049e-20
1.57001e-20
2.29426e-21
1.17702e-18
-7.07912e-20
-2.56573e-18
-9.17809e-21
8.37664e-19
-1.18559e-19
9.31661e-20
-2.5295e-19
-4.18313e-17
7.76964e-18
2.33852e-17
-1.62367e-18
8.49578e-17
-1.36308e-16
4.03565e-17
-1.04234e-17
3.18138e-17
-1.65904e-19
-2.73564e-16
2.2029e-16
6.30959e-16
-5.72092e-16
8.82708e-16
1.78622e-15
-2.95971e-15
3.75414e-16
6.91593e-16
1.43512e-16
-7.6133e-16
9.52152e-16
-6.11108e-16
1.42197e-15
-3.73346e-16
1.34113e-15
-3.75357e-16
-1.61872e-15
1.39388e-15
3.99885e-15
-2.25399e-15
2.89163e-15
6.85716e-15
-9.88521e-15
2.44575e-15
3.38244e-15
1.20369e-15
-1.08389e-14
1.53233e-14
-3.74808e-14
4.89138e-14
1.86467e-14
-3.79499e-14
1.69871e-14
4.40402e-13
1.58079e-13
5.19848e-13
-8.52367e-13
-5.80807e-13
6.39559e-13
6.46971e-13
-2.48417e-12
1.47707e-12
9.92701e-12
-2.12479e-12
-7.64077e-12
-1.07305e-12
1.46328e-11
-2.46816e-12
7.30348e-12
-2.42292e-12
-2.08512e-12
-2.71434e-12
6.29794e-15
6.66329e-12
-1.46689e-13
1.88074e-12
-1.16359e-13
-2.36298e-13
-1.64726e-13
-6.52383e-13
1.55703e-12
2.01782e-12
3.83309e-14
-5.2956e-13
6.01669e-13
-6.33676e-13
3.08171e-12
-4.50311e-15
1.08585e-13
2.64616e-14
-8.08597e-15
1.20086e-13
-2.45407e-14
-1.02095e-14
1.42076e-15
3.02205e-13
-1.69285e-14
7.18376e-14
1.90153e-14
2.50242e-15
-1.38856e-14
-5.92724e-15
1.31576e-14
8.05147e-14
3.9743e-15
-2.89184e-15
7.45831e-15
-2.27735e-14
4.8173e-14
-3.70413e-14
-2.45398e-13
-2.12997e-13
5.65856e-13
-1.27001e-13
-1.01577e-13
2.00389e-13
-1.55666e-14
-3.7228e-14
-2.03704e-13
-1.06086e-15
9.10713e-14
-1.32962e-13
-1.18585e-13
6.22019e-16
-1.42658e-14
-4.24586e-14
9.8201e-08
9.77415e-08
9.72091e-08
-4.12739e-07
-4.3038e-10
5.30859e-08
7.9874e-09
3.48969e-09
3.51785e-08
6.1704e-09
-5.48991e-08
2.2873e-08
-3.84168e-08
4.97211e-08
2.47191e-09
-5.19813e-09
-1.50941e-08
1.22829e-09
-1.11601e-10
-2.14351e-09
-6.39753e-11
-2.77531e-09
-1.45681e-09
2.94318e-09
-6.87027e-09
-3.45224e-10
1.09674e-09
-6.82338e-09
9.54381e-11
-6.28371e-09
1.76798e-09
1.23233e-08
-3.96284e-08
-3.35208e-09
1.92874e-10
2.03702e-10
2.8246e-10
-1.23589e-09
3.06309e-12
6.81697e-11
5.54085e-12
4.85469e-11
6.87594e-12
-1.81356e-11
-3.41837e-11
4.5109e-11
-1.05001e-10
1.21157e-11
6.54278e-12
-6.61446e-11
-2.41082e-13
2.11516e-11
-8.21223e-11
-2.13657e-10
2.45698e-10
-6.19737e-11
-9.16664e-11
1.45834e-10
-1.48553e-10
-7.18151e-11
-4.51868e-11
-5.04434e-10
3.06516e-10
-8.98839e-11
-5.67824e-11
4.50377e-11
-7.48125e-10
-1.36164e-10
-4.02495e-09
1.50562e-09
2.10618e-09
-8.43857e-10
2.48883e-09
6.6137e-09
-1.46037e-08
8.67859e-10
2.11069e-09
1.26905e-09
-1.12943e-08
1.01001e-08
-5.29971e-09
7.64878e-09
1.24763e-08
2.20881e-08
-2.95422e-08
5.09435e-09
8.89461e-09
-3.69431e-09
1.34384e-08
-4.13888e-09
-1.23009e-08
-5.26379e-09
-2.0716e-10
1.44654e-08
1.03797e-09
-6.60137e-09
-5.53715e-09
-1.92199e-09
1.0306e-09
-9.34322e-10
-6.39289e-09
9.80269e-10
-2.55062e-09
2.6806e-09
5.39369e-10
-5.56878e-09
8.83684e-09
-5.96946e-09
9.74527e-09
-2.08831e-08
1.30483e-08
-7.43179e-08
-1.76203e-08
4.73872e-08
2.75465e-08
-1.1655e-11
1.57543e-08
-9.00382e-08
-1.31353e-08
-4.43579e-09
-5.48863e-09
-2.15333e-08
4.93585e-09
-9.70239e-09
-2.62361e-09
2.73852e-08
4.76414e-08
-1.91425e-08
3.26812e-08
1.05243e-08
-1.82789e-08
5.62634e-08
-7.10477e-09
-7.078e-09
-2.28387e-08
1.6019e-08
-1.2295e-08
1.7951e-09
8.85177e-09
7.67247e-10
-2.5722e-08
1.80629e-08
-1.12465e-08
1.19011e-08
-1.82111e-08
8.54639e-08
-5.27405e-08
8.24501e-08
-8.06939e-08
9.86984e-10
3.63775e-08
1.9399e-08
2.00713e-08
3.5197e-08
1.35842e-09
4.83692e-08
3.2239e-08
2.0445e-09
-1.28805e-08
1.00999e-07
2.55216e-08
1.79499e-08
1.48238e-08
3.20656e-11
-3.27764e-08
-1.10175e-08
2.69171e-08
6.90086e-10
-4.00273e-08
2.18239e-08
-4.21e-08
-5.05432e-10
5.70528e-09
1.20171e-08
-1.59057e-08
1.62992e-11
1.69386e-09
1.1111e-09
1.1599e-09
8.05359e-09
1.08319e-08
3.03388e-09
5.27435e-09
2.72977e-09
7.40715e-09
5.1996e-09
5.4028e-08
5.35304e-09
4.8556e-08
-2.00664e-09
-2.78297e-08
-2.31574e-08
-6.37116e-08
-4.28098e-08
-6.63754e-09
6.93548e-09
-4.79666e-08
5.18718e-09
-1.13611e-09
-4.14317e-09
-1.56082e-08
-1.31988e-09
2.43806e-08
-6.01319e-09
-1.46998e-08
6.94706e-09
6.36062e-09
-1.92328e-08
-5.21598e-08
-4.61001e-08
-2.02091e-08
-5.38868e-08
-4.0318e-08
-3.55364e-08
7.82969e-08
5.58569e-08
3.16623e-08
-5.50959e-09
3.15149e-08
3.4259e-08
2.71592e-08
-1.24198e-07
5.65818e-08
-7.50563e-08
6.40434e-08
2.84595e-08
-2.07838e-07
-1.08984e-08
5.12089e-08
2.33618e-08
-2.83988e-07
5.75649e-08
2.86369e-07
-1.54123e-07
3.69439e-07
9.24367e-08
-5.7124e-07
-6.03113e-07
9.22818e-07
1.10724e-07
2.43641e-07
-4.7796e-07
7.88953e-08
6.94263e-07
-3.02568e-07
-2.70019e-07
4.39339e-07
5.28301e-07
3.51632e-07
-1.68396e-07
2.61435e-07
-1.50561e-07
1.03284e-06
-1.79291e-09
-4.71276e-07
-6.29873e-07
-3.64548e-08
-6.1958e-07
4.8006e-07
1.80734e-07
-2.46483e-07
5.05014e-08
1.62067e-07
-3.68338e-07
-4.67089e-07
7.83273e-08
3.27135e-07
7.60093e-08
7.42581e-07
-6.11931e-07
1.47511e-07
-8.2939e-07
3.15865e-07
-9.31756e-07
4.29003e-07
-9.49976e-07
8.26951e-07
-1.53337e-06
2.61406e-07
5.38121e-07
-1.84839e-07
4.3294e-07
-4.684e-08
-2.45339e-07
1.58503e-07
1.34191e-07
-1.18686e-07
2.42906e-07
-1.70575e-07
-7.66706e-07
4.10487e-07
4.10014e-08
1.17253e-07
3.09892e-10
-7.65236e-08
3.60604e-07
1.70737e-07
9.06431e-08
-1.02529e-06
-1.00186e-07
6.82365e-07
2.40186e-07
-2.2104e-07
2.54727e-07
2.9529e-08
4.79022e-08
2.93624e-07
-3.69711e-07
-1.53699e-07
1.52302e-07
3.13545e-08
1.57692e-07
2.83876e-08
-5.77794e-08
1.81903e-07
-1.47933e-07
-6.37563e-08
1.25942e-06
-7.50437e-07
-1.80261e-07
6.40954e-07
3.30773e-08
5.31258e-07
-7.37325e-08
1.42243e-07
-1.23133e-07
5.4667e-08
2.47924e-07
8.61554e-08
-4.07666e-07
3.38631e-07
5.15904e-08
2.3438e-07
-4.9981e-07
1.428e-07
2.71613e-07
4.90084e-08
-2.02318e-06
2.63444e-06
-2.46655e-06
2.73901e-07
5.58922e-07
-1.59197e-06
6.12953e-07
-3.29116e-07
3.09624e-08
1.89309e-07
1.43168e-07
7.32019e-07
6.03512e-08
-1.41076e-07
-2.37468e-07
-2.19027e-08
-1.58645e-06
1.05605e-07
1.24504e-07
1.23835e-09
-2.29828e-07
7.4162e-08
2.58967e-08
5.50148e-09
1.02267e-07
9.67934e-08
-1.16765e-07
2.60714e-07
-1.3672e-07
3.51132e-08
-2.42175e-07
1.98274e-07
1.34172e-08
1.18044e-08
1.12713e-07
1.6695e-08
-1.2699e-07
3.50404e-08
-2.66823e-08
4.85505e-09
5.03193e-08
9.99938e-08
-8.7498e-08
1.41443e-08
1.25178e-07
5.1271e-10
1.20707e-08
2.10896e-07
-2.47081e-07
2.28233e-07
8.32237e-06
9.38655e-07
-2.32623e-05
-6.00532e-06
-4.19724e-06
-1.98506e-06
9.46623e-06
-5.16244e-06
8.73814e-08
3.41204e-05
-3.34964e-06
-6.60975e-05
-2.69867e-06
1.60572e-05
3.64471e-06
-1.50019e-05
1.76829e-07
3.51026e-07
5.36229e-07
9.19341e-08
-9.70911e-07
4.64949e-07
-5.37886e-07
3.36334e-07
8.47315e-07
2.6772e-07
1.27146e-06
-1.9501e-06
-1.2467e-07
-4.91215e-07
1.7839e-06
-2.47751e-06
2.82836e-06
-4.2093e-06
-1.86378e-07
-2.65358e-07
-4.69779e-07
7.83517e-07
4.79495e-09
-2.29144e-07
7.94334e-09
-1.09342e-08
-3.57344e-07
-3.01162e-08
-2.8907e-07
2.71277e-10
-7.47327e-07
-1.84078e-09
-9.28923e-07
-6.55651e-08
-1.91136e-06
2.1129e-09
1.47382e-08
-1.08539e-08
-4.84147e-09
5.55197e-08
-4.30991e-08
-1.82707e-08
-7.9708e-10
7.06971e-08
6.50901e-08
2.30322e-09
-1.19943e-07
9.31196e-08
-1.32829e-07
1.55285e-08
5.11096e-09
-1.36841e-08
1.89538e-08
7.71428e-08
-6.39274e-09
2.19343e-08
-1.17288e-08
-5.28795e-10
1.45674e-09
8.34389e-09
-7.25598e-09
1.14151e-09
1.20328e-09
-2.49223e-09
2.68263e-09
9.68998e-09
4.94801e-09
-4.88174e-09
-4.66522e-09
2.13287e-08
6.27183e-10
-8.01808e-10
-4.2927e-09
-2.48401e-09
-1.49598e-10
1.37792e-10
3.66511e-10
6.63981e-09
2.29879e-09
-3.32246e-10
-2.65166e-09
8.72774e-10
-2.48858e-09
-7.9308e-10
5.70221e-09
-2.34831e-09
-9.17295e-11
-2.90499e-12
-2.99422e-09
3.62894e-10
-7.76219e-10
-8.79331e-12
7.32246e-10
-5.97882e-09
-1.07186e-10
-3.31738e-17
-1.31568e-16
4.23996e-17
1.3061e-16
-6.12254e-17
4.74829e-17
-4.75501e-18
9.3572e-19
-1.76187e-16
-1.52943e-17
2.71148e-19
7.67085e-17
-8.87472e-18
-5.18427e-18
1.88957e-17
7.6267e-17
3.90913e-17
3.22807e-16
6.7772e-16
-6.29474e-16
1.70827e-15
3.74712e-15
-4.59465e-15
1.22548e-15
1.75307e-15
6.8122e-16
8.45709e-16
-5.88859e-16
1.60864e-15
3.31907e-15
-2.7572e-16
3.51048e-15
2.93688e-15
1.04781e-16
-1.39596e-17
2.64311e-16
-2.53127e-17
2.29336e-16
-2.9097e-17
-7.1534e-18
1.89573e-17
-3.4984e-18
7.99674e-27
4.1548e-26
-8.04079e-27
-7.54987e-26
5.40154e-26
-1.05572e-25
3.04884e-26
-4.70055e-26
1.17457e-25
-4.00326e-26
2.89187e-26
-5.42445e-27
4.31487e-26
-1.9077e-25
1.91268e-26
-1.10537e-25
-1.2248e-26
-6.63274e-28
-3.31885e-28
-4.43255e-28
5.95481e-28
1.02885e-28
-2.49145e-28
-6.35343e-27
-1.93042e-27
1.11152e-28
-8.87794e-27
3.20422e-27
-7.42487e-27
4.08114e-27
-4.69362e-26
2.39592e-27
-5.52355e-27
2.10543e-27
-1.13175e-23
2.24591e-25
2.39896e-24
-1.80224e-25
1.25171e-23
1.40672e-23
-1.07989e-22
1.40855e-24
1.86293e-25
-4.45977e-26
2.85646e-24
5.5791e-25
5.30783e-25
-2.8889e-26
-5.25782e-25
8.2339e-25
1.65541e-25
-2.17491e-28
-1.9024e-30
1.04388e-30
1.61477e-29
4.84994e-28
4.61846e-28
-3.61137e-27
7.87189e-29
3.96876e-30
7.84443e-30
-4.65025e-29
1.23641e-30
-6.61335e-30
1.05432e-29
3.42515e-29
9.35212e-29
3.99515e-29
6.02675e-28
5.64055e-27
-5.32606e-26
-7.57609e-28
2.05214e-27
-1.08253e-26
2.88059e-28
-1.87931e-27
3.03059e-27
5.16607e-26
5.78345e-26
-4.84884e-25
9.56265e-27
1.54582e-28
1.11724e-27
-1.96406e-31
-9.70077e-33
-2.18035e-29
-9.87141e-30
9.05648e-30
1.3309e-33
-5.49798e-35
-1.5321e-31
-2.21778e-28
1.76015e-30
-2.21406e-31
3.31765e-32
9.30831e-34
1.19017e-31
-1.49589e-30
1.60133e-28
-7.69803e-28
5.45074e-29
2.49159e-29
6.15093e-31
1.0209e-30
5.47867e-31
-8.48708e-30
8.67356e-32
1.4449e-33
-1.03491e-28
5.02172e-29
-5.78408e-28
4.06645e-30
9.39386e-32
-3.84649e-33
7.68179e-33
-1.17026e-30
-6.75207e-32
-4.77599e-32
-5.98758e-33
-6.60918e-31
-1.50327e-30
2.94463e-31
-2.07158e-31
6.8298e-31
-9.01942e-30
-2.84126e-31
5.61817e-33
2.27704e-30
9.07706e-31
-1.34101e-35
8.39809e-35
1.28174e-34
5.20031e-35
-5.77179e-33
1.17731e-33
-1.91809e-33
-5.85679e-33
4.9964e-34
2.81962e-35
5.95919e-33
-6.33871e-32
-1.57507e-34
-1.96417e-34
2.31962e-34
-9.6391e-34
2.73196e-36
6.61102e-35
-2.72611e-34
5.26257e-36
-2.23967e-36
-8.48388e-37
-7.88937e-37
-4.00907e-38
-3.09571e-36
1.60475e-38
-2.10197e-38
-7.50995e-37
-7.51099e-37
5.67439e-37
-9.7812e-38
7.39503e-37
-4.61842e-36
1.78959e-37
-4.32056e-36
-4.77894e-39
3.08256e-34
4.474e-33
-5.7663e-34
-3.87555e-33
4.32404e-33
-3.66444e-33
2.40212e-34
-1.60131e-32
3.06431e-32
-3.79081e-33
8.96701e-33
-1.13388e-32
4.05607e-33
-1.31948e-32
1.58361e-34
-8.28749e-37
-8.83594e-33
-7.98286e-32
-1.13166e-30
-2.15177e-30
-4.29459e-30
1.03938e-31
-9.67584e-30
5.91053e-30
2.34251e-31
-9.43567e-30
4.97699e-30
1.13818e-31
9.15559e-30
-3.80017e-29
-1.6342e-27
-6.56655e-29
8.12567e-28
-2.63328e-27
-3.49865e-27
2.64175e-28
-1.20762e-26
4.14637e-30
1.64617e-28
1.50875e-26
-1.16041e-26
1.71244e-28
1.35459e-26
-1.80872e-26
-7.13815e-24
-1.22917e-24
5.27621e-27
-4.49653e-26
-8.81947e-25
-1.39044e-23
-3.19674e-24
1.04364e-21
7.85062e-22
-2.89425e-21
-3.95239e-22
-2.57909e-22
-4.67946e-21
-9.90877e-22
-4.37937e-23
1.24694e-22
-8.2026e-21
-8.03524e-21
-5.40488e-21
-3.24455e-20
-5.62706e-21
4.76174e-19
-7.11961e-19
-3.51029e-20
1.21945e-19
-9.71526e-20
-1.0298e-19
-1.78846e-17
-4.33484e-17
-5.45268e-20
-2.09769e-18
-6.16568e-22
1.64021e-20
-3.28546e-19
1.09376e-17
-5.18354e-17
-1.1146e-16
-1.05177e-15
-1.52943e-15
-6.30974e-16
2.43065e-15
-2.89055e-16
-2.47306e-15
1.98955e-16
-5.26082e-15
-7.08505e-16
-3.57221e-15
-5.95684e-15
7.37596e-15
-7.1863e-15
-8.04972e-16
8.33324e-15
-3.0751e-14
-5.9798e-15
-9.09132e-17
-2.47313e-17
3.33117e-17
1.23279e-17
-2.38257e-17
4.27911e-17
-2.59401e-16
-1.63369e-15
4.41584e-16
4.56794e-14
-1.27122e-14
-8.15888e-14
-2.05744e-15
3.07215e-14
-1.10896e-15
3.82994e-16
1.13868e-16
2.47045e-15
-6.60604e-15
2.11637e-14
-4.00401e-14
1.19503e-14
8.04266e-17
-1.22061e-18
2.69907e-16
-1.01562e-15
-2.57534e-18
1.23655e-17
3.54614e-18
3.4967e-18
-1.18184e-17
-6.00236e-18
-2.94457e-16
1.50393e-16
-3.39952e-17
-1.24312e-16
2.40501e-17
-6.24079e-16
2.24128e-15
7.97736e-15
-8.91787e-16
4.91443e-15
-1.57373e-14
5.46857e-15
4.50158e-15
8.52185e-15
6.75214e-14
5.59819e-15
4.90014e-15
3.23372e-14
1.37573e-14
1.89999e-15
1.14889e-14
-3.07499e-14
-2.08859e-15
4.79554e-15
-4.14374e-15
1.10632e-14
4.18879e-14
-5.2291e-13
-2.20953e-13
6.32535e-13
-1.9718e-13
-3.44298e-12
-1.88929e-12
-6.01543e-13
1.74916e-12
3.97384e-13
-1.05328e-11
-1.50511e-11
2.77506e-12
3.18205e-12
7.28583e-12
-5.15907e-11
-3.05052e-12
2.73647e-12
1.84103e-13
5.30667e-13
-5.73824e-14
-7.76791e-14
4.50519e-12
-7.99347e-12
-3.42546e-12
1.10725e-11
-2.50615e-14
3.30111e-13
-3.99478e-13
2.67581e-13
-1.92457e-13
-1.51659e-14
1.6046e-13
1.73286e-13
2.50803e-13
4.45651e-14
7.3152e-13
-7.39043e-12
-2.14734e-12
-4.49729e-10
6.03248e-11
5.40136e-10
-8.14325e-11
2.74165e-10
8.05574e-11
-8.86508e-10
2.1996e-10
8.44341e-12
-7.80322e-11
8.12061e-11