/*--------------------------------*- C++ -*----------------------------------*\
| =========                 |                                                 |
| \\      /  F ield         | OpenFOAM: The Open Source CFD Toolbox           |
|  \\    /   O peration     | Version:  v2012                                 |
|   \\  /    A nd           | Website:  www.openfoam.com                      |
|    \\/     M anipulation  |                                                 |
\*---------------------------------------------------------------------------*/
FoamFile
{
    version     2.0;
    format      ascii;
    class       volScalarField;
    location    "0.2";
    object      p;
}
// * * * * * * * * * * * * * * * * * * * * * * * * * * * * * * * * * * * * * //

dimensions      [1 -1 -2 0 0 0 0];


internalField   nonuniform List<scalar> 
6576
(
-390.344
-411.279
-381.284
-387.036
-397.384
-376.561
-376.54
-365.165
-383.543
-380.853
-382.695
-372.668
-359.888
-374.667
-285.846
-302.696
-338.091
-333.291
-308.573
-303.065
-337.787
-370.308
-379.944
-449.266
-279.707
-241.23
-165.936
-420.87
-416.812
-415.716
-406.867
-398.612
-360.19
-264.222
-245.805
-261.694
-288.091
-287.196
-277.067
-281.44
-315.546
-363.08
-311.246
11.9565
9.23229
11.8278
9.61342
12.1873
11.4137
10.4537
8.43581
11.3352
-2.91805
-2.92027
-2.93448
-2.88442
-2.88975
-2.90604
-2.89891
-2.92042
-2.88824
-2.87757
-2.85852
-2.89263
-2.92084
-2.88563
-2.67942
-2.71819
-2.73507
-2.75174
-2.71576
-2.78655
-2.74951
-1.40008
-1.3415
-0.96306
-1.51822
-1.66482
-1.82176
-1.38502
-1.50245
-1.6759
-1.70671
-1.53205
-1.3203
-1.4976
-1.59791
7.42981
6.28694
5.51134
5.2352
10.3382
5.8473
6.27515
3.71257
5.11023
3.5526
4.78349
5.1553
5.52463
4.49062
89.5864
63.0789
55.4582
63.4488
90.2421
42.3391
69.7107
69.0929
55.9918
93.3971
43.1787
67.4998
68.1179
-2.88591
-2.91054
-2.95779
-3.03802
-3.36895
-3.06312
-3.04746
-15.011
-53.1369
-136.945
-84.5894
-26.2589
-42.7814
9.29158
-2.8737
-2.96722
-2.98024
-3.45024
-2.84744
-3.79405
-2.82197
-1.58232
-1.55058
-1.58824
-1.58597
-1.54582
-1.53478
-1.57131
-1.72511
-1.71825
-1.69106
-1.71758
-1.68562
-1.67748
-1.70814
-1.82588
-1.81045
-1.84929
-1.7736
-1.7961
-1.822
-1.79943
-1.83424
-1.85699
-1.82878
-1.82474
-1.84758
-1.82296
-1.79912
-1.82997
-1.80715
-1.91106
-1.9473
-1.92285
-1.87912
-1.90184
-1.92456
-1.90118
-1.91733
-1.93493
-1.90381
-1.89646
-1.91475
-1.87243
-1.88891
-1.89358
-1.87634
-2.02014
-2.02981
-1.98891
-2.00208
-2.0094
-1.95731
-1.95262
-1.96908
-1.97315
-2.10199
-2.09441
-2.15067
-2.09714
-2.05596
-2.1284
-2.07947
-2.04232
-2.06997
-2.07059
-2.01052
-1.99582
-2.03083
-2.04704
-2.20081
-2.23305
-2.18795
-2.0982
-2.20008
-2.17474
-2.09383
-2.94727
-3.08221
-3.25029
-2.72722
-3.00313
-3.09367
-3.13978
-2.52105
-2.54316
-2.45905
-2.43327
-2.46342
-2.46745
-2.41982
-2.35242
-2.3947
-2.31742
-2.34267
-2.30575
-2.25006
-2.2865
-2.14423
-2.10783
-2.14882
-2.1537
-2.10418
-2.09384
-2.1354
-2.08236
-2.08683
-2.0494
-2.09393
-2.12999
-2.07517
-2.109
-2.00738
-1.97227
-2.00081
-2.04334
-2.0118
-2.03268
-2.00257
-1.9827
-2.01151
-1.91009
-1.87105
-1.89465
-1.89744
-1.92178
-1.87269
-1.89625
-1.60145
-1.61978
-1.59675
-1.54582
-1.57633
-1.58191
-1.55367
88.6848
58.6128
53.4025
73.7154
46.1897
14.8745
40.1929
26.8921
53.492
5.40119
3.50193
7.00573
3.76569
0.714617
6.54823
4.78312
4.69533
4.72416
4.90159
5.05115
4.8628
4.88878
4.92158
4.81719
4.62406
5.48578
4.75583
2.43073
5.23647
5.96069
5.24668
6.16265
5.37686
4.90239
5.07739
-7.14268
-11.404
-9.26548
-9.71348
-5.69448
-4.01463
-7.79847
-0.673345
-1.89519
-0.673081
0.582332
-1.53154
-1.40355
-1.17734
-1.37369
0.205103
-6.18792
-6.0984
-6.95289
-5.28258
-5.66397
-5.62233
-6.01278
4.94359
4.92089
5.01762
4.79004
4.90299
4.96292
4.88369
4.9322
4.8911
4.92617
4.84336
4.78389
4.91983
4.8611
4.89215
4.93744
5.18997
6.01396
6.18459
5.08203
5.35067
5.03041
5.24859
5.07302
5.005
92.1794
91.8458
102.822
66.679
66.8066
76.8915
78.066
88.5751
88.0973
103.09
75.1285
61.1092
16.0219
41.6572
54.92
68.6761
6.089
5.59648
6.60422
6.00443
7.74149
5.94646
6.59932
5.31699
5.18538
5.48058
5.51305
5.52197
5.45226
5.43728
-10.0702
-9.32112
-11.1773
-7.86095
-8.1027
-8.29603
-8.98268
-10.7964
-9.52702
-5.59863
-5.31273
-5.52886
-5.48796
-5.76194
-5.4853
-5.73928
-4.45786
-4.58338
-4.55147
-4.5593
-4.79795
-4.53725
-4.74544
-4.6022
-4.48071
2.29015
-2.58447
1.06239
6.6988
-1.56069
-2.45446
2.06605
-2.99306
-1.93691
-11.6979
10.4977
-8.83929
9.61691
18
-2.15262
-2.16272
-2.19785
-2.13806
-2.17024
-2.16615
-2.20054
-2.23001
-2.26139
-2.28294
-2.26352
-2.23219
-2.2672
-2.29956
-2.16169
-2.1766
-2.21091
-2.17874
-2.14568
-2.1771
-2.21117
-2.17045
-2.20602
-2.15401
-2.15385
-2.18766
-2.13687
-2.1008
-2.15297
-2.11911
-2.31696
-2.35167
-2.3006
-2.31573
-2.28298
-2.35086
-2.31611
-2.43523
-2.37313
-2.4162
-2.43596
-2.47343
-2.4001
-2.4363
-2.43559
-2.45239
-2.48933
-2.41753
-2.38089
-2.41755
-2.4512
-2.7236
-2.70525
-2.66624
-2.72796
-2.76424
-2.72628
-2.68461
-2.54548
-2.57898
-2.58572
-2.58122
-2.61691
-2.63615
-2.60003
-2.7864
-2.72822
-2.74745
-2.55993
-2.57733
-2.51474
-2.9147
-2.87909
-2.87713
-2.87997
-2.91502
-2.89136
-2.85871
-2.86987
-2.87786
-2.91175
-2.8141
-2.85089
-2.8421
-2.8749
-2.89664
-2.93151
-2.86197
-2.86883
-2.81435
-2.85121
-2.91357
-2.87831
-2.89581
-2.86005
-2.8326
-2.86966
-2.93386
-2.91468
-2.9127
-2.89708
-2.87873
-2.8687
-2.81454
-2.85168
-2.88966
-2.91705
-2.91871
-2.93444
-2.88274
-2.88136
-2.89636
-2.89684
-2.57181
-2.55565
-2.51745
-2.58195
-2.62622
-2.56684
-2.60748
-2.57253
-2.53405
-2.3977
-2.36013
-2.41495
-2.42754
-2.47166
-2.39106
-2.43036
-2.40789
-2.46399
-2.4286
-2.38904
-2.41665
-2.46068
-2.42712
-2.25229
-2.26619
-2.28867
-2.27212
-2.31371
-2.31966
-2.27989
-2.00683
-1.96816
-1.98795
-2.04912
-2.02632
-1.975
-1.9512
-1.98443
-1.98571
-2.01612
-1.96444
-1.99293
-1.90583
-1.87939
-1.88665
-1.90961
-1.88955
-1.89405
-1.91634
-1.85544
-1.83499
-1.84239
-1.86136
-1.85387
-1.84683
-1.86063
-2.576
-2.59492
-2.55098
-2.65551
-2.58519
-2.56795
-2.60807
-2.61035
-2.54897
-2.62853
-2.69008
-2.53952
-2.67179
-2.55205
-2.54821
-2.64612
-3.04094
-3.17186
-2.97374
-3.08466
-3.03473
-2.84242
-2.88589
-0.598192
0.0456177
-1.33097
-1.53174
-0.996427
0.0998241
-0.576112
1.35622
0.988106
1.35718
1.52353
1.22501
1.57351
1.42145
1.74085
1.6225
1.48993
1.2816
1.42152
1.61352
1.51686
2.88308
2.77521
2.96559
2.98517
2.89647
3.13719
3.03074
3.54911
3.50411
3.37711
3.33057
3.1833
3.41046
3.43401
3.41683
3.32636
3.14871
3.34542
3.39103
3.46451
3.38356
3.34004
3.19142
3.19577
3.08082
3.53007
3.94538
3.84652
3.88128
3.45724
3.58491
3.74992
3.43198
3.68558
3.59621
3.84427
3.91321
3.7427
3.6299
3.50786
3.51699
4.8796
5.07056
4.68071
4.77705
4.44705
4.60213
5.44113
5.0566
5.13907
4.80592
5.17913
4.9432
4.93861
4.78209
4.96942
4.86989
4.91039
4.80199
5.65745
5.09069
4.88919
4.91296
5.29946
4.96252
5.69217
5.26702
5.00267
5.05861
5.19483
5.08519
5.1743
5.49878
5.22092
5.07624
4.74868
5.37912
5.03226
4.95881
4.71347
7.01532
8.9148
4.63957
4.43687
4.71879
3.95386
59.4688
45.7588
71.2678
13.5004
41.9249
55.069
89.7761
62.217
62.8243
35.9093
67.2099
91.7786
61.0944
66.8527
91.0638
46.2927
25.6105
71.7035
47.1815
79.5947
104.576
78.9073
90.2397
90.254
101.753
64.359
63.8915
86.6678
86.6955
61.0269
59.9398
92.9823
92.6972
103.392
66.4742
66.2811
75.664
50.4236
71.9453
57.7964
44.6113
95.2039
67.8093
61.0661
97.8498
69.0491
47.4816
78.5858
40.8245
18.971
56.5764
66.9468
40.8933
13.2589
39.6109
7.01135
7.96085
6.31905
4.46648
5.62183
7.36018
6.0809
6.21983
6.70598
5.80799
5.7107
4.50065
5.12064
4.15502
-26.5003
-33.4278
-22.925
-53.0555
-12.9181
-16.6214
6.86133
-2.76583
-0.00857147
-8.30246
-4.90026
3.60552
-0.0290223
1.52694
-5.45547
-5.60229
-6.81704
-5.58945
-5.51849
-7.22899
-7.99248
-3.93824
-3.11614
-4.99902
-3.25694
-1.95839
-3.56315
-2.81341
-4.39461
-4.05058
-5.7866
-5.31623
-5.27426
-4.53005
-5.98199
-4.66402
-5.94981
-5.05348
-5.82581
-4.89075
-4.82421
-5.00875
-4.967
-4.94195
-5.05009
-5.07122
-1.74151
-1.7494
-1.71463
-1.77278
-1.74737
-1.72798
-1.75453
-1.757
-1.75137
-1.77275
-1.77481
-1.76545
-1.78425
-1.79329
-1.84068
-1.85835
-1.82653
-1.79433
-1.81258
-1.89258
-1.91104
-1.94199
-1.8763
-1.84386
-1.87969
-1.90781
-1.93857
-1.88935
-1.90783
-1.90142
-1.8711
-1.90469
-1.93537
-1.84662
-1.80596
-1.86553
-1.84654
-1.88145
-1.91932
-1.88408
-2.00382
-1.93965
-1.98666
-2.00763
-2.04412
-1.97371
-2.00855
-2.00506
-2.02357
-2.05906
-1.94923
-1.9879
-1.99081
-2.02331
-2.20322
-2.14706
-2.14727
-2.14765
-2.09833
-2.1045
-2.14222
-2.16512
-2.08467
-2.14395
-2.15909
-2.12748
-2.08933
-2.29128
-2.34327
-2.28875
-2.27457
-2.23655
-2.30966
-2.23484
-2.27328
-2.45302
-2.43682
-2.48662
-2.41687
-2.4365
-2.37926
-2.48938
-2.45353
-2.41689
-2.45168
-2.77945
-2.74298
-2.72591
-2.70648
-2.66832
-2.70639
-2.74108
-2.72406
-2.74291
-2.77954
-2.70594
-2.66857
-2.70713
-2.74162
-2.87419
-2.89043
-2.8557
-2.70438
-2.72419
-2.66627
-2.77837
-2.74081
-2.70402
-2.73933
-2.87558
-2.89423
-2.93086
-2.85855
-2.89349
-2.89228
-2.89067
-2.93054
-2.89268
-2.89215
-2.87682
-2.85819
-2.91711
-2.9183
-2.93467
-2.87774
-2.87843
-2.89309
-2.89004
-2.91122
-2.86869
-2.87103
-2.91137
-2.87196
-2.85374
-2.88843
-2.68964
-2.6514
-2.70775
-2.71859
-2.76481
-2.72509
-2.68712
-2.72669
-2.76716
-2.36007
-2.38045
-2.32839
-2.44164
-2.40641
-2.36957
-2.40116
-2.14608
-2.15767
-2.19209
-2.14414
-2.20048
-2.1647
-2.21613
-1.98747
-1.99805
-1.96493
-2.01245
-1.97264
-1.96263
-1.93093
-1.93572
-1.94654
-1.96088
-1.94388
-1.96824
-1.89051
-1.8678
-1.88331
-1.90221
-1.90204
-1.89834
-1.88996
-1.8755
-1.88738
-2.7509
-2.66887
-2.6574
-2.71607
-2.64207
-2.62382
-2.59061
-2.60675
-2.65512
-2.0062
-2.03083
-2.09573
-1.97037
-1.89312
-1.96878
-2.03072
-1.89997
-1.96285
-2.05261
-2.09341
-2.04118
-1.92322
-1.9783
-1.95434
-1.83123
-1.72383
-1.86093
-1.75042
-1.61306
-1.5262
-1.60455
-1.69488
-0.819793
-0.994244
-0.826183
-1.03487
-1.12028
-0.976571
-0.916388
2.10702
2.04434
2.00611
1.92054
2.03055
1.85543
1.98367
2.48444
2.54394
2.60263
2.51462
2.394
2.32886
2.43637
2.45952
2.54421
2.3203
2.46977
2.5755
2.48882
2.46248
2.36113
2.26898
2.72003
2.87721
2.85666
2.86242
2.95861
2.94684
2.99129
2.64463
2.87089
2.79348
3.39644
3.56211
3.47087
3.79543
4.24643
3.86661
4.94707
4.81253
4.89731
4.95735
4.99271
4.945
4.90161
70.4171
57.5838
43.4944
65.535
52.9637
37.7774
40.2534
12.7502
12.5443
38.5911
105.43
77.4058
77.7981
106.162
110.685
124.858
83.5823
98.0136
101.223
119.931
81.5919
78.9352
56.0419
355.076
307.716
330.319
525.126
315.135
338.119
452.391
244.298
192.319
147.043
132.626
111.698
177.557
0.0641981
10.658
12.2038
9.59731
20.4345
10.6192
5.74327
28.8749
17.6345
65.4221
91.4086
125.514
51.5251
54.4872
-82.0285
-77.9506
-53.4916
-20.6351
-60.378
-23.6612
-26.4949
-7.53538
18.4949
30.8719
14.6573
1.84643
21.5605
1.79755
6.23905
-3.27236
-1.63093
-14.4715
3.31735
-1.40022
-1.16317
14.642
-25.2622
-1.80468
-8.13795
-15.1259
12.9134
-13.9696
-0.925816
-0.764449
-1.4251
-1.78097
-1.02946
-1.8186
-1.92012
-0.901643
-1.57354
-1.41618
-1.73027
-1.37909
-1.37222
-2.13172
-1.53205
-1.56842
-1.41634
-1.41525
-1.46557
-1.50552
-1.49658
-1.59126
-1.57986
-1.61627
-1.62282
-1.58813
-1.59706
-1.63021
-1.63427
-1.65995
-1.68383
-1.61438
-1.58421
-1.62625
-1.64898
-1.63959
-1.66581
-1.61474
-1.62449
-1.59441
-1.66076
-1.63101
-1.64661
-1.59489
-1.61947
-1.60555
-1.57385
-1.60997
-1.64119
-1.63103
-1.57985
-1.60112
-1.58752
-1.558
-1.62793
-1.59567
-1.76989
-1.73254
-1.72078
-1.75359
-1.71567
-1.70665
-1.66252
-1.68097
-1.72134
-1.5704
-1.48862
-1.54391
-1.57137
-1.60921
-1.52646
-1.56683
-1.559
-1.58007
-1.61785
-1.54368
-1.50252
-1.54802
-1.58048
-1.71019
-1.65775
-1.70633
-1.70844
-1.74742
-1.76979
-1.73053
-1.90187
-1.86446
-1.86584
-1.79809
-1.84593
-1.8241
-1.86491
-1.70891
-1.64385
-1.68987
-1.91131
-1.86187
-1.88027
-2.05968
-2.02581
-2.01209
-2.20629
-2.17003
-2.15343
-2.13627
-2.17018
-2.09819
-2.13519
-2.15529
-2.16968
-2.20462
-2.13865
-2.10129
-2.34576
-2.31237
-2.29556
-2.2774
-2.23925
-2.27752
-2.31245
-2.14851
-2.09795
-2.13384
-2.16513
-2.13309
-2.09893
-2.13209
-2.35235
-2.30229
-2.31819
-2.31673
-2.28492
-2.31808
-2.3523
-2.56989
-2.59127
-2.62805
-2.54718
-2.51475
-2.78064
-2.74243
-2.72911
-2.78129
-2.74447
-2.74631
-2.71129
-2.50231
-2.53897
-2.55382
-2.57006
-2.52947
-2.53731
-2.50096
-2.74057
-2.77651
-2.72211
-2.73878
-2.77495
-2.73365
-2.7023
-2.87191
-2.85215
-2.88705
-2.86772
-2.91114
-2.86352
-2.82573
-2.86614
-2.84081
-2.80167
-2.88614
-2.93184
-2.84574
-2.9186
-2.87386
-2.86662
-2.87208
-2.83715
-2.80162
-2.84262
-2.92048
-2.92087
-2.93681
-2.87777
-2.87512
-2.88811
-2.85525
-2.88585
-2.86998
-2.85024
-2.92601
-2.91968
-2.93946
-2.88923
-2.88904
-2.90381
-2.90677
-2.83768
-2.8041
-2.86736
-2.81109
-2.84499
-2.88971
-2.85602
-2.9586
-2.92775
-2.9302
-3.00085
-2.93187
-2.95036
-3.02688
-2.8265
-2.87127
-2.77177
-2.76132
-2.73777
-2.85944
-2.81933
-2.48611
-2.56865
-2.52958
-2.50165
-2.45214
-2.42698
-2.50647
-2.53912
-2.55063
-2.53824
-2.5222
-2.6059
-2.51262
-2.53927
-2.51934
-2.52808
-2.57928
-2.53977
-2.57601
-2.55143
-2.60833
-2.51008
-2.51015
-2.51993
-2.49164
-2.50745
-2.48027
-2.49875
-2.51161
-2.49788
-2.51793
-2.52311
-2.50271
-2.51755
-2.55044
-2.54789
-2.52643
-2.4086
-2.41286
-2.44323
-2.36412
-2.40654
-2.38112
-2.41647
-2.11969
-2.07762
-2.08581
-2.03355
-2.09363
-2.07757
-2.1252
-2.09208
-2.13625
-1.90313
-1.9653
-1.98692
-1.85033
-1.83239
-1.88609
-1.86859
-1.93672
-1.95459
-1.82887
-1.84252
-1.90551
-1.72881
-1.81672
-1.77057
-1.84215
-0.84804
-0.820643
-0.671758
-0.811455
-0.906668
-0.843183
-0.740093
-0.707901
-0.655254
-0.74512
-0.498878
-0.569941
-0.647241
-0.60223
0.139506
0.189075
0.341002
0.138162
0.0149666
0.115603
0.23109
0.0802074
0.153007
0.218449
0.176002
0.0973377
0.265448
0.192967
0.608387
0.485321
0.631213
0.6875
0.82923
0.711354
0.610388
1.66241
1.58426
1.59154
1.67675
1.60643
1.54836
1.62512
1.2678
1.12545
1.1312
0.915093
1.0526
1.12966
0.998715
1.72815
1.58516
1.61134
1.40636
1.71831
1.54926
2.20443
2.08648
2.04092
2.07837
2.17633
1.99247
1.96088
1.82079
2.08676
1.98613
2.59776
2.54956
2.49949
4.93297
5.23547
4.93456
6.21198
5.71802
6.10924
6.07668
313.827
284.735
227.735
418.985
191.117
174.262
290.711
382.51
336.75
299.183
581.89
566.042
593.62
654.546
559.931
598.354
734.339
588.962
573.779
521.242
36.1872
46.5265
39.1364
26.0146
34.2046
27.4927
12.0642
76.634
122.871
68.0416
56.2659
63.6581
82.9535
58.7129
-14.0077
-13.9495
-10.5654
-9.16708
-10.1411
-14.5042
-9.98216
4.93855
1.89467
9.39186
-1.51259
-3.05758
-4.96019
4.19446
-2.74489
5.67572
0.521608
1.9754
0.159962
0.786638
2.16508
-4.8836
-1.37913
0.70209
-1.69321
-1.23645
-0.363237
0.0180883
-6.64407
-2.71791
-3.70446
-5.78556
-0.830071
-1.72752
-2.11318
-1.56592
-1.98684
-3.66092
-3.82193
-2.85869
-3.27287
-2.21965
-2.52622
-2.90407
-2.70299
-2.75802
-3.24835
-3.00548
-1.3638
-1.38365
-1.32746
-1.37288
-1.3467
-1.33106
-1.30387
-1.32215
-1.34671
-1.29009
-1.33782
-1.30907
-1.29917
-1.26759
-1.30247
-1.24101
-1.26367
-1.24084
-1.19201
-1.23953
-1.28636
-1.4443
-1.4094
-1.40559
-1.3569
-1.40224
-1.38266
-1.3348
-1.24299
-1.1776
-1.24029
-1.23071
-1.18202
-1.44963
-1.40691
-1.40514
-1.40896
-1.45236
-1.16474
-1.24209
-1.16871
-1.22396
-1.25532
-1.45654
-1.40412
-1.3892
-1.43616
-1.46897
-1.56923
-1.61775
-1.5829
-1.71789
-1.77335
-1.74059
-1.65981
-1.69902
-1.52028
-1.55755
-1.58118
-1.59821
-1.57087
-1.56107
-1.52798
-1.88454
-1.85463
-1.86802
-1.81216
-1.84719
-1.81615
-1.84875
-1.8029
-1.77555
-1.75312
-1.76932
-1.79955
-1.76492
-1.73451
-2.06966
-2.03643
-2.01959
-1.96377
-1.99946
-2.00079
-2.03414
-2.29661
-2.33033
-2.27746
-2.26451
-2.29459
-2.22829
-2.25922
-2.49339
-2.50114
-2.44936
-2.47405
-2.52812
-2.49573
-2.45439
-2.87952
-2.88047
-2.85411
-2.90953
-2.96628
-2.93451
-2.88479
-2.93846
-2.94647
-2.88345
-2.91018
-2.98265
-2.88485
-3.08075
-2.99248
-3.00185
-3.08478
-3.07953
-3.09269
-3.02313
-3.06662
-3.02398
-2.99097
-2.88272
-2.96148
-2.9085
-2.96536
-2.90584
-2.93371
-3.05654
-2.88252
-2.83632
-3.54098
-3.15901
-3.91391
-3.76203
-3.20615
-4.80235
-3.93767
-4.00211
-131.745
-57.3826
-50.5792
-20.4759
-22.4609
42.7668
-3.29584
-6.24643
-6.72081
-5.23621
-6.41416
-6.95926
-1.50571
-2.09323
-5.13971
-4.22903
-5.71899
-6.00496
-4.77256
-5.66418
-3.28615
-2.57635
-3.03629
-2.89766
-2.74922
-2.7288
-2.8736
-2.8611
-2.58238
-3.37033
-2.13172
-1.56167
-2.83817
-3.38269
-2.55344
-2.56669
-2.57812
-2.56705
-2.58675
-2.61462
-2.5888
-2.71223
-2.68314
-2.66442
-2.62523
-2.64198
-2.70367
-2.68206
-2.64655
-2.66706
-2.47359
-2.47305
-2.49368
-2.50724
-2.51934
-2.492
-2.48518
-2.45764
-2.42867
-2.45383
-2.44696
-2.41736
-2.45698
-2.41744
-2.28878
-2.33314
-2.3065
-2.30589
-2.26567
-2.302
-2.26192
-1.89395
-1.92469
-1.85419
-1.82743
-1.89483
-1.8886
-1.82464
-0.86159
-0.937547
-0.850596
-0.819493
-0.714744
-0.792339
-0.871104
-0.352613
-0.446337
-0.441839
-0.437283
-0.515621
-0.535783
-0.468379
-0.0587123
0.0367261
-0.104388
-0.108044
-0.158164
-0.12787
-0.0532835
-0.195438
-0.107673
-0.193546
-0.0984089
0.0123943
-0.0973799
-0.0916754
-0.175877
-0.230579
0.171721
0.27081
0.270178
0.277351
0.399633
0.442365
0.327621
0.281223
0.115283
0.216351
0.800589
0.679561
0.660778
0.584442
0.684438
0.503041
0.604922
0.606236
0.641418
0.483016
0.686858
0.829601
0.686666
0.582788
0.69346
0.850907
0.745979
1.11172
1.29371
1.17776
1.10379
1.1626
1.29052
1.0295
0.9364
1.05364
1.1431
-7.68848
-15.1318
-10.8073
-6.05211
-5.90611
-7.44546
-4.26643
-29.968
-92.4034
-53.1808
-59.7645
-35.0258
-92.4015
-60.9942
428.042
186.118
338.893
172.789
38.0456
343.779
362.322
79.8719
101.949
242.445
56.6989
103.381
79.8021
193.493
431.361
57.7142
186.157
690.261
352.273
591.866
391.451
279.774
426.158
216.29
293.129
-28.2179
135.625
-1.0716
-1.08324
-1.02185
-1.04566
-1.06755
-0.992655
-1.01787
-1.00266
-1.02418
-0.959062
-0.979981
-1.01171
-0.928989
-0.962356
-0.982124
-0.918636
-0.95024
-0.924281
-0.888368
-0.938666
-0.976826
-0.888381
-0.911847
-0.951409
-0.874815
-0.807613
-0.870187
-0.910834
-1.11857
-1.06938
-1.06772
-0.978838
-1.04388
-1.02068
-1.07098
-1.07006
-1.13408
-1.09156
-1.09813
-1.15589
-1.12722
-1.10958
-1.07428
-1.15025
-1.11651
-1.13381
-1.1909
-1.16897
-1.10584
-1.13612
-1.18128
-1.15211
-1.23662
-1.22329
-1.17939
-1.15341
-1.17988
-1.20046
-1.22376
-1.24984
-1.24866
-1.19277
-1.29201
-1.25241
-1.27824
-1.23275
-1.82111
-1.81475
-1.81593
-1.79852
-1.79705
-1.80616
-1.80924
-1.83983
-1.85924
-1.8587
-1.8372
-1.85455
-1.86411
-1.84127
-1.88947
-1.88405
-1.90164
-1.86809
-1.88867
-1.90495
-1.89222
-1.89628
-1.89571
-1.87281
-1.86574
-1.87206
16.6859
-28.923
4.07796
-1.23488
-7.47404
-9.24724
-1.76047
-4.18387
-5.13182
-5.92949
-3.40168
-4.05453
-3.70087
-3.91683
-3.01333
-3.19271
-2.8059
-3.27088
-3.56848
-3.19235
-3.26298
-3.04838
-3.49136
-3.17156
-2.91026
-2.94345
-2.91635
-2.92868
-2.92442
-2.93314
-2.9187
-2.89846
-2.9361
-2.92785
-2.97505
-2.95513
-2.97265
-2.95329
-2.95888
-2.94104
-2.95983
-2.94119
-2.94147
-2.93528
-2.93511
-2.9319
-2.9415
-2.87201
-2.83577
-2.86272
-2.88982
-2.85836
-2.86229
-2.8836
-2.41109
-2.44728
-2.45273
-2.41245
-2.45484
-2.43894
-2.39964
-2.28245
-2.28739
-2.2386
-2.23928
-2.28829
-2.2703
-2.2251
-2.10152
-2.09571
-2.04156
-2.1055
-2.14749
-2.12753
-2.08152
-1.8719
-1.80518
-1.8682
-1.85945
-1.91874
-1.84591
-1.90529
-1.82144
-1.88119
-1.83047
-1.80171
-1.76246
-1.82006
-1.78513
-1.73297
-1.76476
-1.02142
-0.99492
-0.900292
-1.11913
-1.04358
-1.06063
-0.986045
-0.837586
-0.749404
-0.786759
-0.93248
-1.01142
-1.01432
-1.07019
-1.00652
-1.1147
-1.04539
-0.613911
-0.727771
-0.710911
-0.728457
-0.6016
-0.850401
-0.401737
-0.448435
-0.276581
-0.480947
-0.541844
-0.432427
-0.402339
-0.309398
-0.414905
-0.469183
-0.0427997
-0.0850834
0.0595473
-0.234025
-0.276231
-0.174568
-0.112261
-0.163392
-0.196954
-0.255428
0.526235
0.649113
0.457595
0.30693
0.272439
0.411848
0.359513
-6.54786
-5.54684
-6.05066
-4.74888
-4.02904
-5.48128
-5.53644
-5.73345
-6.2657
-5.6036
-5.61099
-5.70057
-3.14159
-2.87158
-2.25472
-1.22457
-2.4887
-2.37537
-2.96292
-3.35367
-4.85269
-2.43782
-3.68295
-3.7305
-2.25302
-2.66122
-2.76895
-2.10287
-4.64219
-2.18367
-3.52809
3.66493
8.90757
16.3151
6.41355
16.1256
3.5874
12.0381
32.436
15.4986
23.1096
19.0958
5.13798
-4.61421
18.5507
634.205
227.85
357.621
3885.38
2040.19
2779.23
2315.49
1451.2
3658.31
2861.58
1420.6
846.469
1884.47
1237.18
1788.33
1948.04
1470.25
1040.27
901.26
831.781
902.67
98.2994
613.728
1633.99
4738.36
3342.02
-0.452284
-0.386807
-0.453085
-0.479785
-0.532221
-0.511964
-0.454241
-0.454653
-0.424781
-0.334574
-0.672255
-0.715352
-0.772095
-0.722083
-0.680234
-0.788664
-0.763352
-1.10889
-1.17236
-1.03559
-1.31543
-1.17403
-1.08389
-1.17534
-1.14632
-1.17635
-1.23931
-1.09139
-1.06942
-1.10875
-1.13806
-1.62291
-1.53121
-1.69439
-1.17019
-1.68757
-1.79907
-1.55746
-1.66822
-1.70716
-1.63647
-1.66723
-1.65829
-1.78513
-1.7494
-2.06962
-2.52077
-1.87402
-3.96958
-2.44029
-2.1783
-2.12165
-2.34922
-2.11791
-1.107
-2.29581
-2.23455
-1.46927
-3.19445
-2.6431
-2.46609
-2.71808
-2.56913
-2.6532
-2.90671
-2.71714
-2.63646
-2.79428
-2.54935
-2.73441
-2.93787
-2.63749
-2.55472
-2.62376
-2.73103
-3.42333
-3.37395
-3.47657
-3.68388
-3.40211
-3.51078
-3.35678
-2.93631
-2.92197
-2.9797
-2.8961
-2.89233
-2.93547
-2.9304
-2.92906
-2.94093
-2.97287
-2.92546
-2.93698
-2.91625
-2.93256
-2.92144
-2.92146
-2.90616
-2.93177
-2.93979
-2.92747
-2.91606
-2.90579
-2.93629
-2.89446
-2.91998
-2.9173
-2.93086
-2.93802
-2.92906
-2.91202
-2.91312
-2.90347
-2.90478
-2.67554
-2.64887
-2.62565
-2.65738
-2.63043
-2.5714
-2.60035
-2.59116
-2.61911
-2.04244
-2.10666
-2.09863
-2.06895
-2.11957
-2.08677
-2.03504
-1.89266
-1.83485
-1.90985
-1.83357
-1.88458
-1.87934
-1.927
-1.64595
-1.70779
-1.71289
-1.75594
-1.70485
-1.79306
-1.74039
-1.55284
-1.49946
-1.49376
-1.4305
-1.49633
-1.46549
-1.40133
-1.58701
-1.49815
-1.52981
-1.27713
-1.16559
-1.28129
-1.24723
-1.3094
-1.36126
-0.977575
-1.00755
-0.904283
-1.01942
-0.937003
-0.961353
-1.05135
-0.959663
-0.937088
-1.03597
-1.77856
-1.66862
-2.28978
-1.8465
-1.98456
-2.1653
-2.54822
-1.56046
-2.6214
-1.6391
-1.67883
-2.1812
-1.11718
-1.17651
-6.48617
-6.05083
-6.81805
-8.17345
-7.06315
-6.93306
-8.01194
-19.2221
-15.9519
-17.2968
-12.819
-9.98444
-15.2459
-12.5058
-11.8163
-13.6573
-11.2684
-13.9629
-12.9396
-11.9399
-12.0638
-6.67525
-6.38382
-6.5297
-5.93814
-5.96281
-6.22823
-6.23928
-11.0481
-9.02462
-9.41033
-8.05629
-8.96563
-4.80175
-4.9041
-4.90017
-4.3499
-4.57764
-4.55301
-4.37326
-3.7333
-3.79997
-3.33027
-4.34295
-4.1114
-3.3482
-3.56697
-3.66226
-3.73654
-3.32556
-3.69306
-3.75081
-3.56091
-3.31185
1979.7
1264.94
1175.15
543.801
718.348
898.401
238.179
339.117
158.134
271.299
-470.812
233.297
740.718
197.195
434.937
40.5225
292.647
590.143
605.975
435.239
436.411
783.554
626.214
481.034
200.254
272.126
0.051012
0.152914
0.0849135
0.263853
0.336069
0.180326
0.221805
0.107008
0.174502
0.0881845
0.0317959
0.0973122
-0.00740415
0.0579308
-0.191146
-0.182881
-0.251528
-0.066834
-0.150949
-0.10714
-0.186471
0.114118
0.145957
0.254842
-0.290773
-0.225661
-0.189973
-0.346506
-0.308548
-0.255987
-0.216841
-0.256008
-0.287059
-0.330639
-0.335778
-0.236643
-0.334391
-0.330245
-0.405693
-0.261507
-0.342897
-0.198987
-0.289742
-2.33125
-2.26773
-2.58406
-2.70739
-2.62752
-2.50994
-2.44506
-2.3344
-2.42645
-2.4437
-2.43273
-2.46337
-2.49293
-2.47563
-2.6706
-2.63364
-2.63693
-2.62792
-2.6628
-2.67939
-2.64507
-2.89797
-2.8865
-2.91272
-2.77924
-2.73946
-2.77201
-2.78922
-2.75598
-2.73431
-2.7662
-2.89772
-2.92426
-2.88848
-2.87335
-2.84734
-2.89688
-2.92358
-2.90113
-2.87461
-2.91138
-2.93757
-2.91052
-2.93606
-2.92431
-2.92343
-2.90541
-2.90552
-2.89394
-2.89432
-2.90197
-2.88756
-2.87291
-2.90207
-2.93261
-2.88653
-2.87113
-2.90259
-2.90003
-2.92357
-2.89314
-2.88306
-2.92236
-2.88959
-2.86485
-2.89502
-2.44901
-2.4892
-2.44133
-2.45793
-2.4212
-2.4506
-2.49021
-2.08375
-2.00569
-2.07906
-2.05843
-2.10378
-2.15127
-1.90445
-1.83114
-1.91044
-1.93772
-1.97284
-1.88234
-1.93079
-1.97249
-1.67568
-1.70196
-1.62163
-1.63619
-1.68251
-1.6256
-1.61362
-1.67343
-1.69395
-1.63619
-1.60965
-1.638
-1.56484
-1.56547
-1.53373
-1.62396
-1.58646
-1.33017
-1.39382
-1.35699
-1.41678
-1.35376
-1.42686
-1.36459
-1.41385
-1.41206
-1.38227
-1.47883
-1.50176
-1.48311
-1.44894
-1.25968
-1.18154
-1.1903
-1.07043
-1.16807
-1.20162
-1.12598
-1.49099
-1.41136
-1.46645
-1.52845
-1.44987
-1.45049
-1.53145
-1.10625
-0.992692
-1.14608
-1.17531
-1.08174
-1.07795
-1.19243
-1.73574
-1.85044
-1.7246
-1.67201
-1.54795
-1.62953
-1.73472
-1.21436
-1.40146
-1.26675
-1.28552
-1.42391
-1.30077
-1.21082
-1.52048
-1.66748
-1.70857
-1.90502
-1.73701
-2.9229
-2.9451
-3.18841
-3.56307
-3.40292
-2.99514
-3.08462
-3.21479
-3.32967
-2.42347
-2.72957
-2.57989
-2.79465
-2.5439
-2.32704
-2.55263
-2.62944
-2.39017
-4.35457
-4.501
-4.50395
-4.98583
-4.48335
-4.96299
-4.63152
-5.10206
-5.18689
-4.81395
-5.60862
-5.14291
-4.90042
-5.21671
-7.34695
-7.89886
-8.39295
-6.99746
-7.76443
-7.63114
-6.88716
-6.31881
-6.75635
-6.63186
-6.92511
-6.60362
-6.7267
-6.45364
-6.05592
-5.8714
-5.8053
-5.46401
-5.71488
-5.57178
-5.85136
11.3289
-3.26219
11.5108
6.43447
11.3291
3.56854
7.07104
183.67
283.821
490.109
485.567
438.075
439.71
457.9
684.422
644.786
492.421
789.772
874.361
635.277
660.786
725.055
627.3
452.917
581.594
505.934
109.304
116.605
76.7127
43.2922
68.4993
80.7005
98.6001
282.644
114.644
211.397
184.012
254.189
226.551
361.746
202.639
-16.4108
-41.3194
-28.4132
-12.2575
-1.07739
-27.9985
-28.7738
-22.5977
-25.5775
-29.5926
-22.1482
-12.0183
-21.1781
-27.7925
-13.0179
3.69749
-15.5732
-5.18197
4.79469
-21.4024
2.02049
2.13458
-23.006
-18.9054
-0.573245
-9.87429
-16.0049
3.41214
3.83856
-10.9878
-10.8201
4.41646
2.12351
1.68167
1.76844
2.82457
2.82885
2.67788
2.48257
2.56501
2.58759
2.32273
2.36659
2.25706
2.17074
1.93415
0.984014
0.870331
0.996845
1.03365
0.86904
0.81676
0.971765
1.22965
1.33703
1.1248
1.06834
0.981502
1.1209
1.20307
0.712005
0.618712
0.770662
0.813045
0.737949
0.833146
0.935544
0.664015
0.799065
0.784227
0.803025
0.870746
0.711153
0.798888
0.756271
0.667027
0.80288
0.926093
0.851288
0.353493
0.445901
0.472251
0.432835
0.503599
0.496156
0.597468
0.306505
0.396855
0.421416
0.396852
0.314418
0.742025
0.771533
0.642049
0.847292
0.926142
0.836259
0.778654
1.52322
1.41179
1.56957
1.58178
1.5028
1.42429
1.53499
1.91646
1.69868
1.7293
1.58357
1.39435
1.67652
1.51567
3.86922
3.34102
3.56108
2.99311
3.34171
3.35862
2.78915
9.8654
9.6463
11.3473
5.54742
6.31535
7.85136
5.60839
6.6986
8.06445
6.96065
5.62246
4.59997
5.00417
6.34886
7.33437
9.27932
10.1754
10.5914
9.97249
10.4576
2.79869
3.29021
3.0913
3.05604
2.79154
3.20567
3.24562
2.90224
3.22438
2.3889
2.90543
2.75172
3.11638
2.64891
1.60719
1.27871
1.34144
2.16404
2.36355
2.08219
1.86197
-1.70634
-1.70872
-1.88003
-1.92529
-2.05162
-1.79573
-1.74912
-2.62343
-2.3788
-2.1216
-2.30983
-2.17981
-2.0002
-2.03418
-1.44573
-1.41076
-1.46337
-1.53288
-1.48184
-1.42568
-1.43226
-1.51859
-1.55118
-1.37843
-1.38311
-1.37388
-1.38352
-1.40135
-1.39743
-1.38455
9.33136
3.26307
-22.0603
0.852125
-16.4594
4.18801
0.440637
-2.87941
-1.15716
-1.83009
2.44201
-22.6026
11.3964
-1.77242
6.20037
5.11848
-6.5344
7.12193
-8.16719
5.44641
0.269508
1.01061
4.64482
0.0349962
-2.29698
-2.09892
-2.97238
-3.20535
-3.98196
-4.32164
-5.20222
-3.45646
-3.3904
-2.88665
-2.86965
-2.80437
-2.81645
-2.90023
-2.90066
-2.81056
-2.65281
-2.74311
-2.67391
-2.58166
-2.61449
-2.38013
-2.3816
-2.34835
-2.36254
-2.40073
-2.37967
-2.3449
-2.43641
-2.40809
-2.40026
-2.39387
-2.43348
-2.44484
-2.41019
-2.52574
-2.54261
-2.49577
-2.51507
-2.53308
-2.495
-2.48028
-2.57295
-2.53251
-2.53382
-2.52109
-2.55835
-2.57903
-2.54154
-2.62598
-2.57734
-2.61835
-2.63261
-2.67181
-2.73744
-2.68721
-2.72576
-2.75121
-2.71564
-2.68568
-2.72228
-2.85472
-2.88627
-2.87118
-2.82017
-2.8543
-2.85439
-2.82178
-2.93639
-2.90553
-2.9017
-2.87196
-2.81997
-2.85717
-2.91484
-2.88011
-2.89804
-2.86325
-2.83732
-2.8732
-2.91645
-2.91534
-2.93426
-2.89778
-2.88067
-2.81972
-2.85384
-2.87424
-2.89133
-2.93535
-2.89918
-2.90232
-2.66306
-2.72279
-2.70346
-2.69827
-2.7362
-2.70041
-2.66201
-2.72049
-2.75968
-2.71072
-2.72128
-2.67849
-2.69765
-2.66032
-2.72619
-2.78993
-2.74651
-2.56753
-2.50241
-2.56441
-2.54606
-2.58618
-2.63234
-2.4758
-2.43886
-2.42182
-2.3621
-2.40497
-2.47825
-2.44011
-2.40458
-2.44221
-2.40942
-2.35914
-2.42287
-2.4381
-2.475
-2.40217
-2.44113
-1.97516
-2.03491
-2.04365
-2.0965
-2.05182
-2.02094
-2.07064
-1.95919
-1.98382
-1.99066
-2.05057
-2.02585
-2.04106
-2.00872
-1.99352
-1.93569
-1.95701
-1.94249
-1.99555
-1.95637
-2.0095
-1.78601
-1.86182
-1.81317
-1.93254
-1.91111
-1.70345
-1.68643
-1.74886
-1.74693
-1.68683
-1.70678
-1.76648
-1.78607
-1.77258
-1.75829
-1.85328
-1.85992
-1.83775
-1.81972
-1.66591
-1.59784
-1.61891
-1.527
-1.60779
-1.55552
-1.623
-1.91836
-1.93196
-1.86231
-1.96763
-1.89551
-1.73073
-1.6732
-1.66789
-1.77152
-1.78624
-1.7121
-1.70815
-1.63508
-1.63227
-1.71975
-1.64272
-1.56956
-1.61439
-1.6867
-2.04919
-2.03043
-1.96262
-2.05692
-2.10526
-2.07044
-2.02179
-2.20183
-2.15428
-2.24346
-2.30072
-2.32247
-2.27576
-2.30188
-2.22085
-2.25049
-1.91886
-1.96952
-1.99094
-2.04244
-2.09361
-2.0303
-1.99624
-2.59353
-2.4995
-2.48287
-2.69622
-2.73686
-2.32401
-2.33767
-2.21816
-2.43093
-2.33196
-2.28496
-2.37297
-2.95977
-2.99194
-3.13715
-3.04459
-3.07405
-3.29296
-3.19442
-4.68827
-4.35685
-4.43058
-4.32067
-4.45399
-4.50744
-4.7565
-4.27335
-4.18596
-4.14364
-4.13624
-4.33598
-4.21055
-4.36674
-5.0887
-4.69681
-4.89383
-4.85737
-5.07004
-4.91912
-5.18164
-4.32398
-4.43221
-4.48324
-4.5255
-4.40595
-4.65437
-4.47976
-4.65698
-4.66665
-4.86586
-4.46591
-4.45241
-4.98457
-5.13512
-5.06872
-5.16971
-5.03639
-5.17565
-5.01382
7.74671
2.46498
7.33116
-5.35617
1.15615
1.01187
6.74621
149.883
123.537
103.129
76.6501
71.5248
83.9129
48.0321
45.2459
60.9829
56.898
39.4608
59.9834
22.7098
91.5194
64.4931
57.4294
70.6912
45.0591
65.2449
91.5507
68.9112
91.5564
52.3333
67.1628
61.5341
37.507
1.47174
1.50967
1.4645
1.42029