/*--------------------------------*- C++ -*----------------------------------*\
| =========                 |                                                 |
| \\      /  F ield         | OpenFOAM: The Open Source CFD Toolbox           |
|  \\    /   O peration     | Version:  v2012                                 |
|   \\  /    A nd           | Website:  www.openfoam.com                      |
|    \\/     M anipulation  |                                                 |
\*---------------------------------------------------------------------------*/
FoamFile
{
    version     2.0;
    format      ascii;
    class       surfaceScalarField;
    location    "0.2";
    object      phi;
}
// * * * * * * * * * * * * * * * * * * * * * * * * * * * * * * * * * * * * * //

dimensions      [0 3 -1 0 0 0 0];
oriented        oriented;


internalField   nonuniform List<scalar> 
13152
(
9.38606e-07
2.02367e-05
-1.53636e-06
-1.9639e-05
1.86589e-05
-1.71348e-05
-5.85501e-07
-3.48281e-06
4.23784e-05
-3.46594e-05
3.5393e-05
-2.27004e-06
2.11997e-05
-7.54981e-05
2.85089e-05
-2.4444e-05
6.04192e-05
-1.6127e-05
-2.95724e-05
-2.83952e-05
7.40946e-05
3.9157e-07
-1.68292e-05
3.10681e-07
-2.98969e-05
7.16057e-07
7.86397e-06
5.16724e-06
-2.98604e-05
7.84052e-06
3.34137e-07
-5.07269e-06
-1.5482e-05
-2.98024e-05
-8.63735e-06
-1.46599e-05
-5.13077e-06
2.84281e-05
-6.56543e-08
-8.66146e-06
8.97617e-08
-1.41914e-05
-5.34252e-07
5.64868e-06
-3.05531e-05
1.6243e-05
-2.93979e-05
2.99158e-05
2.93502e-05
-5.81925e-07
3.29504e-08
-1.51808e-05
-2.98938e-05
1.24358e-07
-7.49351e-05
3.26e-07
1.60067e-05
3.01922e-05
4.95585e-08
7.4627e-05
3.58338e-05
1.26801e-05
2.53593e-05
-7.38732e-05
3.2396e-07
-6.51923e-07
3.61617e-05
1.24186e-05
2.63389e-07
-1.87847e-05
7.35816e-05
7.77962e-05
2.90952e-05
-7.31101e-07
-2.93628e-05
9.98768e-07
-1.63714e-05
-2.68989e-05
7.23654e-05
1.93883e-07
-1.72964e-05
-8.07581e-06
7.99898e-06
2.70712e-07
5.28392e-06
-3.06561e-05
-4.95618e-06
-1.39437e-05
-2.90351e-05
-1.38033e-05
1.30283e-07
2.91223e-05
2.17475e-07
4.1853e-06
3.28933e-06
-1.64031e-07
-7.3106e-06
-6.22719e-07
1.94672e-06
2.8613e-06
-3.29932e-06
5.96593e-06
-4.46548e-06
-2.07085e-06
8.48305e-06
-9.51096e-07
-3.67841e-06
-3.7989e-07
-2.28958e-06
-6.29856e-07
1.42117e-06
4.16488e-06
-1.7586e-06
1.10892e-06
-4.99928e-06
-8.10701e-07
9.28206e-06
-3.26739e-06
-5.20397e-06
1.39999e-05
-5.16161e-06
-9.649e-06
-1.07296e-05
-1.5856e-05
3.20021e-06
1.2093e-06
-9.57113e-06
2.08826e-07
-2.75999e-07
-1.04706e-05
-5.01148e-08
-2.51173e-05
-3.3135e-06
-5.94003e-06
-7.44257e-07
9.99779e-06
-2.55941e-07
-3.02825e-06
-2.93023e-08
-6.0165e-06
-1.79482e-07
1.13285e-05
7.71354e-06
-2.50586e-05
1.04773e-05
6.71736e-07
-5.15887e-06
1.48919e-05
-4.73582e-07
8.36609e-06
7.91415e-06
7.56287e-06
-2.38431e-05
-1.12012e-07
7.65201e-06
8.2611e-07
7.88415e-06
-8.19963e-08
-1.04439e-06
7.4997e-06
1.19671e-06
7.7386e-06
-1.22008e-06
-8.77147e-06
2.41553e-05
-1.11486e-06
-4.03301e-05
-2.71209e-05
-1.10358e-05
7.84869e-05
-3.34917e-06
-2.76283e-05
-9.3526e-06
-3.23483e-06
-2.72353e-05
4.53294e-05
-1.15284e-05
-6.14294e-05
-3.68683e-05
7.11619e-05
-3.52589e-05
-4.84421e-06
-7.40226e-05
2.56054e-05
-6.04294e-06
-2.17824e-05
2.2199e-06
-4.27065e-05
-3.62296e-06
7.19348e-05
-2.08326e-05
-2.79168e-05
3.24194e-05
2.87571e-06
-5.70775e-05
2.56737e-05
8.96559e-06
-4.02369e-05
6.22876e-05
-5.81939e-05
4.57869e-05
1.66682e-05
-1.85185e-05
-4.39367e-05
-2.1504e-05
1.93837e-06
6.53525e-05
2.49759e-05
-2.98116e-05
-6.94051e-05
2.6668e-05
6.7713e-05
1.8554e-05
-0.000117771
-2.73733e-05
5.59797e-05
-2.73377e-05
-1.29161e-05
-1.1697e-05
-1.93781e-06
2.65509e-05
7.69449e-06
-1.02626e-05
-1.0348e-05
-3.66489e-06
-3.37654e-07
5.56489e-06
1.76058e-05
-3.34332e-05
9.81229e-06
-1.45954e-05
1.8013e-05
-1.18656e-05
3.36809e-05
-4.54715e-08
1.52483e-07
-4.36162e-08
-6.33958e-08
1.81736e-07
-5.85329e-09
-2.21354e-07
1.55977e-07
1.78242e-07
-4.95949e-08
3.15233e-07
-2.71491e-07
-7.48725e-08
-1.83386e-08
-4.97196e-07
9.68406e-07
-3.93827e-07
-4.7235e-07
4.87191e-08
2.58102e-07
1.65529e-07
3.09407e-07
7.4403e-09
-7.89197e-07
3.27263e-07
3.08624e-08
-8.71051e-07
1.13659e-06
-1.72377e-06
1.17998e-06
-2.4821e-06
-5.24364e-05
5.19801e-05
3.45067e-06
-2.99436e-06
8.25175e-05
4.97611e-05
7.99821e-05
1.17167e-05
0.000122781
5.34014e-06
1.77658e-05
2.66552e-05
2.73971e-05
5.79252e-05
-1.80111e-05
5.71249e-05
3.2053e-06
2.96102e-05
2.61996e-06
-2.69237e-05
-5.30643e-06
-2.50979e-05
-2.71745e-05
8.18826e-05
1.36938e-06
-2.38473e-05
-2.63506e-05
2.70045e-05
7.15437e-07
2.30058e-05
-7.32037e-05
-1.56781e-06
1.39788e-06
-5.48573e-06
-3.06177e-06
-5.49868e-05
1.92909e-05
3.87577e-05
-3.63729e-05
1.43938e-05
1.89173e-05
4.29256e-05
5.81586e-05
9.72278e-06
9.03877e-06
-4.36772e-06
-2.94471e-06
3.19583e-05
2.79557e-05
2.40087e-05
8.31696e-05
-3.23293e-06
5.88907e-06
3.37459e-06
-6.03072e-06
1.27636e-05
-6.29918e-06
-9.69739e-06
2.35442e-07
1.84173e-05
-1.28958e-05
5.68856e-06
1.05818e-05
-3.32157e-07
-1.85943e-05
1.2869e-05
-1.95003e-05
1.8793e-05
-5.06585e-06
-1.12697e-05
4.08633e-07
1.59269e-05
-3.01127e-06
3.00395e-06
-5.05853e-06
-5.09174e-06
-9.1892e-06
-1.09055e-05
4.70057e-06
9.20888e-06
-5.85951e-07
-1.53781e-05
1.08217e-05
-1.64994e-05
1.59309e-05
-2.00119e-06
2.06156e-06
-6.2116e-06
6.15123e-06
5.25889e-06
-5.2928e-06
-1.96728e-06
-8.31988e-06
1.56403e-05
1.97569e-06
8.49613e-06
-1.57646e-05
6.48014e-06
-6.47173e-06
4.21336e-06
-6.05309e-06
6.49789e-06
9.52933e-06
2.62081e-06
-5.89582e-06
-6.25432e-06
-4.56368e-06
1.5553e-06
1.25377e-05
2.97639e-06
-4.91926e-06
2.81788e-06
-8.6068e-07
-7.85301e-06
-8.49659e-07
5.22283e-06
-1.07711e-05
5.44542e-06
8.30205e-06
-2.2617e-06
-1.34287e-05
-2.9117e-06
7.50745e-06
-6.03409e-06
4.16003e-06
1.79567e-06
-4.15273e-06
-1.80297e-06
-1.30733e-06
-7.00916e-06
1.24765e-05
-4.99915e-06
5.48749e-06
1.54663e-06
6.83836e-06
5.38538e-06
-5.64173e-06
3.52397e-06
-5.14774e-06
5.36317e-06
8.04056e-06
1.669e-06
-3.59737e-06
-6.11219e-06
-1.79364e-06
1.44341e-07
9.68985e-06
-1.97432e-06
1.84968e-06
4.39586e-06
-1.87793e-06
-6.1153e-06
-1.24196e-06
5.78216e-06
8.94123e-06
-8.59805e-07
-1.00557e-05
3.45009e-06
7.34081e-06
-7.6393e-06
9.84742e-06
-1.0377e-05
-2.15354e-07
6.12216e-07
-1.73253e-07
-2.23609e-07
4.90648e-07
-3.9532e-07
-3.10681e-07
5.64934e-07
5.37933e-07
-8.14743e-08
2.57525e-07
-3.49301e-07
2.38374e-07
-7.15166e-07
3.36345e-07
-1.81945e-06
2.04804e-06
-1.05567e-06
1.92995e-06
-1.79501e-07
-6.18637e-07
-1.76058e-06
2.69123e-06
5.33338e-06
8.14596e-07
-8.8392e-06
2.92977e-07
2.03205e-06
3.66207e-07
4.09679e-06
1.52956e-06
-1.93041e-06
-1.00813e-06
4.97059e-06
-1.87488e-06
-5.38209e-06
8.47075e-06
-6.44237e-06
1.26468e-06
-3.61129e-06
-1.0431e-06
3.38972e-06
-8.19247e-06
1.24862e-06
8.20853e-06
-1.60587e-07
-1.16432e-05
6.80829e-06
-2.12113e-06
-5.73026e-06
1.36173e-07
1.00618e-05
-6.67226e-06
8.05705e-06
-8.95397e-06
-7.19976e-06
-2.31174e-06
4.69901e-06
4.81249e-06
9.64686e-06
1.06637e-05
-2.75103e-05
1.47353e-05
-7.40018e-06
6.66244e-07
-7.61041e-06
-1.42772e-05
1.9756e-05
9.1605e-06
-1.2774e-05
1.62854e-05
4.14778e-05
2.733e-05
3.2584e-05
-0.000101392
-4.11958e-06
3.10546e-05
1.45428e-05
2.89423e-05
-5.73179e-06
-4.06047e-05
-1.49831e-05
8.45301e-05
-2.72435e-05
-1.9093e-05
1.4984e-05
-9.64349e-06
3.10555e-05
6.96016e-06
-4.72582e-06
-4.26472e-06
2.03039e-06
-1.8717e-05
5.40644e-06
2.02707e-05
2.47615e-06
-2.59189e-05
9.59061e-06
-2.56912e-06
-1.12862e-05
1.67346e-06
9.94754e-06
-9.59499e-06
1.66749e-05
-9.68797e-06
-1.98792e-06
-3.57753e-06
-5.70497e-06
1.12704e-05
-3.68295e-06
-9.59119e-06
-3.53754e-06
-3.72294e-06
8.1966e-06
-4.66439e-06
-1.31234e-05
-8.43759e-06
1.09292e-05
-3.28078e-06
-8.69435e-06
-1.16681e-05
-1.58329e-06
1.48909e-06
1.5019e-06
-1.4077e-06
3.85038e-06
5.4805e-07
-5.98172e-06
1.4366e-06
3.90287e-06
-4.36886e-06
7.58817e-07
5.11195e-06
-8.05962e-07
4.02986e-06
-4.28777e-06
6.22528e-06
2.82206e-07
-2.19251e-06
3.20428e-06
-1.29398e-06
-2.7218e-06
1.48451e-07
2.85555e-06
4.29732e-06
-9.21163e-06
3.47675e-06
-2.8723e-06
-4.55997e-07
-2.9032e-06
9.2355e-06
-5.20784e-07
1.9458e-06
-2.19698e-07
-4.34882e-06
-1.37741e-06
4.38543e-06
1.3408e-06
3.94214e-06
4.18555e-06
6.76371e-06
-4.19898e-06
-4.27991e-06
-2.70458e-06
1.13699e-05
-5.68899e-06
2.74988e-06
-1.13808e-06
-2.22947e-06
6.62965e-07
-2.24855e-06
-4.57852e-06
1.0998e-06
8.37199e-07
5.63404e-06
-5.05838e-06
-1.76736e-06
1.85375e-06
4.972e-06
5.96767e-06
4.61429e-06
9.66803e-06
-5.46771e-06
5.41782e-06
-9.20579e-06
-4.31184e-06
1.47017e-05
9.92992e-06
-1.45214e-05
1.52861e-05
7.73344e-06
1.90108e-06
-8.01032e-06
-1.6242e-06
-9.64672e-06
-5.72271e-06
2.31029e-05
-1.38598e-05
6.11418e-06
1.06525e-05
5.89409e-06
-2.45569e-05
1.35995e-05
-4.57121e-06
-1.59235e-05
2.38003e-05
-2.38893e-05
9.9942e-08
-1.01624e-06
-8.8928e-09
9.25186e-07
-7.2408e-08
-1.13985e-07
2.86335e-07
-2.01439e-07
-8.87204e-07
1.72076e-07
6.65667e-08
-2.47535e-07
-6.58782e-08
1.23969e-07
4.93805e-08
3.45849e-08
-2.85404e-07
-1.00067e-06
1.62851e-07
5.24046e-08
-8.3698e-08
-8.81704e-07
-3.15301e-06
-1.15e-05
1.42293e-06
1.32301e-05
-3.41899e-06
-2.489e-07
5.14881e-07
-1.43911e-05
-5.27898e-07
7.15491e-07
1.45444e-05
-1.55088e-05
-1.43428e-06
3.57271e-06
1.81588e-05
-1.80054e-05
1.61966e-05
-1.06244e-05
1.98836e-06
-9.93157e-06
1.85676e-05
3.4737e-06
-1.69045e-05
2.80638e-06
2.22928e-06
3.23278e-06
1.12334e-06
1.1709e-06
-6.49603e-08
4.50304e-07
3.90582e-06
2.07806e-05
-6.84468e-06
-3.08404e-05
-6.3898e-06
1.72388e-05
5.57515e-07
-6.23129e-06
-5.38198e-06
-1.17059e-05
1.1904e-05
3.16761e-07
5.09685e-06
1.49209e-06
-3.7995e-06
5.41289e-06
-4.9472e-06
3.33381e-06
3.88607e-06
-8.3058e-06
6.20232e-07
-1.15815e-05
2.08805e-05
1.60811e-06
3.62843e-08
-9.9502e-06
1.22553e-06
1.00282e-06
-2.57534e-06
-7.78066e-06
-7.48626e-06
-1.69119e-05
-3.24154e-05
-3.52869e-05
8.46142e-05
-1.85993e-05
-6.43986e-05
6.60859e-05
-1.47227e-05
-3.6292e-05
6.07559e-05
-2.74391e-05
-9.77154e-05
-6.68371e-05
9.23061e-05
-5.31158e-05
-2.8444e-05
-0.000116847
5.70208e-05
6.82024e-07
-5.47353e-05
-2.96751e-06
-4.25224e-05
-1.20316e-05
0.000111575
-4.17645e-05
-7.58291e-08
1.58614e-05
-1.48033e-05
-5.57935e-05
-1.50156e-05
1.88455e-05
5.17828e-05
1.27047e-05
-0.000106252
5.31359e-05
-1.42892e-06
-1.54711e-05
5.35913e-05
-1.75698e-05
2.01771e-05
1.95516e-05
-1.65236e-05
-2.32052e-05
-9.98335e-06
-3.4435e-05
6.45955e-05
-6.81058e-05
7.76741e-05
-2.12985e-05
5.19525e-05
-4.71776e-05
3.30923e-05
-7.75959e-05
-5.44466e-05
7.19641e-05
-8.94601e-05
-4.42826e-06
-6.37098e-06
-2.33307e-06
1.31323e-05
1.50729e-06
9.08428e-07
-6.84397e-06
-7.08468e-06
2.22099e-06
-1.5426e-05
8.93629e-06
7.39819e-06
3.29096e-06
-2.5561e-05
1.3406e-05
-1.71997e-05
2.00092e-05
-6.7555e-07
-6.30298e-06
4.18831e-06
2.79021e-06
-1.35127e-06
-1.50134e-07
8.25857e-07
5.47805e-06
-2.09824e-06
-6.21223e-06
8.16033e-06
-7.98211e-06
6.70973e-06
-1.10817e-05
-2.25591e-06
7.12535e-06
-4.04298e-06
-1.50208e-05
2.70257e-06
-1.2675e-06
4.63497e-06
3.32642e-06
5.52138e-06
8.9057e-06
-1.77535e-05
3.39138e-06
9.8177e-06
-9.88266e-06
1.18304e-06
7.72972e-06
2.60405e-06
2.39348e-06
3.90816e-06
2.1538e-06
1.0268e-05
7.03409e-06
-8.96161e-06
3.11056e-06
-1.96694e-06
1.67307e-05
-1.17929e-06
1.36615e-06
-7.74742e-06
2.65812e-08
1.85532e-07
-1.36442e-07
-7.56719e-08
-2.38965e-08
1.27611e-07
-7.71338e-08
-2.14477e-08
1.83084e-07
-1.8185e-07
7.96748e-08
2.29787e-07
8.5492e-08
-4.03784e-07
3.5266e-07
-2.94433e-07
6.21236e-07
4.1177e-09
-3.52885e-07
1.01232e-07
9.89588e-08
3.6047e-07
-4.55312e-07
6.7126e-07
-2.93062e-07
1.25066e-06
1.91378e-07
-2.38996e-07
5.0366e-07
-3.48362e-07
2.96675e-07
-3.44293e-07
3.45023e-07
-4.35448e-07
-8.01466e-06
-2.2029e-06
1.60605e-06
8.61151e-06
-1.97109e-07
-2.62447e-06
-5.19308e-06
-1.43799e-06
-9.62022e-07
2.97283e-06
-4.96545e-06
5.54633e-07
3.95541e-07
1.61526e-06
7.55305e-06
-1.5143e-05
9.55464e-06
-6.87171e-06
-4.78329e-06
-8.96322e-07
1.25513e-05
-1.14078e-06
-4.48913e-06
-1.2418e-06
-4.84959e-06
-1.07448e-06
1.00979e-05
6.10196e-07
-1.55577e-05
6.05428e-06
2.96917e-06
1.01916e-05
-1.40705e-05
1.53495e-05
3.93547e-05
6.07421e-05
2.10402e-05
-0.000121137
1.37554e-05
-6.99111e-06
3.25904e-05
5.65582e-05
1.79393e-05
6.09291e-05
-6.68141e-05
-1.10618e-06
-4.18763e-06
9.77072e-05
1.82552e-05
-2.09813e-05
-6.40881e-05
-1.37614e-05
2.78291e-05
-1.73991e-05
6.01958e-05
-1.73402e-05
-7.99954e-06
9.7869e-06
2.78442e-05
-2.96315e-05
2.27581e-05
3.69765e-05
-6.7734e-05
8.44414e-06
2.41008e-05
1.52165e-05
-2.82512e-05
2.14789e-05
-3.84176e-05
7.7735e-05
-1.70035e-05
2.57288e-05
-2.75768e-05
2.28151e-05
1.90623e-05
1.18936e-05
-5.3771e-05
-7.71067e-06
5.91618e-06
2.46096e-05
2.90902e-05
-1.77385e-05
2.23408e-05
-2.52081e-05
8.78344e-06
-1.13975e-05
5.83479e-05
5.69647e-06
-8.96528e-06
-2.19393e-05
-9.61244e-06
3.91145e-06
-5.40879e-06
2.48865e-05
-2.48051e-06
3.03218e-05
1.5716e-06
-3.07823e-05
-1.11104e-06
-3.12211e-05
-3.39063e-05
9.54491e-05
-3.35776e-05
3.92818e-06
2.87581e-05
3.5864e-05
-9.54045e-05
3.29496e-05
-5.30257e-06
3.48115e-06
-4.4378e-06
5.76754e-06
1.14373e-06
-3.99235e-05
-1.54782e-06
4.03276e-05
-4.14537e-05
3.93001e-05
3.29736e-06
3.77602e-05
-0.000119137
4.29928e-05
-3.96601e-05
-4.88057e-06
-3.85862e-05
0.000121907
-2.89742e-06
3.61125e-06
-4.7973e-06
3.17932e-07
5.32292e-06
-5.33135e-06
-3.09496e-07
7.79737e-06
-7.81641e-06
3.36975e-07
-2.78621e-06
1.59065e-05
7.81029e-06
3.01699e-06
-1.61586e-05
8.50302e-06
-1.00222e-06
1.07522e-05
-1.55516e-05
1.6469e-05
8.71033e-06
5.75875e-06
2.7826e-06
-1.72517e-05
3.32882e-07
8.52513e-06
-1.47678e-07
8.13588e-08
6.01027e-06
-1.20537e-05
2.82023e-06
1.77586e-05
8.72317e-06
-1.79943e-05
9.7562e-06
-9.51665e-07
1.85867e-05
5.61715e-07
6.38911e-06
-4.73172e-07
-6.47766e-06
9.17708e-06
-1.00873e-05
1.47197e-06
-3.71496e-06
1.92811e-05
-9.38879e-06
1.03753e-05
-1.45969e-06
3.81279e-06
-1.96792e-05
1.31795e-05
-1.94541e-05
1.98399e-05
9.66294e-06
-5.92042e-07
-1.03765e-05
1.30563e-06
-7.78597e-06
-3.07991e-06
2.05288e-05
-4.6466e-07
-7.91335e-06
2.77383e-06
-3.18224e-06
-9.96811e-06
-3.12106e-06
2.81498e-06
-1.01294e-05
1.0333e-05
-6.68197e-07
3.11737e-06
-2.11601e-05
-2.83354e-06
1.00454e-05
-2.89841e-06
1.0031e-05
-2.62965e-07
-9.652e-06
-1.16042e-07
-6.65325e-06
-3.29197e-06
1.99762e-05
-2.32606e-07
-6.68361e-06
-1.01149e-05
1.02003e-05
-3.17997e-07
3.33271e-06
-2.01312e-05
-1.34439e-05
2.03522e-05
-1.97631e-05
-3.36436e-06
-2.23737e-07
2.91541e-07
3.29655e-06
7.72379e-06
7.57022e-06
-1.86584e-05
7.41106e-06
8.89991e-08
1.87539e-06
-1.92353e-06
3.39686e-07
-1.29201e-06
6.46395e-06
1.43365e-06
4.21304e-06
7.55269e-06
4.35373e-07
6.61079e-06
-2.92326e-07
-6.75384e-06
6.86841e-06
-6.85439e-06
4.21346e-07
-7.06074e-06
2.05399e-05
-6.67172e-06
6.4684e-06
7.12597e-06
-2.05515e-05
3.27017e-07
-5.54307e-08
-2.65318e-07
-2.11758e-07
-4.67085e-06
1.1187e-07
4.77073e-06
-7.64648e-06
7.53439e-06
-9.96672e-08
6.50881e-06
-1.88261e-05
1.79167e-06
-1.85878e-06
1.78982e-07
-1.38862e-06
7.95102e-06
-1.38892e-06
7.5347e-06
3.26111e-06
1.97812e-06
4.67341e-06
1.38468e-06
-8.03621e-06
2.57409e-07
1.9165e-06
-1.95783e-07
4.73111e-06
1.99705e-07
1.26472e-06
7.51293e-06
-7.39297e-06
6.09692e-06
-2.91571e-06
-7.99811e-06
-2.85476e-07
-2.93059e-06
-7.29391e-06
1.81755e-05
5.09501e-07
7.50281e-07
2.37168e-07
-7.39352e-06
-2.36614e-07
-2.87433e-06
-1.83041e-05
-4.14674e-06
-5.1439e-06
-9.79576e-07
1.02702e-05
-3.61828e-07
-3.56033e-06
-2.24586e-07
-4.17942e-07
-5.08778e-06
5.62916e-06
-5.90087e-06
-3.28862e-06
-8.73424e-06
1.33838e-05
-9.08577e-06
-6.64107e-08
-2.00744e-05
2.41023e-07
5.14826e-06
-5.17403e-06
-2.1525e-07
2.22186e-06
-2.26737e-06
2.86532e-07
-2.87877e-06
1.02489e-05
7.49768e-06
7.80116e-06
-2.04729e-05
7.11935e-06
1.63073e-07
-9.51955e-07
6.48574e-06
7.02717e-06
-6.92745e-06
1.86809e-07
-6.66292e-07
-6.17564e-06
-2.52513e-07
6.22229e-06
2.05861e-07
8.76999e-06
5.1931e-06
-2.01387e-05
8.88666e-06
-3.69175e-07
-2.40284e-06
-4.43574e-07
9.06871e-06
-2.42273e-06
2.25754e-07
-8.55926e-07
-2.90157e-06
3.31392e-06
-4.40698e-06
1.12832e-06
4.03199e-06
-3.24588e-06
1.00171e-05
-1.18291e-05
-1.12932e-05
-8.50115e-06
1.5964e-06
-1.01116e-05
-2.85247e-06
-6.84431e-06
-8.23151e-06
-4.38837e-08
-9.95566e-06
-6.80413e-06
-2.01072e-07
1.6089e-07
9.97922e-06
-2.00292e-05
-1.77514e-07
-6.33839e-07
7.69038e-06
-2.74264e-06
-4.3139e-06
1.15257e-05
-4.15746e-06
-8.00208e-06
-1.3078e-05
-9.17881e-06
-2.50189e-06
2.32756e-08
-2.6403e-07
1.07118e-06
-7.73053e-06
8.46806e-06
-2.04749e-05
-6.87476e-07
9.47267e-08
-7.19608e-06
-2.64778e-07
7.36613e-06
-9.78179e-06
9.55898e-06
3.17541e-07
2.06606e-06
-1.90439e-05
1.06001e-05
-9.32021e-06
-1.54471e-06
-1.86235e-06
1.98286e-05
2.89091e-06
-2.61375e-06
-9.59736e-06
-2.68652e-06
3.71509e-06
-2.79426e-06
9.66671e-06
-3.34196e-06
-5.99705e-06
-3.49762e-08
5.2556e-06
7.76422e-07
5.6297e-06
4.56325e-06
-1.619e-05
-2.56813e-07
5.85154e-06
7.33543e-06
-5.20647e-06
-2.38578e-06
-5.35778e-06
1.85447e-05
1.90835e-06
-2.55156e-06
1.80617e-06
5.76694e-06
1.20374e-06
-5.50361e-06
-1.46708e-06
-7.9436e-06
-3.82853e-06
1.75391e-05
-9.12564e-06
6.90937e-06
3.752e-06
-1.6165e-05
9.72958e-06
-4.28729e-06
-1.15535e-05
1.74545e-05
-1.69271e-05
4.97787e-06
8.0627e-06
1.95619e-06
-1.49968e-05
3.68337e-07
-5.7121e-07
5.18074e-06
7.34978e-06
1.08125e-06
8.63724e-06
-6.19908e-06
-3.00937e-06
-1.58803e-06
1.5406e-05
-1.03883e-05
1.61501e-05
-1.46312e-05
-3.90888e-06
1.26556e-06
3.83443e-06
-1.19111e-06
7.90143e-06
-1.09731e-05
4.58847e-06
-7.66038e-06
1.21578e-05
-3.21744e-06
-9.52994e-07
1.30299e-06
3.85354e-06
-4.20353e-06
3.00633e-06
5.57619e-06
-9.53551e-06
1.43897e-06
2.87035e-06
7.64247e-07
-3.20271e-06
3.87743e-06
-4.77799e-06
8.41258e-06
-2.68859e-06
5.06208e-06
-3.61304e-06
-1.13973e-06
1.90985e-06
5.32395e-06
-6.09407e-06
2.14946e-06
3.59203e-06
-6.88121e-06
1.90509e-06
2.15422e-06
3.14185e-07
-3.31326e-06
4.90416e-06
-6.18223e-06
8.65064e-06
3.40703e-06
-5.99723e-06
5.41772e-06
5.15527e-06
3.14819e-06
3.61592e-06
-1.19194e-05
-1.85724e-06
2.99711e-06
4.0154e-06
-1.90537e-06
3.19633e-06
7.81208e-06
-3.94472e-06
-5.77273e-06
-2.63904e-06
1.36474e-05
-3.19635e-06
3.55443e-06
-3.52514e-06
-2.08269e-06
-3.82277e-06
7.62707e-08
5.82919e-06
-4.32613e-07
2.4668e-06
-4.11688e-06
-3.63884e-06
-6.16539e-07
-1.2442e-05
3.88479e-06
1.1024e-05
1.39008e-06
-1.79489e-05
9.48463e-06
-1.17334e-05
1.34457e-05
-7.50089e-07
8.88546e-06
2.29964e-06
-1.0435e-05
1.3486e-05
-1.25078e-05
-1.72831e-06
3.4266e-07
2.20288e-05
-1.9057e-05
1.47036e-05
6.653e-06
3.67181e-06
-3.31638e-05
-5.16565e-06
3.30795e-06
1.65613e-05
3.90869e-06
-5.40254e-06
4.44996e-06
-1.30491e-05
8.10056e-06
-1.59151e-06
-1.22351e-05
-1.74726e-05
3.12993e-05
-6.53365e-06
-1.63017e-05
2.12438e-05
-1.31726e-05
-5.59617e-06
-1.15083e-05
-2.23547e-05
1.75613e-05
-1.37683e-05
-1.52127e-05
6.93789e-06
-4.24652e-05
-1.24266e-05
5.25483e-05
4.23845e-05
3.02901e-05
-0.000125223
-2.03004e-06
4.1547e-05
1.30313e-05
6.67923e-07
3.96865e-05
2.82668e-05
-4.1474e-05
1.38751e-05
-5.19564e-05
0.00011991
6.84062e-07
-1.10935e-05
-1.04999e-05
3.72189e-05
-1.96455e-06
-3.03312e-05
-4.92315e-06
-3.35499e-05
-2.90302e-05
9.9799e-05
-3.24939e-05
-3.02051e-06
5.42043e-06
-3.84983e-05
2.74666e-06
-3.43952e-05
1.07854e-05
2.81438e-05
-9.9136e-05
-9.27189e-06
2.93258e-05
2.67249e-05
2.35169e-05
-7.95676e-05
7.00952e-07
2.55126e-05
3.11223e-06
2.55016e-05
1.92432e-06
-2.44867e-05
-2.83009e-05
7.82892e-05
-2.63738e-05
3.81149e-06
2.14404e-06
-5.00098e-06
-6.44331e-07
7.62069e-06
-7.6694e-06
-2.10504e-05
2.10991e-05
-1.72556e-05
-2.83624e-05
5.32387e-05
-1.67978e-05
-8.12719e-06
-1.27827e-05
-2.80245e-05
1.97568e-05
-2.09987e-05
-2.01464e-05
6.33758e-06
-5.11599e-05
-2.27884e-05
-1.57713e-05
4.23667e-06
2.74695e-05
-1.59349e-05
8.30638e-06
1.84986e-05
-4.25763e-05
3.6655e-06
8.87755e-06
8.70848e-06
-2.06182e-05
1.55752e-05
-2.08141e-05
3.84002e-05
2.75099e-05
2.37807e-05
-3.2792e-05
1.70971e-05
3.78822e-05
-1.34961e-05
1.66586e-05
-1.72131e-05
-2.01879e-05
-1.03666e-05
-2.72572e-07
3.08271e-05
1.36876e-06
-5.98148e-06
-5.43979e-06
-3.55803e-06
1.83519e-06
-2.29513e-06
-4.97984e-06
1.12784e-06
-2.85068e-06
4.56912e-06
3.03381e-07
-7.16763e-06
1.06613e-05
-4.96436e-06
1.31832e-05
-1.88613e-05
2.3572e-05
-9.06887e-06
-3.06988e-06
4.64491e-06
7.49384e-06
-1.16181e-08
1.91555e-06
-1.09728e-05
-2.34629e-06
-7.35206e-07
-9.27551e-07
-2.63608e-06
1.21734e-06
-1.28448e-06
-3.78276e-07
3.25788e-06
7.47771e-06
-6.09067e-06
4.03296e-06
1.14048e-06
-2.24792e-06
8.44114e-06
-8.51038e-07
-2.26082e-06
-5.32186e-06
7.2044e-06
-1.62427e-06
5.80783e-07
1.5007e-06
1.17441e-07
-3.24241e-06
3.9968e-06
-1.91532e-06
1.41667e-06
-2.15027e-06
1.18415e-05
-6.42806e-06
1.49608e-05
-6.93379e-06
5.56581e-07
4.80451e-06
1.5727e-06
4.28566e-06
6.01939e-06
2.51935e-07
4.5903e-06
5.89761e-06
3.73716e-07
-2.10767e-06
1.25956e-05
3.07056e-06
4.77745e-06
4.41918e-06
-3.46894e-07
-8.84973e-06
-2.94302e-06
7.2142e-06
5.06267e-07
-5.13788e-06
6.12079e-06
-5.54974e-06
-3.14137e-07
2.44167e-06
6.82785e-06
-8.95539e-06
5.30991e-08
6.75811e-06
1.3103e-06
1.18448e-06
4.28193e-06
5.65648e-06
2.99543e-06
8.04461e-06
2.58005e-06
4.38672e-06
6.75996e-06
1.09161e-05
1.11468e-06
1.25196e-05
-1.09723e-06
-1.22001e-05
-8.91059e-06
-1.33456e-05
-5.38149e-06
-1.39635e-06
8.6489e-07
-8.01772e-06
7.60972e-06
-3.46286e-07
-2.62847e-06
-4.6802e-06
-1.02243e-06
1.33123e-05
-9.99334e-07
-4.02715e-06
1.0664e-05
1.84879e-06
-1.51412e-05
-8.11194e-06
-7.38357e-06
-1.7277e-06
-9.56194e-06
-3.95669e-06
-5.23211e-06
1.0555e-05
4.71441e-06
1.59686e-06
-6.26998e-06
5.75227e-06
1.09505e-05
1.57786e-06
-8.90495e-06
7.04169e-06
-5.288e-06
4.71579e-06
2.15007e-06
-1.33659e-05
-8.27027e-07
3.24768e-06
9.62456e-07
-1.75761e-05
4.01752e-06
1.6785e-05
-8.05166e-06
2.47891e-05
9.23948e-08
-5.7185e-07
-6.01672e-07
9.23854e-07
1.16027e-07
2.66231e-07
-4.85738e-07
1.03481e-07
7.19929e-07
-3.06118e-07
-2.97784e-07
4.48977e-07
5.37182e-07
3.53271e-07
-1.68747e-07
2.64454e-07
-1.50756e-07
1.04121e-06
-1.77145e-09
-4.73094e-07
-6.38266e-07
-3.75916e-08
-6.45232e-07
4.93467e-07
1.89357e-07
-2.56797e-07
5.29973e-08
1.66208e-07
-3.98376e-07
-5.03654e-07
8.23395e-08
3.33137e-07
7.79901e-08
7.52112e-07
-6.16775e-07
1.50831e-07
-8.92442e-07
3.43235e-07
-9.95237e-07
6.42415e-07
-9.93672e-07
8.53342e-07
-1.65577e-06
2.64023e-07
5.4657e-07
-1.86544e-07
4.38016e-07
-4.64554e-08
-2.47341e-07
1.58902e-07
1.34895e-07
-1.21091e-07
2.43784e-07
-1.69148e-07
-7.78413e-07
4.09981e-07
4.14624e-08
1.15887e-07
1.55307e-09
-7.84904e-08
3.63736e-07
1.70861e-07
9.28262e-08
-1.0421e-06
-1.01151e-07
6.81993e-07
2.43315e-07
-2.2858e-07
2.57651e-07
2.97412e-08
4.83022e-08
2.96433e-07
-3.74476e-07
-1.54375e-07
1.52762e-07
3.13543e-08
1.58381e-07
2.87803e-08
-5.83756e-08
1.82357e-07
-1.4788e-07
-6.24552e-08
1.26205e-06
-7.59097e-07
-1.80336e-07
6.59202e-07
3.33754e-08
5.44697e-07
-7.2903e-08
1.42642e-07
-1.2458e-07
5.48406e-08
2.46987e-07
8.61104e-08
-4.06e-07
3.40364e-07
4.92649e-08
2.36566e-07
-5.07191e-07
1.46046e-07
2.69392e-07
5.32843e-08
-2.03667e-06
2.64643e-06
-2.4946e-06
2.80288e-07
5.64909e-07
-1.60429e-06
6.71589e-07
-4.4189e-07
5.05894e-08
1.94397e-07
1.45861e-07
7.30529e-07
6.63835e-08
-1.49102e-07
-2.46439e-07
-1.29068e-07
-1.59308e-06
6.40091e-06
8.95037e-06
2.99057e-08
-1.53812e-05
4.59269e-06
1.42027e-06
3.87945e-07
4.09478e-06
9.44828e-06
-1.94778e-06
3.41865e-06
-2.95564e-06
1.3958e-06
-3.07509e-06
4.21423e-06
3.73464e-07
2.89584e-06
1.17558e-05
1.62519e-06
-1.62768e-05
4.7431e-06
-2.5272e-06
6.79937e-07
5.1832e-06
1.13157e-05
-1.0928e-05
1.7147e-06
1.43965e-05
1.49772e-07
2.37961e-07
2.16965e-05
-2.2509e-05
2.34715e-05
6.026e-05
3.92266e-06
-4.41909e-05
-1.99918e-05
-4.08196e-05
-1.467e-05
0.00011575
-3.79999e-05
1.10306e-06
6.96986e-05
-1.18633e-05
-0.000102026
-5.55156e-05
0.000110544
6.33562e-05
-0.000113219
8.9436e-06
4.90569e-05
8.82963e-05
2.1261e-05
-0.000158614
1.98713e-05
-1.03595e-05
3.95451e-05
5.83702e-05
4.97974e-05
6.95719e-05
-6.7615e-05
-1.23163e-05
-1.39369e-05
0.000123054
-9.45332e-05
0.000138967
-0.000140887
-5.00577e-05
-5.04268e-05
-5.7798e-05
0.000158283
2.47947e-06
-5.57443e-05
3.20714e-06
-1.45805e-06
-4.64893e-05
-3.54003e-06
-5.28251e-05
6.20776e-07
-5.43042e-05
-7.03387e-06
-4.55113e-05
-1.02509e-05
-0.000144826
6.6239e-06
7.56177e-05
-4.5783e-05
-3.64586e-05
4.41056e-05
-2.9932e-05
-7.54972e-06
-3.66214e-06
0.000123385
3.59171e-05
7.18764e-06
-7.30367e-05
4.80305e-05
-1.96631e-05
1.39109e-05
7.98845e-06
-1.47117e-05
1.26752e-05
4.92663e-05
-1.68798e-05
2.58928e-05
-5.46744e-05
-1.09796e-05
1.6979e-05
5.67628e-05
-6.27623e-05
3.59655e-05
3.82285e-05
-8.51736e-05
1.12655e-05
4.1679e-05
4.12985e-05
-6.64916e-05
-3.5369e-05
0.000118347
8.31466e-06
-2.35105e-05
-5.12957e-05
-2.24541e-05
-4.60024e-06
3.90254e-06
1.08154e-05
3.82112e-05
2.28422e-05
-2.16527e-06
-2.38577e-05
3.18075e-06
-2.28037e-05
-2.46105e-05
7.02564e-05
-2.34273e-05
-1.5417e-06
-1.15436e-07
-2.6867e-05
3.12472e-06
-2.43418e-05
-3.8409e-07
2.2202e-05
-7.24963e-05
-3.68157e-06
-3.0173e-06
-9.6891e-06
3.11054e-06
9.59587e-06
-4.51496e-06
4.30723e-06
-2.80957e-06
3.39594e-08
-1.4238e-05
-8.99953e-06
7.79103e-08
1.32288e-05
-2.94818e-06
-8.86094e-06
6.29465e-06
9.48308e-06
3.93846e-07
3.01524e-06
6.23664e-06
-9.64573e-06
4.50014e-06
9.12549e-06
-1.32318e-05
2.98759e-06
4.52779e-06
6.85797e-06
9.07518e-06
-9.69651e-06
5.75839e-06
1.02251e-05
-1.11575e-06
9.86173e-06
1.24872e-05
2.83317e-06
-2.36578e-06
7.04005e-06
-4.29395e-06
1.23499e-05
-4.37213e-06
-2.2876e-06
2.8226e-06
-7.31803e-06
9.04873e-07
4.67923e-06
-9.30664e-07
-4.65343e-06
6.29959e-06
-8.96719e-06
3.57247e-06
-8.3027e-06
1.92815e-05
-2.4626e-06
3.32966e-06
-1.79773e-06
2.66511e-06
-9.78115e-06
1.614e-06
-7.9161e-06
-3.35904e-06
-7.07796e-06
-9.45163e-06
-4.54403e-06
2.10736e-05
1.10153e-06
-9.2005e-07
-7.25944e-06
-1.15296e-05
3.17946e-06
-1.01406e-05
1.17993e-05
-2.57877e-06
4.66732e-06
-2.20674e-05
1.43055e-05
-2.11677e-05
2.15608e-05
-6.59985e-06
7.06222e-07
7.54823e-06
-1.6546e-06
7.2981e-06
8.20121e-06
-2.20992e-05
7.06943e-06
9.3489e-07
-6.84951e-07
7.43617e-06
1.45e-06
8.16801e-06
-1.30473e-06
-6.36643e-06
2.16039e-05
2.00463e-06
-3.68028e-06
-1.84518e-07
2.34282e-07
3.63052e-06
8.2054e-06
7.81297e-06
-1.96987e-05
7.63542e-06
3.85463e-07
2.00343e-06
-2.08499e-06
3.15839e-07
-1.30212e-06
6.93608e-06
1.53551e-06
4.19248e-06
7.86882e-06
7.44369e-07
6.96103e-06
-7.16705e-06
-5.38348e-07
6.75618e-06
-6.96539e-06
9.53582e-07
-7.12992e-06
2.08471e-05
6.9504e-06
7.78285e-06
-2.19003e-05
6.79755e-06
9.64759e-08
7.20983e-07
-2.35892e-07
-2.54938e-06
-8.97068e-06
-7.66184e-06
1.91819e-05
3.49641e-07
-6.6231e-09
-2.8924e-06
-9.34474e-06
7.23696e-07
-4.17597e-06
4.05611e-06
1.13239e-07
2.24397e-06
-9.31234e-06
6.74932e-06
-1.38501e-05
7.41499e-06
3.39044e-06
4.76856e-07
6.35351e-06
3.4115e-06
-1.90773e-05
6.36153e-06
1.05227e-07
-1.01154e-05
1.98674e-05
-1.04086e-05
3.98381e-07
7.79055e-06
-2.64594e-07
6.3567e-07
-8.16163e-06
-4.65504e-06
-6.21278e-06
-2.15402e-07
-4.70424e-06
-1.07001e-05
1.05649e-05
-8.02451e-08
4.86146e-06
-2.02658e-05
-6.30511e-06
7.28001e-07
1.58817e-05
2.01415e-05
-4.31294e-07
7.71867e-06
4.12144e-06
2.85598e-07
-6.54287e-06
6.45009e-06
-1.92813e-07
-6.6415e-06
6.55652e-06
3.70572e-07
6.75823e-06
-1.99426e-05
-6.7754e-06
-6.71744e-06
2.00494e-05
-6.5234e-06
1.18582e-07
4.46314e-07
-2.11487e-07
1.78965e-07
-6.78515e-06
-6.53468e-06
-6.81889e-06
-3.0751e-07
-6.52218e-06
4.45326e-08
-2.3567e-07
-6.60652e-06
-6.61061e-06
6.41708e-06
-4.21405e-08
6.50421e-06
-1.97213e-05
3.80629e-07
-3.98592e-07
-2.11868e-08
4.52836e-07
6.5625e-06
-4.24121e-07
-6.59122e-06
6.76038e-06
-6.68649e-06
3.78939e-07
-6.96606e-06
2.02889e-05
-6.44481e-06
6.57998e-06
-5.59287e-07
6.89932e-06
-1.99354e-05
2.85857e-07
-7.30207e-08
-1.00225e-07
-2.26721e-07
-4.35121e-06
-8.27268e-06
-2.03544e-05
1.14006e-07
-6.93497e-06
6.55773e-06
2.63236e-07
-6.76181e-06
6.7232e-06
1.52616e-07
6.55979e-06
-2.02566e-05
-7.22024e-06
-6.79266e-06
2.07361e-05
-6.63812e-06
-4.29499e-07
6.68524e-07
-7.46859e-07
4.33592e-07
7.4805e-08
6.91147e-06
-7.06447e-06
7.81967e-08
1.03987e-05
-1.10113e-05
-1.06627e-05
-1.39633e-05
3.21125e-06
-2.12871e-05
-1.00173e-05
-5.67166e-07
-2.07694e-05
1.42553e-05
1.07257e-05
-3.6536e-06
-2.13274e-05
-1.04596e-05
-1.07016e-05
-6.79999e-06
-3.01115e-07
2.85484e-07
-1.03406e-05
-6.46475e-07
-6.81562e-06
-2.08098e-05
-5.57862e-07
8.2064e-06
-3.08654e-06
-4.56201e-06
1.20995e-05
-4.44414e-06
-8.21321e-06
-1.42277e-05
-1.04891e-05
-2.49774e-06
-5.08266e-07
-8.05288e-08
7.47903e-07
-7.68979e-06
8.67546e-06
-2.21553e-05
-2.32187e-06
-4.58862e-06
-5.81621e-06
-1.38611e-06
1.17909e-05
-1.0905e-06
-4.38375e-06
8.85634e-07
-5.64469e-06
-1.26201e-06
-6.58711e-06
-1.11076e-05
1.63086e-05
-7.93153e-06
-3.03933e-06
9.0081e-06
-2.25843e-05
-3.36147e-06
-1.06196e-05
-2.69793e-07
7.85032e-06
3.03907e-06
4.47643e-06
4.21098e-06
-1.9307e-05
-4.39515e-07
4.64615e-06
1.38208e-05
-9.0765e-06
-5.18377e-06
-3.3979e-06
2.18648e-05
-2.95748e-06
8.18429e-06
2.62351e-06
5.34831e-06
-4.09481e-06
1.68415e-05
-2.05697e-05
2.16279e-05
1.62574e-06
-2.24617e-06
5.42815e-06
-4.80772e-06
-4.82496e-06
5.00516e-06
1.44555e-06
6.70814e-06
-1.37793e-05
-2.92221e-06
-7.4405e-06
1.53679e-05
-5.76394e-06
-3.1434e-06
4.0876e-06
-5.15575e-06
1.62246e-06
5.28001e-06
-6.77197e-07
2.41992e-06
-2.43478e-06
1.63732e-06
1.76937e-06
5.93056e-06
5.17278e-06
8.63196e-07
1.62703e-06
5.18307e-06
5.29795e-06
2.16357e-07
1.09371e-06
-1.09483e-06
-2.15238e-07
7.84167e-07
-9.17108e-07
1.25924e-06
9.43377e-07
-2.75337e-06
-1.03244e-06
5.09824e-06
-3.71308e-07
-5.75937e-06
-3.81345e-06
-1.48864e-06
1.04003e-05
3.86675e-07
-4.57143e-06
-6.54969e-06
5.19318e-06
1.74319e-06
3.25089e-06
-1.4372e-05
-7.55338e-06
1.12579e-05
2.3799e-06
4.33466e-06
-3.17883e-06
-3.53573e-06
3.31415e-06
-6.70697e-06
-5.25463e-06
1.29034e-05
-2.56617e-07
4.59024e-06
-7.51245e-06
2.71159e-06
-6.50393e-06
-1.85312e-07
2.299e-06
2.47655e-06
1.9876e-06
5.38672e-07
7.11277e-07
-5.43064e-06
-2.24435e-06
-6.06757e-06
8.61111e-07
5.76258e-06
-5.56119e-07
5.09872e-06
2.87717e-06
-1.40435e-05
5.79419e-06