/*--------------------------------*- C++ -*----------------------------------*\
| =========                 |                                                 |
| \\      /  F ield         | OpenFOAM: The Open Source CFD Toolbox           |
|  \\    /   O peration     | Version:  v2012                                 |
|   \\  /    A nd           | Website:  www.openfoam.com                      |
|    \\/     M anipulation  |                                                 |
\*---------------------------------------------------------------------------*/
FoamFile
{
    version     2.0;
    format      ascii;
    class       volVectorField;
    location    "0.2";
    object      U;
}
// * * * * * * * * * * * * * * * * * * * * * * * * * * * * * * * * * * * * * //

dimensions      [0 1 -1 0 0 0 0];


internalField   nonuniform List<vector> 
6576
(
(0.0322849 -1.48223 -0.0602926)
(-0.087189 -1.53133 0.0736432)
(-0.0299119 -1.56596 0.0129167)
(0.0421437 -1.45233 -0.0583867)
(-0.00336381 -1.50555 0.00559332)
(-0.0745124 -1.59367 0.0753294)
(-0.0149518 -1.54477 0.0304664)
(0.0137247 -1.4973 7.19495e-05)
(0.0150541 -1.24803 -0.0104642)
(0.0153607 -1.45954 -0.00104987)
(-0.0113301 -1.51708 -0.016521)
(-0.0158691 -1.55968 -0.0131446)
(-0.00212251 -1.54908 0.0040494)
(0.0064082 -1.48774 -0.00129162)
(0.0557713 -1.45443 0.0218517)
(0.00929001 -1.82118 -0.0325948)
(0.0592901 -0.860632 0.0331003)
(0.0159672 -1.71671 -0.0166057)
(0.0511728 -1.5591 0.0585574)
(0.0153929 -1.4805 0.00243481)
(0.0439714 -1.37429 0.0457619)
(0.00182805 -1.51872 0.011726)
(0.00937675 -1.4652 0.00726218)
(-0.00478333 -1.5 -0.0125313)
(0.00228933 -1.60286 0.011766)
(0.0500305 -1.52917 0.0516325)
(0.0603907 -1.49466 0.0610437)
(-0.000310231 -1.45757 0.0141355)
(-0.00573002 -1.58062 -0.031164)
(0.00265732 -0.961231 -0.00718133)
(-0.0490425 -1.57143 0.0585338)
(-0.0256726 -1.45505 -0.00884865)
(-0.00980219 -1.55377 -0.000603005)
(0.0104653 -1.45459 0.0297058)
(0.0147152 -1.4649 0.0337344)
(-0.017844 -1.25391 0.0100544)
(0.00312383 -1.63864 0.0121879)
(-0.0124774 -1.56673 0.0103594)
(0.0169359 -1.47937 0.0241345)
(0.0094768 -1.47533 0.0172885)
(0.00146305 -1.31462 0.0314657)
(-0.0159929 -1.47582 0.00649546)
(-0.0016071 -1.40594 0.00527427)
(0.0444639 0.0455958 0.0709952)
(0.0389985 0.0630527 0.138429)
(-0.031912 -0.0504905 0.276687)
(-0.0773938 0.131191 0.175605)
(-0.0110784 0.0765284 0.110163)
(-0.205851 -0.163789 -0.242244)
(0.10786 0.0504336 0.173057)
(-0.0638899 0.144835 -0.0227185)
(-0.235279 0.0422628 -0.155365)
(-0.00711846 0.475188 -0.0160372)
(0.00305608 0.47626 0.0245762)
(0.000684194 0.470365 0.00455559)
(-0.00565549 0.479599 0.030491)
(-0.00951757 0.464714 0.00275315)
(-0.0131731 0.462737 0.00318931)
(-0.000641215 0.474606 0.015701)
(-0.0084089 0.468718 -0.00288741)
(-0.0195396 0.462263 0.0230066)
(0.00376859 0.478678 -0.0128837)
(0.0013123 0.47303 0.0230118)
(0.00955897 0.470223 0.0101081)
(0.00027792 0.479364 0.0288183)
(-0.0138813 0.480219 0.04025)
(-0.00261524 0.450538 0.0195522)
(0.00425773 0.446245 0.0149236)
(0.000494884 0.443489 0.00185384)
(0.0147507 0.458464 0.0228766)
(-0.0098436 0.462593 0.0334008)
(0.00302231 0.456182 0.021467)
(-0.0153736 0.463873 0.0373317)
(-0.15236 -1.4588 -0.0119851)
(-0.332236 -1.45685 -0.18341)
(0.0807168 -1.44107 0.102284)
(-0.0866227 -1.27579 -0.12758)
(-0.0111569 -1.34142 0.0319421)
(0.0372195 -1.34529 0.15148)
(0.0829826 -1.3272 0.120661)
(0.0100026 -1.41028 -0.195811)
(-0.0689734 -1.26832 -0.424141)
(-0.0672133 -1.10958 -0.535356)
(0.0909415 -1.07676 -0.190781)
(0.0485807 -1.19188 -0.184037)
(0.00990114 -1.15041 -0.341593)
(0.00412559 -1.13204 -0.458898)
(0.161562 0.877346 1.11863)
(0.168984 1.17684 1.16077)
(-0.0836367 0.970552 1.62284)
(-0.256943 0.979398 2.18149)
(-0.30969 0.627067 2.12743)
(-0.0470229 0.956036 1.59515)
(-0.0807214 0.585754 1.67782)
(-0.229101 -0.100464 0.558098)
(0.0439383 -0.597536 0.592271)
(-0.230169 0.0046687 0.308114)
(-0.084144 -0.681806 0.212691)
(0.168531 -0.694352 0.106731)
(-0.324528 0.061544 0.586952)
(-0.177418 0.0368232 0.650805)
(0.00696249 -0.00145584 -0.00605783)
(0.00370001 0.00268034 -0.00836225)
(0.00264217 0.0161786 0.00142062)
(0.00961977 0.0108659 -0.00419156)
(0.00130948 0.00356329 0.012644)
(0.00110061 0.0191466 0.00288159)
(-0.0185885 0.00581188 -0.00540163)
(0.0352125 -0.000926048 -0.00918926)
(-0.00995257 -0.00401702 -0.00571282)
(0.031267 -0.00701459 0.00187743)
(1.09375e-05 0.0173808 -0.0338635)
(0.0265204 -0.00523157 -0.0713528)
(-0.0133859 0.0376652 -0.0432287)
(0.0478941 -2.05297 0.0672233)
(0.00523746 -2.48989 0.0335617)
(0.0882916 -2.41625 0.0484346)
(-0.0361331 -2.5837 0.0645954)
(-0.0166215 -2.64846 0.0792858)
(0.0575038 -2.60204 0.0659674)
(0.0463612 -2.55243 0.109449)
(0.0721702 -1.46031 0.0961527)
(0.0868276 -1.5441 0.116522)
(-0.0274911 -1.46931 0.0429156)
(-0.0607405 -1.49347 -0.0395178)
(-0.0643632 -1.42829 -0.0163572)
(0.0942011 -1.64664 0.111591)
(0.217736 -1.47471 0.0943047)
(-0.039 -1.83177 -0.0129997)
(0.0232185 -1.87729 -0.0548949)
(-0.0377727 -1.78681 -0.0531459)
(-0.0286061 -1.72549 -0.505605)
(-0.191527 -1.81473 -0.333642)
(-0.041354 -1.63727 -0.257419)
(-0.189811 -1.74364 -0.26661)
(-2.90905e-06 0.321593 -0.186619)
(-0.00669292 0.363395 -0.183075)
(0.00211684 0.350954 -0.185954)
(0.0038452 0.339156 -0.197747)
(-0.00344957 0.351493 -0.208178)
(-0.00481853 0.366098 -0.194966)
(0.00474404 0.360732 -0.196505)
(0.00189556 0.302366 -0.170531)
(0.000164876 0.273417 -0.16672)
(-0.00460601 0.316686 -0.172761)
(0.000710351 0.285657 -0.175236)
(-0.000103507 0.29047 -0.184359)
(-0.000905438 0.308924 -0.181017)
(0.000847444 0.30273 -0.176602)
(0.000751691 0.286072 -0.114718)
(0.000986845 0.290502 -0.108952)
(-0.00525317 0.295351 -0.109946)
(0.00669952 0.294548 -0.135039)
(-0.00429832 0.301846 -0.118763)
(-0.00580338 0.305101 -0.113256)
(0.00286122 0.294291 -0.121969)
(0.00384761 0.247877 -0.116005)
(0.00705809 0.236859 -0.118325)
(0.000311077 0.229914 -0.137584)
(0.00279808 0.248959 -0.128065)
(0.00661288 0.241217 -0.122717)
(0.000277202 0.242814 -0.151735)
(-0.00139635 0.252585 -0.158702)
(0.00552956 0.244835 -0.137922)
(0.00253228 0.246837 -0.137652)
(8.85072e-05 0.228325 -0.0984777)
(-0.0034672 0.238336 -0.0998641)
(0.000873867 0.223236 -0.101756)
(0.00490618 0.234044 -0.106484)
(0.000809631 0.252702 -0.104376)
(-0.00247661 0.255497 -0.0965701)
(0.00211268 0.237602 -0.100168)
(0.00648144 0.194588 -0.114704)
(0.00562517 0.17993 -0.127662)
(0.000312032 0.158829 -0.15812)
(0.0156075 0.197491 -0.114938)
(-0.00269907 0.179918 -0.103422)
(-0.00081889 0.188334 -0.144306)
(-0.00856949 0.187722 -0.138728)
(-0.0152453 0.170877 -0.0993366)
(0.00919197 0.192255 -0.12133)
(0.0123006 0.00492066 -0.00323381)
(0.00529713 -0.00550255 0.0193875)
(0.00296433 -0.0332085 -0.0355905)
(0.0123177 -0.00673139 -0.0127213)
(0.0112118 -0.0223705 0.00481594)
(0.0115058 -0.0515062 -0.0385204)
(0.0135577 -0.0455618 -0.0314655)
(0.0130576 -0.0285836 -0.0166787)
(0.0244406 -0.0390967 -0.00480049)
(-0.00726546 0.0222488 0.16749)
(-0.00251221 -0.0180974 0.139178)
(-0.00237759 0.0416708 0.203898)
(0.00142759 -0.0174493 0.100302)
(-0.0053761 -0.0066385 0.05446)
(0.0135026 0.0465092 0.161903)
(-0.0193972 0.0569808 0.137162)
(0.00792942 -0.204359 0.0596973)
(0.054478 -0.199647 0.146414)
(-0.02743 -0.21151 0.19503)
(-0.0585523 -0.258749 0.164989)
(-0.000726654 -0.200028 0.0935416)
(0.0274082 -0.187057 0.159378)
(-0.073334 -0.248664 0.236917)
(-0.0294909 -0.330983 0.132268)
(-0.0308456 -0.537448 0.3225)
(0.0151168 -0.538748 0.184133)
(-0.0145072 -0.211211 0.256386)
(0.0310379 -0.145832 0.377014)
(0.0415017 -0.205833 0.503053)
(0.0147106 -0.297213 0.332393)
(-0.261944 -1.88901 -0.429617)
(0.125765 -1.79771 -0.277879)
(-0.00872735 -1.50479 -0.395559)
(-0.147857 -1.67329 -0.577238)
(-0.0891019 -1.7877 -0.449497)
(-0.423604 -2.12883 -0.618296)
(-0.43274 -1.94153 -0.73393)
(-0.00148407 0.299662 0.200738)
(-0.0584666 0.311928 0.475903)
(-0.132763 0.207114 0.498371)
(-0.00525698 0.211274 0.224493)
(0.0766595 0.260255 0.177965)
(-0.0344358 0.269395 0.372969)
(-0.106884 0.189027 0.374002)
(0.00816863 0.227597 0.214293)
(-0.000894429 0.212205 0.231501)
(0.00431019 0.204744 0.203815)
(-0.00200226 0.163894 0.244067)
(0.00773168 0.182804 0.21361)
(0.0160193 0.158627 0.17896)
(-0.0161193 0.110608 0.238475)
(0.000704815 0.0669841 0.109581)
(-0.00633541 0.110712 0.0403976)
(0.0102877 0.100815 0.0797811)
(0.00459548 0.103617 0.118056)
(-0.0296172 0.0450297 0.0850294)
(-0.0420625 0.0866621 0.043528)
(-0.00587726 0.111429 0.0746215)
(-0.00264979 0.17029 -0.0248782)
(0.000223675 0.14916 -0.00376657)
(-0.00877894 0.171258 -0.041668)
(-0.0218745 0.178924 0.032585)
(-0.000786182 0.171586 0.0201631)
(-0.0221134 0.180293 -0.0135487)
(0.00125336 0.17404 -0.00494886)
(-0.00175968 0.211892 -0.0608859)
(-0.00827356 0.230185 -0.0945527)
(-0.000695603 0.238806 -0.0784062)
(-0.00477926 0.213861 -0.0477239)
(-0.011695 0.209501 -0.0505586)
(-0.0104172 0.222826 -0.0608495)
(-0.0143258 0.213342 -0.0734603)
(-0.0169471 0.221079 -0.0847532)
(-0.00593836 0.229845 -0.0742625)
(-0.00114408 0.283925 -0.0981077)
(-0.00655083 0.293953 -0.109146)
(-0.000541295 0.299806 -0.102427)
(-0.00108894 0.271658 -0.10591)
(-0.0027049 0.274543 -0.10485)
(-0.00654645 0.274443 -0.112036)
(-0.00765361 0.279668 -0.109453)
(0.00042823 0.441764 -0.0937771)
(-0.0018813 0.433921 -0.10496)
(-0.00189823 0.438535 -0.112686)
(-0.00361405 0.460828 -0.0899157)
(0.00281 0.457186 -0.0843984)
(0.00131506 0.449868 -0.098459)
(-0.0023466 0.449329 -0.112968)
(-0.00461933 -0.0548071 0.0367775)
(0.0101021 -0.00828757 0.0310948)
(0.0223857 -0.106833 0.0177098)
(-0.0248379 0.0371692 0.0243838)
(0.0144216 0.014244 0.0205746)
(-0.0301813 0.0753466 -0.0481431)
(0.0548868 -0.00216227 -0.0220094)
(-0.0215684 -0.0221843 -0.00797896)
(0.0144319 0.0157122 0.00250785)
(-0.223566 -0.146052 -0.622497)
(-0.183851 0.112354 -0.396621)
(0.23374 -0.27267 -0.709336)
(0.302034 0.440634 0.266492)
(-0.26781 0.176273 -0.0967107)
(0.379845 0.513009 0.147128)
(-0.16463 0.412515 -0.565569)
(-0.0947972 0.403717 0.0884991)
(-0.0536786 0.524746 0.0910573)
(-0.0849982 -0.2344 -0.286812)
(0.131462 0.0589623 -0.248743)
(0.104955 -0.19254 -0.184062)
(0.000921595 0.543373 0.0391444)
(-0.0366671 0.375038 0.055922)
(0.0830605 0.384225 -0.0646506)
(0.0469741 0.171494 0.0564121)
(0.149422 -0.0619345 0.91657)
(-0.26658 -0.64669 -0.281633)
(0.507973 0.126875 0.707056)
(0.047227 0.268375 0.259884)
(-0.137252 0.19346 -0.091425)
(0.0283645 0.497937 0.0486783)
(-0.0828535 0.163071 -0.225924)
(0.155087 0.16637 -0.021437)
(0.0391829 0.688157 -0.176636)
(0.0334485 0.31004 0.0324923)
(0.166564 1.63267 1.61206)
(0.0306101 1.74237 1.18251)
(0.0283096 2.14815 0.785292)
(0.145199 1.94126 0.801535)
(0.302304 1.78343 1.19566)
(-0.0971005 2.07454 0.508157)
(0.227454 2.38917 -0.0730862)
(-0.0364749 -2.08718 -0.0724512)
(-0.0305948 -2.09039 -0.0622987)
(0.0250925 -2.13541 0.0231816)
(-0.0204785 -2.04775 -0.0648134)
(-0.011734 -2.03196 -0.042486)
(0.0147921 -2.02288 0.00890831)
(0.0140933 -1.9044 0.0365254)
(0.0430947 -1.97988 -0.00170211)
(0.0853524 -2.0042 -0.0850351)
(0.0516724 -1.02558 1.29132)
(-0.117889 -1.29342 1.33892)
(-0.196284 -1.41332 1.60077)
(-0.00784358 -0.852172 1.16414)
(0.172829 -0.798075 1.43534)
(-0.0837028 -1.10244 1.44848)
(-0.0531668 -1.29169 1.64431)
(-0.00712921 0.00670415 -0.252092)
(0.00416854 -0.00590236 -0.259822)
(0.0716976 -0.0380457 -0.23699)
(-0.039559 0.148179 -0.462295)
(0.00913049 0.105515 -0.469305)
(0.0559848 -0.0194466 -0.359186)
(-0.0404095 0.102949 -0.395741)
(0.0325177 -0.057003 -0.157423)
(0.010664 0.0357145 -0.08842)
(0.0144841 -0.0222368 -0.235874)
(-0.141974 0.122475 -0.128842)
(-0.0143029 0.0972796 -0.215704)
(-0.125903 -0.0678718 -0.158646)
(-0.00954954 -0.0320444 -0.268842)
(0.116141 -0.149471 -0.39486)
(0.0417108 -0.0685396 -0.171329)
(0.0107795 0.115561 -0.276568)
(-0.0605537 0.179154 -0.309552)
(-0.0320341 0.0230812 -0.320716)
(0.388784 -0.100289 -0.36426)
(0.0642233 0.093591 -0.300652)
(0.0277724 0.0757213 -0.316182)
(0.0786291 0.0404155 -0.324837)
(-0.0525397 -0.00407561 -0.160827)
(-0.0638707 0.111207 -0.244561)
(-0.00262077 -0.00547805 -0.022165)
(0.0042284 0.0124955 0.0177351)
(-0.0255955 -0.00265978 0.0183795)
(-6.15581e-05 0.0106861 -0.00821487)
(-0.0183011 -0.00330854 -0.0242291)
(-0.0149613 -0.0160758 0.0284347)
(-0.00756701 0.0012762 0.0154305)
(0.0114436 0.0289775 0.0228508)
(0.0158167 0.00247804 0.016223)
(0.000174399 -0.00110429 0.0170509)
(0.0353772 0.0377402 0.0235153)
(0.0176555 0.0224981 0.0212369)
(-0.00351453 -0.0114435 -0.0301909)
(-0.00918414 -0.00750097 -0.00505088)
(-0.00391783 -0.0363946 -0.0088121)
(0.0268014 0.00777496 0.00856425)
(0.125738 -0.0390288 -0.19219)
(0.121794 -0.147956 -0.304376)
(-0.0649681 0.0761804 0.138724)
(-0.119552 -0.265349 0.110442)
(0.00134546 -0.0616896 0.0659944)
(-0.0716498 -0.269214 -0.223078)
(0.0540155 -0.155859 -0.198368)
(0.0458862 -0.00889846 -0.233883)
(0.0519274 -0.0483197 -0.26404)
(-0.00234587 0.0804713 -0.253389)
(-0.0100316 -0.00147263 -0.28875)
(-0.0976024 -0.12056 -0.35767)
(-0.0237399 -0.158426 -0.223929)
(-0.0606436 -0.163966 -0.287887)
(-0.0528322 -2.27103 0.112834)
(0.0137774 -1.53825 -0.745142)
(-0.00619063 -1.89384 -0.528435)
(-0.0972312 -2.38596 0.0944377)
(-0.084209 -1.86904 -0.469601)
(-0.0509653 -2.42141 0.0967971)
(-0.0943484 -2.0731 -0.371241)
(0.0336246 -2.20918 -0.236544)
(-0.21997 -2.56863 0.473047)
(0.0116456 -1.2097 0.529849)
(0.0102271 -1.28676 0.478206)
(-0.0124958 -1.28418 0.51832)
(0.0929782 -1.52472 0.301777)
(0.000962856 -1.42605 0.463141)
(0.0831893 -1.41754 0.393993)
(0.00428473 -1.40537 0.500679)
(-0.0182754 -1.0329 0.280707)
(-0.0147716 -1.25107 0.397611)
(0.0146076 -1.051 0.310243)
(0.0414122 -0.994713 0.182568)
(0.038714 -1.10005 0.247784)
(0.0197743 -0.911232 0.187648)
(0.0524276 -1.00862 0.232144)
(0.0102742 -1.00166 0.285129)
(-0.0531216 -0.980228 0.2738)
(0.00318109 -1.68099 -0.0726676)
(-0.0304289 -1.81064 -0.0371444)
(0.00310243 -1.85185 -0.0697695)
(0.00203354 -1.77511 -0.142199)
(0.0252818 -1.79196 -0.105077)
(-0.0334787 -1.83811 -0.0953256)
(-0.0182929 -1.84637 -0.136277)
(0.00101589 -2.27813 -0.0632273)
(0.00593806 -2.24717 -0.0559022)
(0.000503437 -2.2517 -0.0695535)
(-0.00336571 -2.29529 -0.0904123)
(-0.0108117 -2.29345 -0.0827378)
(-0.0167895 -2.27876 -0.0839841)
(-0.00659279 -2.27251 -0.0860801)
(-0.00107776 0.296502 -0.0144306)
(0.0126096 0.29399 -0.00319673)
(0.00472028 0.299624 -0.00683052)
(0.000204091 0.304196 -0.0232056)
(-0.00117033 0.31349 -0.0172212)
(0.00736809 0.301611 -0.0115585)
(0.000848477 0.309042 -0.0108675)
(0.0057752 0.325922 -0.0121138)
(-0.00918758 0.321313 0.00533542)
(-0.00174243 0.328269 0.0111285)
(-0.00322935 0.337515 -0.0149576)
(0.0116026 0.338084 -0.02436)
(0.0136439 0.351615 -0.0192328)
(-2.09391e-05 0.349633 -0.0119557)
(-0.000684362 0.356058 -0.0243344)
(0.00850941 0.362078 -0.0255598)
(0.00211214 0.362813 -0.0250937)
(-0.00288143 0.374713 -0.02576)
(-0.00225052 0.36888 -0.0331321)
(0.00169834 0.370092 -0.0285681)
(-0.00356572 0.373454 -0.0253201)
(0.0100073 0.388434 -0.0251838)
(0.00207151 0.386278 -0.0219166)
(-0.000182149 0.382483 -0.0194915)
(0.00533458 0.39144 -0.0281639)
(-0.00219992 0.38971 -0.02169)
(-0.00930656 0.395714 -0.0136303)
(0.000807542 0.397832 -0.0187603)
(-0.00771673 0.394097 -0.016844)
(-0.00153495 0.395685 -0.024516)
(0.0154514 0.376105 0.00861953)
(0.00552318 0.37543 -0.000475053)
(-0.00153013 0.370051 -0.0150299)
(-0.00235633 0.385583 -0.00451085)
(0.000380185 0.379748 -0.00151548)
(-0.00192529 0.382306 0.0029687)
(0.00500822 0.377661 0.00576859)
(-0.00151531 0.192657 0.0049877)
(-0.00462027 0.348343 -0.00443205)
(-0.0201303 0.347977 0.0175867)
(0.00485413 0.378161 -0.0187667)
(-0.00443328 0.304832 0.00631711)
(0.000659034 0.396074 -0.0122815)
(-0.0201821 0.378195 0.0228479)
(0.00207406 0.377341 -0.0278324)
(0.0132495 0.39496 -0.00849848)
(-0.0134229 0.387673 0.00236656)
(-0.00824663 0.37964 0.00803529)
(0.00372208 0.388413 -0.0139798)
(0.00314379 0.39522 0.000158952)
(-0.0342538 0.391408 0.0338596)
(-0.000863719 0.398772 0.0198331)
(0.0064781 0.368184 -0.00503592)
(-0.00102496 0.353326 0.00180982)
(0.0047478 0.33865 0.0125591)
(0.00253205 0.384448 0.0152787)
(0.00841652 0.367496 -0.0169146)
(-0.00359689 0.342349 -0.00520765)
(-0.00682005 0.394838 0.00121099)
(0.00241211 0.384519 -0.0142876)
(0.000432756 0.401381 -0.018443)
(-0.014933 0.373008 0.021317)
(-0.00426537 0.308399 0.000477867)
(-0.00468721 0.355827 0.00616675)
(-0.0140631 0.384109 0.0211705)
(-0.000334445 0.349176 -0.000585287)
(-0.0149734 0.224221 -0.00162884)
(0.0100464 0.353085 -0.0287919)
(-0.0177246 0.34013 0.0216202)
(-0.00402341 0.187491 0.00409971)
(-0.0111194 0.339623 0.00951381)
(0.0109659 0.378867 -0.0131164)
(0.033275 0.392336 -0.0309932)
(-0.0070743 0.368087 0.0107978)
(0.0298858 0.399101 -0.0342764)
(0.00300179 0.388074 -0.0224492)
(-0.0167019 0.370178 0.00451406)
(0.00146316 0.380024 -0.010243)
(0.000648608 0.390516 0.0236955)
(-0.00773688 0.395372 0.00487607)
(0.00181892 0.388632 0.0154742)
(-0.0010199 0.386646 -0.00709992)
(0.00413899 0.384451 -0.0068364)
(-0.00529002 0.392113 -0.0131647)
(0.0109483 0.384023 -0.0155784)
(-0.0116304 0.40341 0.00186526)
(0.00123255 0.385402 -0.00226655)
(0.00262214 0.397244 -0.0144381)
(0.00130795 0.385956 -0.0132756)
(0.00377678 0.379161 -0.00373008)
(0.00591426 0.382987 -0.00754221)
(-0.00287941 0.38321 -0.0131885)
(-0.00397557 0.380177 -0.00552116)
(-0.000283329 0.37606 -0.0035147)
(-0.00124501 0.372277 -0.00112104)
(-0.00100179 0.375537 -0.00112871)
(0.00255214 0.379958 -0.00425388)
(-0.000267214 0.383096 0.00182913)
(0.00622066 0.379957 -0.00196708)
(0.00416987 0.380849 0.0112101)
(-0.0111749 0.382523 0.00348447)
(-0.00172203 0.375764 0.000892018)
(-0.00103528 0.382972 0.0145985)
(-0.00591466 0.375561 0.00119986)
(-0.00306295 0.378771 0.00363986)
(0.00246254 0.380704 -0.00167596)
(-0.00838389 0.390297 -0.00277366)
(0.00233612 0.387643 0.015183)
(-0.00175949 0.390459 0.0086374)
(-0.0155071 0.378448 0.0193348)
(-0.00850573 0.384759 0.0239006)
(-0.00317193 0.388479 0.01217)
(-0.0158717 0.392868 0.0143737)
(-0.00110015 0.35609 0.0106449)
(-0.00286283 0.365761 0.00581301)
(0.00320594 0.357749 0.00749649)
(0.010589 0.371731 0.0254051)
(0.000296036 0.371181 0.0243507)
(0.00637382 0.361737 0.0170151)
(0.000941009 0.368151 0.0151167)
(-0.001822 0.363017 0.00722634)
(0.00325658 0.354923 0.0107297)
(-0.011085 0.313299 0.0269745)
(-0.00309078 0.306478 0.0265335)
(-0.00326327 0.318758 0.00765888)
(0.028307 0.338267 0.0451897)
(-0.00443925 0.347738 0.0474354)
(0.00491178 0.328235 0.0478776)
(-0.0391198 0.360503 0.0756047)
(-0.00546066 0.307755 0.0720222)
(0.00922629 0.329022 0.0563706)
(0.0214705 0.334232 0.0409477)
(-0.00405346 0.301923 0.0625699)
(-0.00337002 0.307454 0.0776157)
(0.00313848 0.327868 0.0603361)
(0.00939581 0.329742 0.0431058)
(-0.00175337 0.280093 0.021268)
(-0.00161616 0.277139 0.029871)
(-0.00476687 0.295974 0.0216846)
(0.0198915 0.282373 0.0613447)
(0.0116894 0.290792 0.0515972)
(0.0043903 0.302721 0.0457764)
(0.0154554 0.292958 0.0498817)
(-0.00255254 0.210663 -0.0712161)
(-0.0114843 0.207074 -0.0975892)
(-0.00592851 0.203697 -0.0817323)
(-0.00165396 0.22671 -0.05288)
(0.00045441 0.236071 -0.0604648)
(0.00748262 0.18311 -0.0843147)
(0.00926029 0.179309 -0.106848)
(-0.000134914 0.171501 -0.0763957)
(0.0116482 0.146131 -0.0729807)
(-0.0017285 0.158731 -0.0695144)
(0.0102856 0.157376 -0.0919)
(-0.0038988 0.173826 -0.0634813)
(0.00681521 0.13747 -0.113655)
(0.00145949 0.12379 -0.131456)
(0.00193449 0.121139 -0.117)
(0.00856773 0.0925828 -0.143699)
(-0.0305349 0.0883994 -0.161832)
(-0.0253121 0.0826761 -0.179498)
(0.0010148 0.0997348 -0.142321)
(-0.00340872 -0.0107492 -0.231852)
(-0.018519 -0.108597 -0.181623)
(0.00101059 -0.154797 -0.114071)
(0.0266077 -0.104825 -0.277826)
(-0.0148672 -0.119334 -0.269283)
(-0.0459615 -0.138548 -0.308987)
(0.0100016 -0.0574687 -0.280206)
(-0.0243004 -0.051085 0.109886)
(0.00710429 -0.0642468 0.181533)
(0.0108285 -0.0171075 0.146659)
(-0.0124717 -0.213013 0.314378)
(0.0757118 -0.177819 0.413569)
(0.0881023 -0.119342 0.307816)
(-0.021852 -0.192912 0.259946)
(0.0117399 -0.0995261 0.443426)
(0.0230012 -0.0333591 0.472395)
(0.0138027 -0.0966346 0.420308)
(-0.021672 -0.135435 0.594762)
(0.0353372 -0.0706336 0.617731)
(0.00203866 -0.125286 0.580705)
(0.0513085 -0.061198 0.593382)
(0.0481535 -0.0343952 0.531775)
(0.0339341 -0.0956827 0.498831)
(0.0444728 -0.375031 0.604486)
(-0.0350296 -0.415855 0.75578)
(0.00620757 -0.333113 0.738985)
(0.0691662 -0.361647 0.719977)
(0.064438 -0.359444 0.504878)
(0.0503355 -0.290559 0.786072)
(-0.0469201 -0.214366 0.737705)
(-0.00090513 2.34702 -0.560628)
(-0.0349208 2.42284 -0.294783)
(0.00319034 2.3974 0.0802783)
(-0.232893 2.02774 0.481297)
(-0.0880469 2.32904 0.589248)
(-0.012747 2.44305 0.161428)
(-0.143047 2.22697 -0.0754871)
(0.25568 1.87825 0.0915299)
(0.0803617 1.92218 0.202025)
(-0.00692448 1.78027 -0.0405575)
(0.173726 2.01278 -0.0592961)
(-0.0731721 2.09028 0.274627)
(-0.00141008 1.89556 -0.307348)
(-0.0692051 1.95344 -0.0738479)
(-0.0097285 1.51198 -0.169256)
(-0.0331083 1.50352 -0.0537816)
(-0.00488933 1.4658 0.115958)
(-0.0274729 1.49388 0.10322)
(0.039919 1.48929 0.0137941)
(-0.0142912 1.54207 -0.0900383)
(-0.0760699 1.53834 0.0103501)
(0.0297892 1.03087 -0.395921)
(-0.0107147 1.00336 -0.386028)
(0.00102838 0.954791 -0.44739)
(0.0259997 1.02836 -0.367457)
(-0.0267731 1.0268 -0.348519)
(0.0177184 0.980536 -0.403547)
(-0.0179493 0.989164 -0.40869)
(0.00186925 0.817938 -0.275836)
(0.0361015 0.808132 -0.267385)
(0.00331557 0.791107 -0.371664)
(-0.00859025 0.69306 -0.313062)
(-0.0220274 0.722291 -0.307662)
(0.0318917 0.63927 -0.367613)
(0.0746556 0.625564 -0.387722)
(0.00624517 0.602875 -0.349557)
(0.00913084 0.660134 -0.319888)
(0.0936127 0.55461 -0.165231)
(0.089038 0.510631 -0.286578)
(-0.0291266 0.436799 0.052114)
(-0.0561836 0.169131 0.0170446)
(-0.0960966 0.473932 0.0924431)
(-0.120943 0.215339 -0.0765343)
(-0.211174 0.473157 0.0264997)
(-0.0307453 0.297529 -0.224953)
(-0.0689722 0.43874 -0.0831558)
(0.104198 0.131767 0.212323)
(0.0462138 0.193362 0.137842)
(-0.00676403 -0.0469991 0.18626)
(-0.101288 -0.0420839 -0.0826936)
(-0.0154227 -0.0715718 0.0832826)
(-0.0256108 0.320303 -0.0550595)
(-0.187931 0.122339 -0.203376)
(-0.115279 -0.0266878 -0.253942)
(-0.173517 -0.0702607 -0.244102)
(0.0278387 0.15564 0.0602483)
(0.124171 0.267026 -0.00284472)
(-0.154474 0.141312 0.012939)
(-0.107097 0.509456 0.0404282)
(-0.135095 -0.15508 -0.193596)
(-0.0533085 0.477724 -0.157161)
(-0.0756047 0.307563 -0.167243)
(-0.0260043 0.316582 -0.0162964)
(-0.0144706 0.285052 0.0728832)
(0.0346861 0.246339 -0.0138141)
(-0.00587746 0.380632 0.017351)
(-0.0139094 0.2784 0.0276163)
(0.0481071 0.159771 0.110127)
(0.0790007 0.297027 -0.00929789)
(-0.0905287 0.737279 0.172628)
(0.0331205 0.434462 -0.0212557)
(0.0546606 0.552299 0.0350489)
(0.16933 0.199498 -0.0944888)
(-0.202959 0.153208 -0.145952)
(-0.149499 -0.0244543 -0.124987)
(0.00192832 0.406341 -0.106891)
(-0.115841 0.0582751 -0.191198)
(-0.0824728 0.0583336 -0.148452)
(0.0148733 0.166089 -0.0952796)
(0.200213 0.275646 0.0423768)
(0.0552541 0.371095 0.00570944)
(-0.0113919 0.800788 0.0872901)
(0.0202865 0.655575 0.0689516)
(0.141852 0.41648 -0.0423226)
(0.0848354 0.315353 -0.0925826)
(-0.0593605 0.961667 -0.401267)
(-0.16321 0.267089 -0.485723)
(-0.0792256 0.248625 -0.232675)
(-0.172204 -0.120359 -0.290862)
(-0.12358 0.0668835 -0.249155)
(0.0718935 0.00366266 -0.114498)
(-0.0412225 -0.22994 -0.334921)
(-0.140904 0.0262502 -0.342798)
(0.00614381 -0.0233151 -0.210744)
(0.0437172 -0.204915 -0.131739)
(-0.0488638 -0.211006 -0.220438)
(0.137772 -0.0702195 -0.344464)
(0.124738 0.224101 -0.42334)
(-0.0657696 0.0978752 -0.257224)
(-0.21116 0.226216 -0.225174)
(-0.53177 -0.10211 -0.0631251)
(-0.50728 -0.489803 -0.411819)
(0.341897 -0.402221 0.319519)
(0.53052 -0.0614377 0.340541)
(-0.479078 0.0274827 -0.130736)
(-0.723026 -0.231798 -0.873794)
(-0.406997 -0.278284 -0.580405)
(0.00116006 0.00507538 0.0431117)
(-0.00183903 0.0116369 0.0234457)
(0.0214793 0.0226846 0.0216171)
(-0.0138127 0.0234982 -0.0105939)
(0.0273318 -0.0013738 -0.0305281)
(0.0174313 -0.044172 0.031055)
(-0.0156613 -0.015338 0.0228644)
(-0.00811259 -0.0286961 0.0336863)
(0.017727 0.0112165 0.00276658)
(0.0230257 0.0036657 -0.0123625)
(-0.0156445 -0.00219108 -0.00240553)
(-0.000327295 -0.0131668 -0.0169056)
(0.00639936 -0.0235057 -0.0493284)
(-0.0758897 -0.0509567 0.0675552)
(-0.00942454 0.00697035 0.0263161)
(0.00725151 0.0186619 0.00918554)
(0.0215574 0.0219304 0.00476867)
(0.0276539 0.024239 0.0130917)
(0.00322727 0.00840343 0.0274669)
(0.0147932 0.00806245 0.00862432)
(0.00311037 0.00336545 0.0560079)
(-0.0215847 -0.024238 0.0493436)
(-0.00258161 0.0156358 0.00881079)
(0.000907208 0.0179327 0.0241181)
(-0.0104613 0.00490206 0.0177423)
(0.0021214 0.0072778 0.00925747)
(0.0101157 0.0295436 0.0145972)
(0.0280423 -0.0349329 0.023332)
(-0.0219506 0.0042962 0.0211521)
(-0.0239839 0.00463288 -0.0235981)
(0.0158758 0.0210081 0.00478696)
(0.012764 0.00616426 0.0235306)
(0.0031506 0.0102734 0.00875027)
(0.00311134 0.00195096 0.0163436)
(-0.00281061 0.0123822 -0.00114739)
(-0.00467795 0.0198146 0.0275427)
(-0.00048531 -0.00799391 0.02641)
(0.00266146 0.0239144 -0.00127492)
(0.0188646 0.000874738 0.0175537)
(-0.00219184 -0.0021111 -0.0177224)
(0.00341901 0.00875873 0.0123154)
(-0.0110467 -0.00855556 -0.00502706)
(-0.00180607 0.00160908 0.0197512)
(0.00133161 0.0216497 0.0141418)
(0.00821803 0.00598949 -0.0351047)
(-0.00166917 0.022045 -0.00387966)
(-0.0130841 0.0654168 -0.0527264)
(0.0158791 0.0194642 -0.0437413)
(-0.0362759 0.023376 -0.0323862)
(-0.000147463 0.0347437 -0.0106499)
(-0.0111223 -0.0920478 0.0185235)
(0.00855058 -0.0123084 0.0255903)
(0.036153 0.0079252 0.0292324)
(0.0148105 -0.000503328 -0.0261098)
(-0.0277982 -0.00174818 -0.0162043)
(-0.282911 0.0889797 -0.00186865)
(-0.0233739 0.190257 0.0239327)
(0.0804148 0.173828 -0.231244)
(0.194196 -0.0367391 -0.0458942)
(0.0119678 -0.289928 -0.0433948)
(0.0743424 -0.0301092 -0.143705)
(0.293908 0.0349368 -0.231083)
(-0.358831 -0.100789 0.375374)
(0.380127 0.0184831 -0.18709)
(-0.183949 -0.91241 0.245513)
(0.08956 -0.152388 0.308459)
(0.236138 -0.0529118 0.424926)
(0.365373 -0.101773 -0.783678)
(0.0931877 -0.420764 -0.595738)
(0.0262827 0.327461 -1.96594)
(0.0629049 0.133073 -2.18936)
(0.0143845 0.116079 -2.31204)
(0.0191926 0.423773 -1.94264)
(0.0992345 0.203421 -2.04989)
(0.0488701 0.340138 -2.14805)
(-0.0521403 0.130856 -2.36665)
(0.043723 0.338665 -3.04089)
(-0.0123903 0.896132 -2.34185)
(0.088123 0.974497 -2.73238)
(-0.113463 0.21093 -2.44359)
(-0.119664 0.520158 -2.32017)
(0.0140003 0.50505 -2.63299)
(0.00746952 0.159847 -2.65855)
(-0.0844853 0.0353461 -3.01029)
(-0.280727 0.111 -2.85221)
(0.0135005 -0.0449986 -2.67241)
(-0.10398 0.0645244 -2.87123)
(-0.0222605 0.0866623 -3.09386)
(-0.0238218 0.107716 -2.91923)
(0.0214351 0.234515 -2.78272)
(0.0204154 -0.708814 -2.2882)
(0.0208291 0.204585 -1.74852)
(0.0723958 -0.28444 -2.20684)
(-0.0750544 0.0612584 -1.36794)
(-0.124186 0.290511 -1.81553)
(0.460284 -0.572368 -1.3851)
(0.123071 -0.0376112 -1.66982)
(0.086288 -0.256685 -1.93552)
(-0.0322806 -0.518761 -1.75397)
(0.141556 -1.10498 -1.62395)
(-0.185327 -1.28476 -1.66981)
(0.00270037 -0.668666 -1.82553)
(-0.169223 -0.745458 -2.27833)
(-0.0259727 -0.657864 -2.16863)
(-0.187572 -0.942211 -2.01488)
(0.0403956 -0.943746 -2.00661)
(-0.339342 -1.41014 -1.78989)
(0.0733797 -1.18279 -1.76216)
(0.0705769 -1.35435 0.0654443)
(-0.00774678 -1.33689 0.00668317)
(-0.000188156 -1.2809 0.106692)
(0.0449135 -1.41081 0.0618094)
(-0.0645276 -1.41967 -0.0626403)
(0.0162186 -1.36867 0.122093)
(-0.0148118 -1.37958 0.0504879)
(-0.00700032 0.270022 -0.186041)
(0.00129605 0.24089 -0.163139)
(0.00355841 0.26847 -0.185354)
(0.00222997 0.250567 -0.166937)
(0.0116364 0.263612 -0.165492)
(0.0126225 0.266076 -0.169292)
(0.0022883 0.266306 -0.175651)
(0.00683015 0.252735 -0.179034)
(-0.00482242 0.249 -0.182234)
(-0.00139023 0.253139 -0.161703)
(0.020541 0.240866 -0.180895)
(-0.00138171 0.22821 -0.192383)
(-0.0114968 0.219961 -0.195123)
(0.0180166 0.235838 -0.182082)
(0.00598096 0.235035 -0.128559)
(0.0072177 0.235578 -0.125056)
(-0.00120942 0.241495 -0.126057)
(-0.00108176 0.246607 -0.152611)
(0.00165766 0.253503 -0.135852)
(0.00194016 0.342468 -0.0672718)
(0.00146731 0.355659 -0.0644804)
(-0.00161852 0.36447 -0.0589567)
(-0.00618527 0.38857 -0.0586387)
(0.00378028 0.368142 -0.0768192)
(-0.000248783 0.373076 -0.0715676)
(-0.00264576 0.387413 -0.0583639)
(0.00126415 0.396987 -0.0558599)
(-0.000164735 0.405208 -0.0553285)
(0.00567601 0.390844 -0.0565774)
(-0.00224512 0.418378 -0.0459939)
(0.00212216 0.417273 -0.0567339)
(0.000808597 0.400332 -0.0604783)
(-0.0034037 0.40621 -0.0531133)
(-0.00231905 0.421559 -0.0328711)
(-0.00107361 0.413636 -0.0315861)
(-0.00133306 0.399384 -0.0483132)
(0.00784319 0.424722 -0.0161446)
(-0.016907 0.42234 -0.0279912)
(-0.00237534 0.408839 -0.0337147)
(0.0181566 0.41293 -0.0165662)
(-0.00642393 0.206776 0.00542187)
(-0.0161199 0.363755 0.00801221)
(-0.0302755 0.367278 0.0219599)
(0.0061661 0.404608 -0.0151165)
(-0.00573056 0.3256 0.00187098)
(-0.00713564 0.419032 -0.00214438)
(-0.025989 0.394377 0.0225144)
(-0.000944924 0.391412 -0.0341358)
(0.0286555 0.405229 -0.0176222)
(0.00155461 0.399533 -0.00784196)
(0.00136122 0.411537 -0.0169349)
(-0.0169742 0.404075 0.0113038)
(0.013111 0.417818 -0.0108164)
(-0.023359 0.399351 0.0223193)
(0.0163758 0.358689 0.00261477)
(0.00211479 0.22767 -0.00240938)
(-0.0134754 0.397154 -0.0384513)
(0.0122092 0.330563 0.0075469)
(-0.00543829 0.35969 -0.00748353)
(-0.00701717 0.387968 -0.0183527)
(0.021164 0.38788 0.0112765)
(0.0362626 0.412834 0.0293883)
(-0.00446942 0.357118 0.00105054)
(0.000522695 0.359124 0.00202551)
(0.00689327 0.381471 0.00331279)
(-0.00404812 0.390967 -0.0069295)
(-0.00430503 0.387481 -0.00257725)
(-0.0186233 0.248836 0.00579861)
(-0.00650933 0.366654 -0.00109235)
(0.00186434 0.419186 0.0156577)
(0.00532704 0.372917 0.00519308)