/*--------------------------------*- C++ -*----------------------------------*\
| =========                 |                                                 |
| \\      /  F ield         | OpenFOAM: The Open Source CFD Toolbox           |
|  \\    /   O peration     | Version:  v2012                                 |
|   \\  /    A nd           | Website:  www.openfoam.com                      |
|    \\/     M anipulation  |                                                 |
\*---------------------------------------------------------------------------*/
FoamFile
{
    version     2.0;
    format      ascii;
    class       volScalarField;
    location    "0.2";
    object      p;
}
// * * * * * * * * * * * * * * * * * * * * * * * * * * * * * * * * * * * * * //

dimensions      [1 -1 -2 0 0 0 0];


internalField   nonuniform List<scalar> 
24700
(
-389.853
-429.912
-342.735
-404.786
-422.901
-305.078
-355.156
-414.354
-441.652
-451.176
-417.191
-443.631
-435.071
-372.838
-399.647
-423.693
-407.279
-213.679
-244.493
-250.502
-197.251
-179.552
-241.558
-228.423
-163.424
-204.731
-195.036
-198.916
-189.367
-2.92837
-2.92967
-2.9372
-2.91139
-2.90501
-2.92165
-2.9143
-2.62491
-2.6427
-2.64873
-2.67711
-2.65479
-2.66277
-2.63818
-2.70204
-2.77004
-2.70905
-2.66508
-2.70868
-2.73447
-2.66948
-4.02676
-3.11521
-2.7614
-3.29539
-2.76099
-3.78199
-2.85146
-5.11393
-2.73723
-4.77728
-4.69779
2.33357
-3.98948
-5.66037
-2.42532
-2.4194
-2.41719
-2.42969
-2.43364
-2.4284
-2.42384
-2.55762
-2.55288
-2.56485
-2.54068
-2.55124
-2.55745
-2.55036
-40.5809
-6.31994
-31.6015
-18.5581
-6.46869
32.3069
-42.4231
-2.62177
-2.62172
-2.64684
-2.63988
-2.64585
-2.63415
-2.63962
-2.48337
-2.46753
-2.48216
-2.48276
-2.49698
-2.47564
-2.49023
-2.23159
-2.24891
-2.23998
-2.21008
-2.21952
-2.232
-2.22304
-1.67546
-1.68881
-1.71431
-1.74061
-1.73358
-1.71216
-1.70284
-2.83325
-2.84891
-2.82702
-2.81633
-2.79444
-2.80395
-2.82893
-2.83188
-2.84048
-2.85905
-2.9068
-2.92511
-2.90387
-2.89155
-2.87234
-2.9037
-2.88497
-2.9145
-2.91463
-2.93605
-2.91781
-2.89609
-2.80853
-2.83121
-2.82695
-2.8521
-2.8341
-2.82057
-2.83873
-2.47094
-2.48871
-2.47306
-2.45532
-2.47209
-2.48111
-2.46497
-2.70599
-2.77735
-2.70126
-2.70811
-2.6728
-2.73925
-2.67074
-12.454
-12.5361
-12.5012
-12.4325
-12.4853
-12.2898
-12.3791
-7.1884
-9.21764
-9.76561
-6.73138
-4.27191
-7.26289
-8.20245
1.97698
2.12436
2.25729
3.00198
1.53504
1.77544
2.38088
4.21458
4.3806
4.28708
4.30015
4.26452
4.32884
4.22502
4.26735
4.02324
4.38314
4.49343
4.62674
4.19986
4.40836
-5.05236
-4.82938
-4.90593
-4.788
-4.98
-4.87395
-5.07103
-3.17582
-3.21193
-3.21061
-3.29535
-3.18971
-3.1808
-3.25482
-16.5653
8.2912
7.59421
21.0789
13.2474
8.00568
-4.57346
-2.41159
-2.41172
-2.42076
-2.42072
-2.40433
-2.40288
-2.40691
-4.01804
-3.88131
-3.83515
-3.70453
-3.83669
-3.73232
-3.93804
-6.62411
-8.36546
-7.43289
-7.90549
-6.35308
-9.24211
-6.49104
-6.63048
-6.28156
-5.48779
-4.42758
-7.78752
-6.59606
-4.18703
3.4587
3.45318
3.50854
3.43521
3.34833
3.39076
3.4604
4.35961
4.53094
4.42992
4.45224
4.30689
4.33597
96.9447
75.2179
74.6966
66.6126
79.1404
54.6763
6.34705
8.1491
7.00581
4.12464
5.05467
3.30052
5.12162
4.52932
4.52908
4.52036
4.5601
5.01118
4.44669
4.38679
3.93966
4.295
4.36485
4.32983
4.33686
4.31515
4.23899
0.915228
1.19861
1.42904
0.178188
0.67583
1.01786
0.998023
0.115568
3.26874
18.8624
0.308999
17.611
1.41334
-12.4601
14.1145
-11.4472
5.91569
9.31095
8.33486
-6.84579
7.31981
-13.4765
-12.0233
-14.6346
-10.049
-12.0931
-13.4417
-11.3617
-3.73499
-3.7412
-3.59616
-3.1702
-3.84207
-3.6316
-3.39778
-2.10977
-2.10982
-2.12054
-2.13788
-2.13497
-2.12059
-2.11791
-2.45564
-2.41851
-2.43557
-2.43747
-2.47202
-2.43374
-2.46955
-2.38469
-2.36388
-2.36452
-2.34745
-2.369
-2.35785
-2.37848
-2.28496
-2.30818
-2.28603
-2.28323
-2.25741
-2.29483
-2.27117
-2.36545
-2.35957
-2.38679
-2.35721
-2.3338
-2.37365
-2.35156
-2.57532
-2.59512
-2.59728
-2.62397
-2.60511
-2.61236
-2.59306
-2.68589
-2.70512
-2.67596
-2.67601
-2.6559
-2.69548
-2.67599
-2.75567
-2.75072
-2.77461
-2.72207
-2.74183
-2.75613
-2.73703
-2.75228
-2.75544
-2.73358
-2.76377
-2.78223
-2.76994
-2.75124
-2.8312
-2.80854
-2.82701
-2.83401
-2.85205
-2.8205
-2.83875
-2.69811
-2.67933
-2.69777
-2.71743
-2.69908
-2.68965
-2.70768
-2.48223
-2.46754
-2.48339
-2.49702
-2.4829
-2.47563
-2.49032
-2.46193
-2.45696
-2.45041
-2.4672
-2.4728
-2.46415
-2.46008
7.32545
-7.28246
5.54207
-3.9553
10.2635
4.00098
4.4175
-3.12882
-3.2214
-3.07065
-2.95484
-2.85866
-3.13081
-3.07352
-1.98869
-1.67298
-1.59664
-1.49647
-1.65546
-1.55135
-1.95883
3.20647
3.32682
3.20509
3.14312
3.14424
3.2853
3.16112
3.52525
3.52726
3.50439
3.51064
3.42712
3.49557
3.48482
3.48529
3.52016
3.53128
3.36332
3.42173
3.53253
3.41894
3.3954
3.54245
3.39605
3.47404
3.51193
3.41648
3.47287
3.58481
3.53036
3.5392
4.33114
4.41034
4.37649
4.32471
4.29456
4.31209
4.30693
-29.0733
-18.8533
-61.0668
-6.19369
-27.7269
-42.1006
5.26364
-2.41761
-2.12675
-2.41628
-2.59964
-2.42503
-2.2817
-2.49754
-2.95461
-2.76853
-2.9359
-3.06621
-2.95316
-2.85188
-2.99031
-2.17707
-2.17071
-2.19202
-2.17482
-2.17056
-2.16818
-2.17968
-2.2421
-2.24266
-2.22812
-2.21223
-2.21663
-2.2261
-2.2297
-2.29057
-2.30177
-2.28077
-2.27353
-2.29582
-2.29623
-2.27502
-2.13722
-2.11194
-2.11391
-2.08648
-2.11444
-2.09778
-2.12402
-2.20536
-2.18264
-2.17897
-2.13128
-2.16514
-2.18166
-2.16189
-2.51941
-2.51706
-2.53778
-2.49504
-2.51482
-2.50672
-2.52598
-2.86274
-2.84556
-2.83765
-2.81577
-2.83196
-2.83179
-2.8487
-2.78611
-2.7698
-2.76549
-2.74343
-2.7577
-2.75519
-2.77029
-2.37715
-2.37099
-2.37507
-2.39073
-2.37965
-2.37041
-2.38225
-0.486147
-0.693386
-0.560837
-0.711425
-1.01867
-0.578683
-0.827264
0.770876
1.09189
0.834382
0.909774
0.729078
1.03598
0.769318
0.826124
0.938259
1.0422
1.09795
1.22397
1.07306
0.931529
3.12389
3.23173
3.08887
3.25339
3.22703
3.14238
3.21061
3.33292
3.41596
3.4256
3.41122
3.41718
3.42789
3.38245
3.72343
3.0915
3.66321
4.04445
2.89574
3.08668
3.75011
7.22654
10.8007
8.08875
7.01247
5.28016
8.54653
6.03233
20.1023
20.4775
16.8678
17.1323
21.5505
18.4302
13.885
-3.00457
-3.01213
-2.85596
-2.55084
-3.06759
-2.65145
-2.9418
3.23612
-5.53624
-17.3409
-13.7284
-0.955615
-8.26675
-5.66741
-2.3304
-2.36033
-2.39343
-2.42898
-2.46755
-2.38737
-2.40128
-2.05614
-2.07693
-2.05904
-2.04564
-2.06799
-2.07387
-2.05094
-2.11853
-2.09171
-2.10158
-2.08558
-2.11396
-2.08959
-2.11658
-1.88443
-1.84646
-1.89194
-1.9271
-1.89947
-1.88708
-1.91812
-1.88639
-1.90454
-1.92685
-1.83408
-1.87045
-2.08944
-2.11118
-2.08124
-2.05455
-2.08808
-2.09698
-2.06791
-2.07899
-2.11323
-2.08381
-2.05613
-2.10644
-2.21273
-2.19517
-2.18806
-2.18769
-2.2122
-2.75885
-2.73701
-2.7499
-2.77883
-2.76317
-2.7483
-2.76225
-2.55328
-2.55114
-2.54026
-2.5649
-2.5611
-2.55842
-2.55343
-2.5411
-2.51387
-2.52216
-2.55868
-2.55988
-2.52996
-2.537
-2.49454
-2.51109
-2.51575
-2.50367
-2.52411
-2.51852
-2.49854
-2.21732
-2.21412
-2.22803
-2.1966
-2.20856
-2.21553
-2.21204
-2.18167
-2.1969
-2.19788
-2.20947
-2.19571
-2.2042
-2.19501
-1.42321
-1.50353
-1.49015
-1.35429
-1.35573
-1.42743
-1.41281
-0.775203
-0.638363
-0.750217
-0.701367
-0.790948
-0.675697
-0.767521
1.97902
2.02981
2.10749
1.99531
1.90797
1.99661
2.08063
1.99753
1.85321
2.10252
2.03779
1.96105
3.51199
3.45549
3.44332
3.41465
3.34909
3.40208
3.46295
4.02631
4.12795
4.16044
4.26375
4.22504
4.20067
4.14201
1.73836
1.47138
1.28019
1.02273
1.42072
1.1507
1.35695
244.284
96.6896
320.756
171.145
298.926
137.754
309.658
-2.21741
-2.16976
-2.33052
-2.55804
-2.40308
-2.4041
-2.29829
-1.405
-0.966682
-0.638062
-1.03844
-0.527419
-0.703256
-0.761136
-3.03412
-3.15237
-2.80876
-2.96424
-3.06736
-3.14626
-2.6955
-2.77507
-2.64651
-2.72046
-2.6753
-2.71819
-2.65404
-2.77585
-2.31021
-2.31895
-2.27484
-2.28017
-2.33079
-2.32456
-2.27855
-1.53447
-1.4885
-1.54463
-1.59013
-1.55717
-1.54151
-1.57793
-1.54165
-1.56259
-1.58914
-1.47919
-1.52446
-2.11389
-2.11192
-2.1372
-2.11442
-2.08645
-2.09774
-2.12401
-2.32683
-2.30141
-2.31658
-2.34842
-2.33432
-2.31686
-2.33113
-2.49524
-2.47313
-2.4872
-2.51335
-2.49974
-2.48526
-2.4983
-2.90784
-2.91718
-2.93661
-2.89847
-2.9158
-2.9165
-2.93032
-2.90766
-2.90378
-2.90922
-2.93121
-2.91464
-2.89447
-2.93889
-2.91375
-2.91607
-7.13265
4.36985
4.09785
-2.03415
7.36549
1.40764
2.21934
-2.63843
-2.65361
-2.66637
-2.69363
-2.70836
-2.67657
-2.67939
-2.58456
-2.58814
-2.57101
-2.58292
-2.59862
-2.59394
-2.57783
-2.37849
-2.38995
-2.37614
-2.39943
-2.40491
-2.38791
-2.39077
-2.20038
-2.19454
-2.20158
-2.18253
-2.21337
-2.19021
-2.20965
-2.02939
-2.04326
-2.01554
-2.03697
-2.00179
-2.02636
-2.01617
-1.61694
-1.63651
-1.71628
-1.82693
-1.76593
-1.73271
-1.68282
-0.396316
-0.454104
-0.477506
-0.540261
-0.534033
-0.488995
-0.454103
0.303284
0.434861
0.304542
0.331902
0.218506
0.399141
0.282083
257.716
179.133
300.597
342.497
110.765
139.064
316.941
623.581
743.724
597.14
940.282
706.79
854.24
711.861
439.106
755.971
470.819
613.628
522.494
797.46
481.242
1075.56
782.448
749.578
-2.08056
-2.08211
-2.29725
-1.9392
-1.96429
-2.07988
-2.22622
6.73716
15.9077
10.6803
7.21987
7.19981
14.6837
7.90509
-17.0716
20.2211
15.0417
-2.56356
-3.79655
-6.81025
-8.26425
-2.77237
-2.63084
-2.01656
-2.82973
-3.00641
-2.87869
-2.80486
-1.78271
-1.82464
-1.79844
-1.73873
-1.76427
-1.79922
-1.76715
-1.43003
-1.40257
-1.38983
-1.39508
-1.34735
-1.32744
-1.37257
-1.40337
-1.45481
-1.41949
-2.36315
-2.35064
-2.34393
-2.31852
-2.33192
-2.33198
-2.34461
-2.86637
-2.77266
-2.86244
-2.90558
-2.90412
-2.91097
-2.85625
-2.80181
-2.87892
-2.94176
-2.93281
-2.88927
-2.94991
-2.87466
-2.8681
-2.76228
-2.85599
-2.91868
-2.93903
-3.02216
-2.97826
-2.95282
-2.97669
-2.99695
-2.95166
-2.98536
-2.93383
-2.95752
-3.00747
-3.00773
-2.67367
-2.65606
-2.67012
-2.66571
-2.68326
-2.66078
-2.67821
-2.28228
-2.28933
-2.29855
-2.31751
-2.31488
-2.30648
-2.30271
-2.05483
-2.02846
-2.04593
-2.03686
-2.00275
-2.02886
-2.03477
-0.437229
-0.379139
-0.435397
-0.429919
-0.507665
-0.404736
-0.475577
2.68227
2.72174
2.79444
2.61391
2.52568
2.68076
2.66487
2.06533
1.44461
1.94454
1.28122
2.26461
1.46326
2.11713
-10.6472
-5.37315
-8.61631
-8.18799
-9.63957
-7.93956
-10.7137
18.2882
19.7578
18.6738
23.2551
15.3862
19.0454
13.9925
609.123
613.727
1077.32
313.692
555.37
291.183
278.854
99.4318
265.866
392.745
221.299
362.063
251.335
677.172
361.312
-3.06202
-3.11073
-3.08003
-3.10896
-3.07181
-3.12625
-3.05995
-3.14235
-3.1345
-3.12431
-3.14396
-3.15468
-3.1411
-3.11531
-5.91048
-6.14924
-6.53975
-5.59268
-6.11413
-5.72152
-6.4248
-2.78886
-2.54045
-2.7061
-2.63723
-2.88359
-2.58291
-2.8536
-2.06834
-2.10652
-2.22031
-2.27888
-2.27647
-2.17784
-2.15227
-1.62168
-1.58025
-1.61305
-1.58507
-1.67735
-1.58165
-1.65574
-1.33107
-1.32092
-1.28875
-1.22904
-1.23839
-1.26911
-1.27654
-1.20067
-1.15309
-1.15351
-1.09638
-1.16159
-1.11929
-1.18216
-1.11736
-1.15896
-1.11469
-1.05922
-1.1137
-1.13274
-1.0758
-1.04418
-1.10491
-1.06105
-1.07743
-0.997488
-1.08626
-1.02494
-1.78818
-1.76912
-1.74694
-1.80678
-1.82172
-1.79739
-1.77474
-2.04564
-2.06647
-2.0614
-2.07562
-2.05448
-2.07029
-2.05125
-2.52011
-2.5318
-2.53789
-2.50997
-2.51056
-2.52483
-2.53028
-2.35776
-2.40046
-2.16781
-2.57805
-2.51396
-2.46495
-2.46601
-2.93434
-2.92237
-2.91752
-2.92304
-2.94188
-2.91308
-2.93722
-2.92661
-2.94064
-2.92706
-2.84341
-2.84138
-2.85776
-2.8172
-2.83181
-2.84122
-2.8268
-2.20245
-2.20988
-2.1896
-2.19883
-2.21916
-2.21492
-2.20087
-0.506555
-0.434335
-0.436747
-0.380737
-0.445662
-0.405413
-0.480219
0.68751
0.539303
0.501435
0.342779
0.521674
0.470501
0.624827
0.308006
0.251726
0.441416
0.532836
0.0912309
0.183373
0.473379
-0.882396
-1.39976
-1.47866
-0.849839
0.155122
-0.724718
-1.17919
-3.06577
-3.22906
-3.15277
-2.56901
-2.93803
-2.66926
-3.17982
-3.71
-3.42515
-3.14829
-3.34662
-4.1529
-3.94901
-3.2094
-0.859498
-0.874117
-0.931843
-0.910527
-0.824014
-0.941292
-0.840935
-1.09461
-1.13241
-1.03317
-0.978896
-0.95615
-1.04202
-1.03002
-2.82217
-2.68945
-2.77909
-2.82244
-2.77025
-2.62778
-2.76878
-2.7226
-2.70486
-2.6822
-2.65838
-2.65912
-2.68196
-2.68642
-2.93129
-2.93198
-2.93866
-2.91181
-2.91279
-2.91803
-2.91921
-2.7606
-2.74021
-2.75567
-2.77986
-2.7675
-2.75459
-2.76803
-1.7695
-1.75729
-1.79784
-1.71204
-1.74668
-1.77325
-1.74085
-1.42609
-1.47241
-1.46925
-1.5083
-1.48298
-1.46941
-1.504
-0.507204
-0.468289
-0.376053
-0.534734
-0.538481
-0.481564
-0.459427
-0.58205
-0.697676
-0.48019
-0.715817
-1.02236
-0.592847
-0.828728
-5.58279
-6.44329
-6.07592
-6.59799
-5.46626
-7.19145
-5.62582
-12.5631
-12.4824
-12.4165
-12.6405
-12.5573
-12.4068
-12.5767
-14.096
-13.7612
-13.552
-13.3911
-13.3227
-13.1209
-13.6379
-13.4371
-11.8223
-11.5113
-10.868
-10.2083
-10.9969
-12.1863
-6.98366
-6.77183
-6.02426
-7.86673
-9.24345
-7.86709
-7.62974
-1.72992
-1.83045
-1.21658
-1.95042
-1.77182
-1.90594
-1.52269
1138.92
796.876
712.742
1364.19
409.893
1246.23
502.17
668.47
1371.13
1577.63
1650.13
1343.35
225.415
332.602
480.662
164.759
1249.2
1403.48
3.70388
11.9004
3.20258
20.2806
11.6247
5.34791
8.87727
-4.15663
-3.01474
-4.31129
-5.55775
-3.29059
-3.01777
-5.7305
-6.20185
-6.54775
-5.56283
-6.30404
-5.44981
-6.93749
-5.77262
-10.3209
-10.9705
-11.6285
-10.0898
-9.74833
-10.7471
-11.4275
-2.64409
-2.87258
-3.02437
-3.1616
-4.51245
-2.51632
-3.5205
0.12173
0.194787
0.110002
0.118822
0.0479816
0.0329242
0.0905026
0.117021
0.290142
0.152937
-2.18916
-2.18998
-2.17786
-2.14904
-2.23644
-2.21078
-2.17027
-2.64604
7.04453
-12.7908
2.20096
-12.1683
-1.61231
-3.2999
-2.69613
-2.73992
-2.62567
-2.45414
-2.81643
-2.69945
-2.8316
-2.64278
-2.52002
-2.66559
-2.69248
-2.64331
-2.58048
-2.71441
-2.61647
-2.63265
-2.63062
-2.6434
-2.62809
-2.6372
-2.62247
-2.65605
-2.67373
-2.67013
-2.6832
-2.66572
-2.67818
-2.66074
-2.90802
-2.89961
-2.9183
-2.90082
-2.91459
-2.93646
-2.8934
-2.9101
-2.90485
-2.83248
-2.87096
-2.89742
-2.92019
-2.95412
-2.90143
-2.88987
-2.94178
-2.89534
-2.91279
-2.99947
-2.91853
-2.92231
-2.94444
-2.99261
-3.01879
-3.05777
-3.02921
-2.97172
-3.03202
-2.68326
-2.6583
-2.65004
-2.62386
-2.63835
-2.63979
-2.66101
-2.20742
-2.16975
-2.20353
-2.20198
-2.23762
-2.18352
-2.22175
-1.92786
-1.89898
-1.8801
-1.9243
-1.89022
-1.84245
-1.87868
-1.9129
-1.87492
-1.38674
-1.45279
-1.47352
-1.28721
-1.26041
-1.27213
-1.22858
-1.28596
-1.2448
-1.29321
-0.803177
-0.735365
-0.661118
-0.809462
-0.710286
-0.683571
-0.806121
-2.39236
-2.11401
-2.40524
-2.4187
-2.58875
-2.28167
-2.49637
-1.06376
-1.51819
-1.83782
-1.32591
-0.820557
-1.31059
-2.32288
48.1496
244.31
104.594
125.924
137.232
159.47
-7.03232
-6.64847
-7.8219
-7.00191
-7.74908
-6.65228
-8.97225
1.53683
0.750387
2.44491
2.07837
-0.298661
0.509296
-0.846065
0.423842
0.503487
0.532594
0.498905
0.602459
0.643533
0.558256
0.3468
0.434233
0.485181
-4.83143
-4.30517
-4.60793
-5.37259
-4.68307
-4.40233
-5.03315
-2.1944
-2.17617
-2.1828
-2.17521
-2.17825
-2.17472
-2.18384
-2.62614
-2.62894
-2.64901
-2.51689
-2.70127
-2.61099
-2.6653
9.83897
15.1473
21.1002
-12.9596
8.5488
4.70518
-0.849606
-2.41458
-2.40135
-2.41122
-2.43331
-2.42192
-2.40972
-2.42206
-2.54572
-2.56222
-2.53822
-2.52237
-2.56665
-2.56868
-2.53291
-2.45705
-2.44323
-2.45822
-2.45273
-2.4709
-2.44912
-2.4647
-2.58399
-2.59801
-2.58249
-2.57056
-2.58769
-2.5937
-2.57753
-2.53072
-2.55062
-2.54607
-2.55967
-2.54153
-2.55456
-2.53601
-2.81669
-2.82669
-2.82377
-2.79256
-2.81196
-2.8139
-2.79979
-2.65047
-2.64529
-2.6253
-2.65384
-2.67335
-2.65634
-2.63954
-2.41844
-2.4441
-2.44791
-2.4954
-2.46165
-2.47283
-2.44519
-2.14353
-2.16601
-2.14126
-2.15027
-2.12403
-2.14196
-2.17236
-2.18103
-2.14195
-2.1845
-2.13994
-2.09843
-2.17339
-2.13967
-1.87239
-1.87965
-1.83532
-1.83361
-1.8655
-1.81832
-1.86584
-1.81901
-1.88089
-1.8576
-1.4863
-1.44455
-1.49387
-1.51529
-1.4873
-1.46511
-1.50512
-1.8319
-1.91316
-1.83096
-1.89902
-2.01349
-1.84663
-1.9077
-1.7092
-1.63875
-1.59878
-1.75669
-1.81579
-1.72311
-1.6808
-1.57771
-1.61094
-1.56541
-1.62941
-1.68478
-1.64094
-1.61776
-2.53842
-2.74628
-2.64926
-2.48693
-2.42885
-2.64126
-2.57993
-4.22784
-4.48053
-4.31236
-4.26336
-4.16819
-4.36154
-4.16316
-2.81599
-2.9172
-3.07548
-3.09482
-2.08185
-2.34454
-2.95676
21.5001
-14.128
13.6688
-3.46948
1.56949
-2.99171
-2.99259
736.278
935.268
776.759
825.999
873.158
871.474
805.098
607.666
711.977
616.782
569.033
602.418
549.348
578.763
592.846
546.133
918.685
861.807
908.124
918.614
865.008
521.966
599.075
422.395
551.101
485.04
63.3231
43.3691
16.964
5.77509
-0.937428
23.2766
26.3727
-85.5475
-72.4545
30.8262
-30.5496
-13.5564
-58.4884
7.97135
2.18311
1.2428
1.48576
1.89245
1.04156
0.391912
1.84647
2.17871
2.76358
2.24085
2.77259
2.91459
2.51847
2.61888
4.31267
4.35324
4.35056
4.30809
4.24282
4.30137
4.29107
0.824701
0.614727
0.397741
-0.0345898
1.12807
0.747206
0.394988
-4.26359
-4.16977
-4.45316
-4.75454
-4.52294
-4.47575
-4.40884
-2.46974
-2.50512
-2.50435
-2.54554
-2.50286
-2.53437
-2.50587
-2.50127
-2.42019
-2.40936
-2.37274
-2.32282
-2.38424
-2.39079
-1.02703
-2.16478
0.432346
2.11666
3.89406
-2.62601
-1.71089
-2.37476
-2.39236
-2.38275
-2.37394
-2.36763
-2.37982
-2.37236
-2.5536
-2.56182
-2.57306
-2.54819
-2.53434
-2.5477
-2.56146
-2.79665
-2.81718
-2.82111
-2.84417
-2.82308
-2.83092
-2.8084
-2.08597
-2.11125
-2.13326
-2.11256
-2.07736
-2.73979
-2.81099
-2.87935
-2.96428
-2.85848
-2.89963
-2.78564
-3.79873
-3.84434
-4.01639
-3.67687
-3.83851
-3.723
-3.94669
-2.23061
-2.34474
-2.70922
-1.45022
-2.02453
-2.23776
-1.95959
-1.27076
-1.00267
-0.881707
-1.04381
-0.733678
-0.961371
-1.49693
608.035
609.954
816.423
2.5361
2.63945
2.50509
2.43613
2.28104
2.39975
2.51922
1.91049
2.05874
2.04086
2.03546
2.12279
2.21447
2.09469
2.54167
2.59513
2.66221
1.87482
1.99159
2.03495
3.87931
3.94767
3.95709
3.9984
3.97174
3.8864
3.93514
3.96808
3.92221
4.1125
4.07668
4.11583
4.07222
4.10202
4.12731
4.10234
4.10923
4.05662
4.13293
4.11456
4.11211
4.07204
4.05362
60.3227
63.8361
82.6479
56.719
37.9375
50.4274
69.4419
78.3666
79.0055
91.9731
73.0145
59.3889
62.4792
40.5168
57.1639
84.5819
66.403
53.0165
70.3568
79.6479
79.9771
93.7745
75.7085
62.1202
4.10634
4.02683
4.05077
3.94201
4.04316
4.02135
4.09843
2.62987
2.23709
2.5195
2.52111
3.491
3.09202
2.86912
-9.13453
-6.66078
-9.31424
-4.93825
-1.81322
-3.69789
-4.05762
-11.0148
-10.4538
-10.3071
-9.29628
-10.2795
-9.89799
-10.7413
-3.99123
-4.64555
-5.0272
-4.84241
-5.05366
-4.67864
-4.05305
-4.33815
-5.35534
-4.41038
-4.49491
-3.93795
-4.98203
-4.35288
-2.516
-2.44816
-2.52522
-2.58061
-2.56423
-2.51485
-2.53853
-2.36929
-2.36617
-2.37091
-2.37608
-2.37182
-2.36958
-2.36941
-2.65068
-2.65856
-2.67944
-2.64321
-2.62464
-2.6417
-2.66208
-2.79527
-2.77139
-2.79815
-2.80267
-2.82451
-2.7859
-2.81089
-2.84331
-2.80657
-2.77064
-2.80196
-2.82759
-2.61775
-2.64902
-2.60295
-2.56105
-2.61174
-2.6267
-2.64858
-2.59659
-3.24684
-3.11697
-3.09895
-3.05419
-3.05421
-3.14
-3.07845
-3.64553
-3.66813
-3.71396
-3.63595
-3.70285
-3.64538
-3.72284
-9.56108
0.141391
6.12952
-16.3218
3.39631
-1.96367
-2.04969
-4.43047
-1.3139
-2.92554
-2.53769
-3.17955
-5.08964
-2.09104
-2.93725
-2.66259
-3.25102
-4.11469
-3.0204
-3.07548
-3.46241
-0.753883
-1.12532
-1.36711
-1.36356
-1.56238
-1.69025
-1.4709
94.274
74.5614
70.3809
95.5642
75.3878
81.8977
61.3349
88.2501
88.8102
95.3611
69.6345
69.5488
76.4783
76.6447
80.0861
100.935
81.5538
4.05986
3.97417
4.08679
4.0863
4.12231
4.03723
4.09928
4.04083
3.90441
4.02649
4.10543
4.14724
4.03272
4.10407
3.56573
3.63465
3.5989
3.46907
3.56234
3.61756
3.55162
3.54812
3.51025
3.4043
3.85056
3.80919
3.79799
3.97726
3.99886
4.03032
3.67039
3.79328
3.83916
3.80669
3.74458
4.11579
4.1494
4.12767
6.85479
5.19116
8.27016
14.0196
5.89287
3.63506
7.7878
75.06
63.4041
94.2253
55.2522
72.1304
73.0174
72.5412
73.3118
93.976
83.8704
84.8055
62.3128
63.3212
62.0652
49.0563
31.3898
70.7163
48.5415
65.0296
55.3093
75.3396
6.78409
6.63585
6.68719
6.3564
6.77918
6.88493
7.39612
2.30723
-0.376959
5.4271
7.03943
4.19069
-3.225
6.16722
-6.01431
4.6922
-0.518245
-3.3906
-3.39886
-2.83128
-6.14634
-3.12635
-3.26783
-2.3297
-2.6987
-3.23996
-2.82978
-2.56519
-3.11579
-3.13549
-3.1469
-3.15785
-3.15776
-3.14615
-3.11301
-3.21044
-3.21726
-3.30515
-3.18592
-3.21553
-3.19426
-3.26439
-2.42556
-2.43204
-2.41123
-2.40763
-2.44525
-2.44424
-2.41541
-2.12064
-2.10154
-2.11034
-2.14419
-2.10055
-2.10269
-2.12232
-2.19137
-2.20895
-2.20375
-2.21807
-2.19987
-2.21436
-2.20167
-2.28416
-2.27464
-2.25213
-2.30026
-2.268
-2.29364
-2.2618
-2.55225
-2.56624
-2.59096
-2.53274
-2.51219
-2.53981
-2.56001
-2.80437
-2.80156
-2.8192
-2.80026
-2.77346
-2.77179
-2.80131
-2.9034
-2.88657
-2.91544
-2.91097
-2.92526
-2.90167
-2.89635
-2.87488
-2.90657
-2.94047
-2.93238
-2.89861
-2.90139
-2.86247
-2.90043
-2.89492
-2.86772
-2.85911
-2.89861
-2.85802
-2.88513
-2.90683
-2.93803
-2.92111
-2.91589
-138.181
-128.773
-119.78
-94.7427
-123.254
-139.02
-167.497
-116.852
-112.822
-2.91632
-2.59005
-3.0205
-2.31983
-3.68673
-2.26138
-3.2273
-3.13244
-3.13813
-3.0142
-2.95737
-2.87427
-159.173
-133.264
-142.826
-472.522
-492.812
-472.876
-468.617
-453.597
-455.15
-462.481
-474.226
-489.914
-485.181
-499.825
-477.614
-473.655
-462.549
-475.009
-484.938
-461.243
-475.819
-464.721
-493.824
-472.997
-473.184
-441.214
-464.533
-471.171
-454.169
-480.157
-503.731
-490.469
-494.617
-483.781
-478.126
-489.479
-480.079
-470.338
-483.799
-478.218
-470.835
66.4177
-12.7047
8.62816
-15.9331
-20.0096
-19.199
-43.0855
-2.88705
-2.90331
-2.90728
-2.92921
-2.91333
-2.90776
-2.93204
-2.93986
-2.91372
38.5821
58.3936
61.0395
85.0188
66.0422
58.4028
79.3615
87.1581
66.5677
74.6134
74.3071
93.0214
46.8112
57.1367
27.3768
-2.90617
-2.87183
-2.89727
-2.93939
-2.92129
-2.92076
-2.97585
-2.91458
-2.90581
-4.89861
-5.02464
-4.85851
-3.69206
-3.95235
-3.99226
-3.74414
-2.89055
-2.86573
-2.86293
-2.38876
-2.3989
-2.40346
-4.88969
-4.82959
-5.00793
-2.55527
-2.80914
-2.34794
-2.93733
-2.97716
-2.90462
-2.938
-2.43406
-2.41175
-2.41956
-2.38948
-2.37784
-2.38618
-2.37458
-11.0949
-11.9388
-12.5726
-11.432
-4.76539
-4.77512
-4.91013
-4.80878
-3.76174
-3.00778
-1.86491
-2.40413
-1.33667
-1.35731
-1.55076
-1.95601
-0.985724
-3.5494
-4.76375
-4.7687
-4.80835
-4.92533
-11.6674
-12.1109
-9.10838
-10.4602
-10.1222
-10.4799
-10.247
-8.88683
-8.27727
-10.9927
-2.89826
-3.23784
-1.59698
-1.96137
-2.31975
-1.70823
-3.69136
-3.67683
-3.4336
-3.56424
-3.4342
-3.31
-3.43972
-3.25588
-2.53858
-2.52739
-2.52811
-2.5165
5.48836
5.16236
6.03536
4.95
-2.77541
-2.76816
-2.75094
-2.16291
-2.18466
-2.15666
-2.17963
79.5324
105.215
51.9612
76.6244
-5.46328
-4.72765
-6.97689
-5.84002
-2.67344
-2.651
-2.64219
4.2708
4.26007
-5.14195
-5.02644
-6.70138
-7.24049
5.62359
-2.21874
-1.38764
9.50528
-2.52846
-2.56285
-2.92139
-2.89973
-2.89311
-2.88082
3008.78
2591.56
2195.79
1881.61
-2.74136
-2.69484
-2.73911
-2.69634
-6.39906
-8.15903
-5.63178
-12.001
2.39126
2.40848
2.52521
2.57982
-2.58581
-2.56966
-2.56803
-2.56222
-2.42075
-2.41251
-0.589849
1.33785
1.36993
2.89717
-2.88514
-4.5555
-5.68222
-4.71887
-6.4141
-6.35968
-7.64971
-3.51216
2.61406
2.43776
-90.9899
-83.7748
-2.82786
-2.81337
-2.8357
-2.81092
-14.7158
-15.0662
-12.5908
-13.7944
-15.3213
-15.0769
-13.3697
-12.8643
-2.3838
-2.37634
-2.76179
-2.77535
-2.75339
-2.77538
-2.44846
-3.48805
-2.14806
-4.82487
-2.81565
-2.82948
-2.83287
-2.81715
-1.75492
-2.24851
-1.41959
-1.37972
-1.41448
-1.35926
8.99861
12.1783
51.7708
17.7376
18.2196
43.9603
54.6593
3.50243
3.58329
3.51136
3.61568
4.11286
4.15022
4.14049
821.051
599.103
402.088
241.179
598.591
575.494
-2.5539
-2.56488
-1.35934
-1.36594
-1.44181
-1.53027
-1.54417
-1.49455
-2.8758
-2.90817
-2.86796
-2.89525
-2.9123
-2.88915
-2.54432
-2.55566
-2.97329
-3.06072
-3.05891
-3.06318
-3.071
-2.99491
-2.99376
-3.02929
5.19958
8.93871
3.23373
6.73207
-3.15838
-3.13695
-3.25877
-3.1921
-0.549095
-0.868813
2.62166
2.59004
-0.853207
-0.503306
1.45903
1.78201
-2.37522
-2.38355
-26.6828
-10.8959
-14.0608
-11.8762
-12.5033
-10.9387
-5.95484
-21.5602
-2.58855
-5.44798
26.5765
-20.2599
-2.83526
-2.91085
-2.83173
-2.95079
-0.450174
0.488787
0.828543
1.13543
-1.5114
-1.55263
-2.37202
-2.38188
-2.37562
-2.39259
-2.49082
-2.48328
-169.779
-167.886
-129.594
-133.141
-2.2768
-2.26576
-2.24648
-2.23927
56.4686
52.6775
180.263
78.0226
-4.75917
-2.22237
-4.36619
-4.06704
0.473072
0.461302
-11.3823
-11.9001
-2.27523
-2.32993
-2.15134
-2.26748
6.63311
7.04901
5.8348
6.70602
-2.38834
-2.38795
-2.37114
-2.36006
-2.36171
-2.34696
-1.62815
-0.510598
-2.76238
-2.74977
4.23393
4.19155
-382.076
-3.22407
-3.77628
12.11
2.44565
-1.69627
-1.67765
-1.71895
-1.68346
-2.23925
-2.23139
-5.20078
-5.2351
-2.37331
-2.38644
-3.89065
-3.8433
-3.75499
-3.71292
-7.23851
-7.29605
4.19336
4.23677
4.16938
4.26304
2210.68
2296.15
2614.05
-2.29742
-2.30954
-2.31989
-2.32849
-1.11437
-1.09442
-1.2425
-1.16485
-2.44838
-2.43131
-2.46583
-2.44469
-4.1542
-4.11667
-1.96032
-1.99251
-1.8894
-1.91823
-3.63549
-3.56455
-3.735
-3.6659
-2.22218
-2.21999
-2.17009
-2.1803
-2.17653
-2.17271
-2.15541
-2.15999
7.6896
5.67294
-2.36709
-2.3667
-2.35033
-2.36473
-2.35862
-2.37876
-2.37282
-2.3635
5.46017
8.85096
-7.67227
-11.978
-2.70515
-2.74788
-2.65104
-2.62565
-2.73945
-2.73565
-2.76315
-2.76831
-2.43091
-2.44827
-2.44441
-2.4659
-4.09412
-4.15175
-1.65706
-1.64528
-3.65471
-3.5237
-3.99304
-3.89546
-3.50537
-3.65969
-3.81022
-3.96128
-7.5632
-6.77931
-8.61144
-7.57657
-6.69741
-7.28978
-7.55583
-8.13227
-2.88093
-3.75388
-3.7507
3.78359
3.68225
3.80977
3.68979
-2.29918
-2.28254
-2.2527
-2.2389
7.54302
4.85437
-10.9715
-11.1198
4.31522
4.27563
4.25318
4.21627
3.72872
3.79804
3.68324
3.80889
6.28918
6.55471
7.0923
7.65084
-2.24856
-2.25575
-2.25129
-2.26329
393.915
368.162
-0.646831
-0.607431
-0.73258
-0.706343
-2.11144
-2.12804
-2.09275
-2.10192
-0.0769229
-4.06762
0.633444
3.4906
-70.7198
-76.2528
4.19
3.95781
-2.79995
-2.20137
-7.50616
-2.08722
-0.843155
-0.8189
-2.31347
-2.3116
4.14613
4.25819
-5.24629
-5.44146
-4.84511
-4.8874
-65.6918
-59.1102
-5.47152
-5.29808
-4.88034
-4.85306
-2.98721
-3.01163
-2.74291
-2.73681
3.84488
3.90604
4.20793
-2.03038
-2.0286
-1.73143
-1.755
1.22368
1.67237
1.25067
1.06869
-1.89251
-1.80295
-2.81698
-2.85064
-2.79276
-2.87462
-2.1336
-2.1494
-2.11974
-2.1595
-2.34133
-2.32616
-2.14581
-2.12799
-2.15426
-2.12627
-2.8658
-2.85254
-2.85253
-2.86577
-2.73426
-2.75352
-2.91316
-2.9801
-11.123
-10.8907
-3.0639
-3.02455
-3.10136
-3.0434
-2.13606
-2.12344
6.78758
5.80915
8.97517
9.21667
-3.31938
-2.99804
3.91649
4.65783
4.66788
8.34778
5.26305
3.05993
6.76819
1.37906
-6.20119
-6.11063
-2.09579
-2.10538
-2.67448
-2.71742
-1.64035
-0.335079
-2.41751
-2.38081
-2.43369
-2.3432
-2.85495
-2.39202
-2.60054
-2.57398
2.32611
2.12511
2.57647
4.0173
-2.82266
-2.95324
-5.02127
-26.9869
-3.15312
-4.50701
-12.0286
-12.1291
-11.6134
-11.4765
-3.32072
-3.36623
0.867024
0.850609
0.824486
0.962515
-2.37984
-2.37419
-2.37771
-2.36548
-9.26292
-10.03
-8.66581
-10.1384
-2.59585
-2.6128
-2.48459
-2.49656
4.06427
3.98646
3.81769
3.82381
-2.48462
-2.49657
0.12568
0.0632959
0.265644
0.217744
-3.36396
-3.31483
0.670752
-1.67998
-11.573
-9.42711
-8.52742
-8.58977
-2.5326
-2.54244
-43.5686
-36.0872
-68.7405
-66.4663
-2.47587
3.91966
3.95095
3.94263
-1.14979
-1.10687
-2.0921
-2.09914
-2.10444
-2.11816
2.97505
3.01153
2.96772
3.01742
0.0148846
0.000499822
0.0871785
0.109866
0.234863
0.207976
-2.53484
-2.5236
-2.15565
-2.12847
3.83153
3.26388
4.16348
3.90848
3.55301
4.0849
4.60358
4.56621
-2.53481
-2.52358
-2.33103
-2.33122
-0.550355
-0.236172
-2.73049
-2.73053
-2.73903
-2.89212
-2.90522
-3.77215
-3.83285
-3.86425
-4.09784
-6.88752
-6.8448
-4.20668
-4.41588
-4.32152
-4.50723
-2.82797
-1.59874
-1.96735
-3.30672
-403.751
-391.719
-2.55045
-2.78353
-3.62385
-3.58686
-3.26051
-3.33596
-3.35214
-3.3268
-1.25543
-1.92721
-2.6554
-2.65339
-2.19566
-1.95212
-2.14038
-2.30708
-2.03964
-2.08504
-2.07913
-2.03644
-2.13216
-2.12787
-2.34605
-2.71089
-2.9242
-2.88367
-2.44109
-2.4613
-2.43999
-2.46117
-332.402
-336.377
11.5838
6.13321
34.812
15.6291
-2.65022
-2.65093
-2.16146
-2.17107
-13.0517
-12.1582
-11.6167
-11.2465
-1.35946
-1.33867
0.0441156
-0.00865487
-0.294742
-0.393641
-2.18366
-2.198
8.24521
0.58341
0.760839
7.68686
13.1192
8.24245
-2.99475
-2.93964
-3.0856
-2.91367
-2.18668
-2.17372
-2.58561
-2.57572
-2.58779
-2.5697
-2.1614
-2.17096
-2.38053
-2.37212
-376.567
0.250062
5.76371
6.60676
-0.106087
0.312278
-1.96014
-1.98215
-0.826564
-0.865599
-2.56518
-2.56646
-2.48708
-2.49199
-2.53162
-2.56537
-2.56657
-2.34811
-2.37471
-2.49292
-2.4803
-2.99137
-3.07669
2.37889
2.41912
-0.724247
-0.726526
-0.656039
-0.684674
-2.31158
-2.32073
-1.68102
-1.35945
-3.14509
-3.27924
-3.28836
-3.28877
-3.55834
-3.94592
-3.43815
-4.2652
-3.13915
-3.10557
-4.28331
-4.5371
-2.08987
-2.07927
-5.75035
-5.51408
-2.18228
-2.20166
-2.18228
-2.20138
-2.10929
1.30273
-2.03331
-2.02602
-2.55694
-2.13768
-2.3904
-2.40531
-2.60012
-2.61643
-2.02815
-2.02159
-2.53653
0.535146
-3.10827
-3.13294
4.84088
3.83942
0.381676
0.294031
-10.7465
-9.84355
-12.4222
-11.1469
-10.1689
-9.56886
1.68509
1.78946
1.7482
1.93292
-3.59098
-1.94818
1.98502
1.76575
1.96125
1.74852
-4.7613
-4.82399
-2.44013
-2.42853
-2.78517
-2.72568
-7.04858
-6.01383
-2.49042
-2.48666
-2.7688
-2.7551
-2.49043
-2.48663
-2.21597
-2.22881
-2.21501
-2.2271
-3.13925
-3.12636
-3.14615
-3.13053
-1.52939
-1.12798
-2.31106
-2.29514
-0.951531
-0.792595
0.671348
0.621355
0.53232
0.484327
-4.08362
-4.152
-2.3493
-2.358
-2.65339
-2.63618
-2.67267
-2.64322
-6.82463
-6.44841
-0.448056
-0.392714
-0.400747
-0.452265
6.47588
6.72313
-2.19039
-2.65513
-2.26837
-2.60349
-6.79184
-6.47608
-2.4532
-2.44086
-4.08324
-4.14944
-3.6537
4.30182
-4.50192
-4.67379
-1.54238
-1.52882
-2.57111
-2.56416
-2.02115
-2.00536
-2.02112
-2.00535
-1.75601
-1.81305
-2.87564
-2.62408
22.0841
15.9064
8.31382
8.2872
-1.11029
8.82771
2.03761
3.82517
-1.94116
-2.30373
-1.63082
-1.78494
-2.40567
-2.81211
-2.25911
-2.24147
-2.02072
-2.02861
-2.61771
-2.61123
0.714108
0.536434
-1.01994
-1.05019
-1.02107
-1.05256
-4.45951
-4.67618
-2.34901
-2.36768
-1.63951
-3.02346
-3.09739
-3.11746
4.36074
4.35648
-1.19931
-1.15741
5.99687
5.68121
-4.68517
-0.405646