/*--------------------------------*- C++ -*----------------------------------*\
| =========                 |                                                 |
| \\      /  F ield         | OpenFOAM: The Open Source CFD Toolbox           |
|  \\    /   O peration     | Version:  v2012                                 |
|   \\  /    A nd           | Website:  www.openfoam.com                      |
|    \\/     M anipulation  |                                                 |
\*---------------------------------------------------------------------------*/
FoamFile
{
    version     2.0;
    format      ascii;
    class       volScalarField;
    location    "0.2";
    object      p_rgh;
}
// * * * * * * * * * * * * * * * * * * * * * * * * * * * * * * * * * * * * * //

dimensions      [1 -1 -2 0 0 0 0];


internalField   nonuniform List<scalar> 
24700
(
2828.75
2808.26
2873.9
2794.24
2795.7
2882.2
2851.7
2834.91
2778.25
2778.52
2802.13
2805.06
2794.04
2825.39
2818.16
2813.69
2810.53
2858.73
2847.48
2812.16
2894.72
2892.86
2819.08
2812.65
2916.8
2855.93
2864.33
2831.1
2860.23
0.00323701
0.00199361
0.00167009
0.00177911
0.00858474
-0.00117032
0.00649934
0.052436
0.0509503
0.043346
0.038614
0.0430301
0.0423353
0.0485612
-0.996899
-1.13031
-1.00845
-1.00036
-1.10187
-1.12788
-0.953992
-3.19268
-2.31398
-1.93817
-2.2779
-1.95624
-2.75086
-1.84596
2.49627
4.32514
1.75909
13.0163
23.0205
2.98736
7.26642
-0.255037
-0.272375
-0.251809
-0.23773
-0.260039
-0.268797
-0.245994
-0.00654517
-0.00818297
0.00379287
-0.0197475
-0.0154184
-0.00646435
-0.0127294
1389.57
214.659
2702.21
1383.52
151.969
2146.54
2602.45
0.143348
0.123088
0.111888
0.146036
0.122692
0.123792
0.132969
-0.0950745
-0.0976301
-0.0906169
-0.0861825
-0.0820083
-0.091515
-0.0877113
-0.0616497
-0.0606116
-0.0700698
-0.0618726
-0.0529232
-0.0562455
-0.0656762
0.0996619
0.104618
0.0872398
0.0806873
0.0692995
0.091769
0.0826524
1.22056e-05
0.00274327
0.00440197
0.00588811
0.00938521
0.0109115
0.00433203
0.00260795
0.00319723
0.00301952
0.000520682
0.00060136
0.000812672
0.00133389
0.00214375
0.00100979
0.0013454
0.000929038
0.000799716
0.000382457
0.000228177
0.000947941
0.00170459
0.00118669
0.0016729
0.000953053
0.000563218
0.00112304
0.00135546
-0.0792658
-0.0725681
-0.0753167
-0.0854823
-0.0838606
-0.0776139
-0.0798735
-0.943863
-0.992477
-0.879502
-1.05478
-0.93978
-1.1014
-0.89773
-10.1417
-11.228
-11.0383
-10.5443
-10.3538
-9.97276
-9.98797
5.22342
1.99258
-4.97567
5.27097
8.05817
5.22366
3.99929
4.81833
6.31145
5.41695
5.99173
4.98359
8.75465
4.43314
4.86978
4.97836
4.86212
4.88988
4.8823
4.93992
4.86384
4.8123
4.58883
4.91995
5.0569
5.17365
4.75402
4.97132
-3.95134
-3.71578
-3.82612
-3.7075
-3.92973
-3.77801
-4.003
-1.4312
-1.65869
-1.65508
-1.56804
-1.27919
-1.64931
-1.74652
1840.84
1755.75
1980.62
1761.37
1940.29
1959
1885.72
-0.450224
-0.286927
-0.415928
-0.482805
-0.441767
-0.328269
-0.454265
-2.51683
-2.35691
-2.30003
-2.15712
-2.30643
-2.06792
-2.28575
-4.00136
-5.56514
-4.94894
-3.16197
-3.3861
-5.06864
-4.21081
8.78668
4.65329
10.2975
6.45907
-3.28055
-2.40081
5.02027
4.18292
4.15865
4.3363
4.47433
4.20598
4.10399
4.67112
6.07428
6.92914
5.80268
6.85044
6.4343
5.22288
103.018
99.4987
98.3456
100.147
103.517
97.2682
34.9369
22.6233
14.6042
11.196
9.3523
5.93035
11.609
5.72707
5.62413
5.62905
6.0044
6.16461
5.44779
5.49383
5.06026
5.09857
5.24261
5.81055
5.25776
5.16992
6.73512
1.51832
1.64984
1.88636
0.654268
1.05081
1.34643
1.35157
10.2683
36.2402
49.593
104.581
108.583
37.7539
32.1421
28.1429
103.392
74.2536
28.8236
22.5771
23.5648
55.405
-11.5247
-10.7958
-12.7591
-8.74106
-10.8568
-11.9996
-9.44709
-1.54999
-1.55414
-1.17261
8.86826
2.6305
0.550595
2.64097
-0.521773
-0.480898
-0.497401
-0.512375
-0.538172
-0.488836
-0.530714
-0.470163
-0.456456
-0.474429
-0.474443
-0.496925
-0.467555
-0.485343
-0.0426262
-0.0402055
-0.0461961
-0.0488653
-0.05202
-0.0447215
-0.0469599
0.0323349
0.030863
0.0346205
0.0286387
0.036066
0.0295869
0.0348514
0.0330775
0.0321272
0.0301368
0.0304936
0.0355048
0.0300902
0.0337887
0.0175291
0.0161256
0.0155463
0.0141658
0.0146346
0.0149966
0.015909
0.011085
0.0102486
0.0111109
0.010566
0.0122758
0.0101884
0.0112899
0.00711754
0.00767106
0.00656933
0.00944065
0.00806931
0.00736779
0.00806608
0.00501297
0.00446709
0.0053227
0.00372961
0.00366014
0.00414596
0.00445469
0.00119878
0.00169156
0.0016151
0.000644164
0.000997897
0.00119619
0.00133118
-0.0124458
-0.0134792
-0.0135328
-0.0110881
-0.0111301
-0.0123145
-0.0119506
-0.0906828
-0.0976435
-0.0950946
-0.082053
-0.0863265
-0.0915028
-0.0877936
-0.144336
-0.142357
-0.154193
-0.147134
-0.134336
-0.137868
-0.152189
2145.77
1833.47
1590.71
2142.77
2155.22
2135.46
2095.2
-1.49956
-1.4219
-1.43638
-1.19574
-0.797054
-1.147
-1.39962
-0.654988
-0.332973
-0.23758
-0.180023
-0.352238
-0.234195
-0.658699
5.38275
5.79413
5.41278
6.21783
6.29861
6.27558
5.52463
4.51587
4.56369
4.52558
5.56096
4.66255
5.23289
4.61233
4.50647
4.58269
6.12801
4.90487
5.77355
5.71732
4.70182
5.57706
5.28953
5.21374
4.56992
5.2794
4.6712
4.68596
5.77322
4.56299
4.53531
5.13258
5.71748
4.99022
4.88737
4.94831
4.85465
4.84058
6.1755
85.0949
-0.715001
25.3592
100.555
70.5739
130.178
-1.67395
-1.41698
-1.67713
-1.86907
-1.69847
-1.57435
-1.77127
-2.1795
-2.01803
-2.16193
-2.26989
-2.16754
-2.08471
-2.20531
-0.594078
-0.583806
-0.586524
-0.596979
-0.61206
-0.596588
-0.589104
-0.36272
-0.344894
-0.352015
-0.340545
-0.363156
-0.342005
-0.363909
-0.121165
-0.115439
-0.112827
-0.127703
-0.131595
-0.124277
-0.121456
0.0537976
0.0606909
0.0562724
0.0609356
0.0513744
0.0612852
0.0534417
0.0573606
0.0616871
0.0638229
0.0839233
0.0684561
0.0626609
0.0640379
0.0200005
0.0212382
0.0200272
0.0233744
0.0219843
0.022004
0.0211323
-0.00331442
-0.00452798
-0.00452034
-0.00608338
-0.00387482
-0.00500429
-0.00352308
-0.00553434
-0.00762415
-0.00686766
-0.00962601
-0.00550535
-0.00862404
-0.00533568
-0.238462
-0.261704
-0.276951
-0.241386
-0.230162
-0.2602
-0.269575
0.804832
0.599845
0.711705
0.605
0.279288
0.726279
0.462937
1.98472
2.28574
2.05401
2.16352
1.98131
2.24249
1.9998
2.10354
2.19987
2.29227
2.34756
2.45282
2.31893
2.19995
5.44983
4.34578
4.79217
4.31967
4.32232
5.47572
5.91476
4.19884
4.31701
4.26192
4.24907
4.22379
4.25193
4.23112
7.46008
4.68288
5.10045
6.48229
7.54732
5.20224
5.14345
18.1594
48.8354
14.4282
16.2583
23.4874
40.91
10.1456
30.7313
39.0966
28.2531
28.1485
54.7469
40.373
23.5369
-1.07167
-0.34875
-0.90828
11.0509
5.22248
2.29201
0.0156688
929.193
845.503
948.655
899.804
826.743
924.155
945.363
-0.989352
-1.01503
-0.99378
-1.03678
-1.09883
-1.04636
-1.06177
-0.222789
-0.272988
-0.286823
-0.248788
-0.272505
-0.277885
-0.247046
-0.0715514
-0.0631253
-0.0773657
-0.0789663
-0.0889521
-0.0694153
-0.0780141
0.14079
0.16065
0.133557
0.127419
0.136663
0.140137
0.127493
0.137251
0.130012
0.126096
0.161969
0.145706
0.0810085
0.0789316
0.0904744
0.0959327
0.0807988
0.0823708
0.0930469
0.0927767
0.0861251
0.0863901
0.095672
0.0821502
0.0604596
0.0596288
0.0575475
0.0671089
0.0609956
-0.000403554
-0.00347218
0.00203126
0.000546127
-0.002179
-0.00301983
0.00142217
-0.013641
-0.0161178
-0.0229758
0.00155445
-0.013104
-0.00831516
-0.0199029
-0.199831
-0.181964
-0.184214
-0.195072
-0.215548
-0.193462
-0.188315
-0.19738
-0.183295
-0.197131
-0.186311
-0.181613
-0.18966
-0.195767
-0.111451
-0.124483
-0.092556
-0.0549508
-0.0899213
-0.0503135
-0.113953
-0.175547
-0.129527
-0.112412
-0.0919336
-0.0583101
-0.105089
-0.157523
0.404091
0.353494
0.311155
0.594759
0.615562
0.534607
0.355947
0.783742
0.865885
0.827669
0.83671
0.807555
0.842456
0.788445
3.04811
3.08875
3.14498
3.06203
2.99312
3.06152
3.12619
3.06671
2.94987
3.14089
3.0946
3.03865
4.28741
4.142
4.13411
4.34566
4.18756
4.13759
4.5446
4.57631
4.65768
4.68643
4.7629
4.74376
4.71429
4.675
2.99101
3.06606
1.9956
1.51557
2.04276
1.60141
1.88446
307.799
193.506
430.304
258.714
386.673
249.189
410.116
-1.63297
-1.56302
-1.75964
-1.96725
-1.83066
-1.81453
-1.65141
0.227367
0.74085
1.08011
1.62322
4.36819
1.09414
1.96435
0.776619
3.81628
9.38094
3.59781
0.594063
0.571698
4.09106
-1.46861
-1.22063
-1.36502
-1.15293
-1.2185
-1.14829
-1.32731
-0.798689
-0.811789
-0.783082
-0.768455
-0.668527
-0.769512
-0.793412
0.270081
0.297991
0.260252
0.243991
0.25856
0.265353
0.247321
0.261319
0.251553
0.243389
0.296209
0.271303
0.0562873
0.0607084
0.0538227
0.0513952
0.060966
0.0613209
0.053452
-0.00963358
-0.00837247
-0.00515184
-0.00978123
-0.0140748
-0.0115807
-0.0074587
-0.0310129
-0.0325414
-0.0282228
-0.0289346
-0.0337184
-0.0336844
-0.028336
0.00144491
0.00129944
0.000258477
0.00161988
0.00268076
0.0019769
0.00225754
0.00653412
0.00489408
0.00497283
0.00137157
0.00323205
0.00501499
0.000436642
0.00718958
0.00487159
2553.11
2593.69
2534.91
2612.56
2542.57
2606.13
2551.38
0.0849742
0.0509666
0.0863461
0.0324618
0.0679247
0.04179
0.059482
-0.119027
-0.125695
-0.126823
-0.111117
-0.108277
-0.116049
-0.118477
-0.139553
-0.146081
-0.155599
-0.151999
-0.139084
-0.154614
-0.139086
-0.0564766
-0.0249299
-0.0544523
0.0162768
-0.0181858
-0.0134001
-0.0564231
-0.0716468
-0.0610026
-0.0516768
-0.0911542
-0.0396577
-0.0483511
-0.0641721
0.528858
0.532825
0.359537
0.374812
0.412791
0.452433
0.479391
1.1167
1.07765
1.0875
1.02957
1.03538
1.05471
1.08786
1.78206
1.84402
1.69738
1.72747
1.69051
1.79469
1.79456
327.215
274.337
388.116
452.769
220.008
252.158
417.947
633.936
771.988
631.313
965.299
750.124
864.54
740.343
450.279
766.774
474.878
640.074
549.862
816.61
500.561
1096.57
786.095
771.227
-1.49255
-1.58373
-1.63243
-1.44763
-1.49045
-1.60088
-1.59695
341.265
354.66
382.85
399.084
379.941
365.084
361.129
464.107
487.397
487.451
111.63
16.1976
50.3402
328.574
0.906508
3.45905
4.24918
-1.11852
1.11508
0.470409
0.466435
0.164962
0.140885
0.245557
0.436921
0.21216
-0.059933
0.480784
0.318159
0.327164
0.33813
0.334749
0.364095
0.373186
0.346348
0.327583
0.303736
0.320671
-0.0260143
-0.0318932
-0.027068
-0.0266821
-0.0216838
-0.0290617
-0.023299
0.0392365
0.105361
0.0339583
0.022985
0.00607016
0.00840034
0.0447514
0.0854057
0.0266612
-0.00335083
-0.0035903
0.0399481
-0.0298802
0.0361841
0.0381683
0.116424
0.0410778
-0.00324889
0.000583502
-0.0906881
-0.0467626
-0.0129423
-0.0458141
-0.0765351
-0.0271858
-0.0776738
-0.0441871
-0.0378011
-0.0909308
-0.102551
-0.062588
-0.0633677
-0.0582006
-0.0533709
-0.0525191
-0.0584872
-0.0575155
-0.0546987
-0.0442955
-0.0532333
-0.0476895
-0.0634387
-0.0467501
-0.0610119
-0.0815482
-0.0429516
-0.0816709
-0.0481215
-0.0321743
-0.029468
-0.0676973
1.2174
1.28962
1.19012
1.20068
1.1418
1.21663
1.19735
3.67771
3.68829
3.78161
3.61328
3.54394
3.659
3.66306
3.63398
3.42885
3.52147
3.39788
4.17853
5.26615
3.28146
-7.02905
-2.05033
-5.09882
-5.94875
-8.36033
-3.51898
-9.37175
28.9946
39.7245
29.1105
50.5091
25.9651
41.3734
23.6775
642.765
656.373
1101.21
346.293
585.623
305.733
320.892
157.224
312.874
415.072
240.026
377.593
256.812
698.096
400.705
-2.40612
-2.44941
-2.42592
-2.47883
-2.45943
-2.48509
-2.43256
-2.3548
-2.33671
-2.33382
-2.38168
-2.38118
-2.35557
-2.34333
-4.23378
-4.60982
-4.89756
-4.03335
-3.94286
-4.20869
-4.0258
-1.45463
-1.24208
-1.42705
-1.28487
-1.56441
-1.25764
-1.45212
-0.402766
-0.464329
-0.582878
-0.958886
-0.754523
-0.773263
-0.688522
0.577819
0.591483
0.547756
0.546535
0.482063
0.569479
0.523159
0.376927
0.410153
0.411052
0.466496
0.70698
0.411784
0.641642
0.801196
0.692453
0.679984
0.708771
0.818541
0.857776
0.817157
0.518271
0.525988
0.509592
0.646544
0.596975
0.583136
0.581826
0.499897
0.43999
0.46019
0.437354
0.502067
0.449338
0.508654
-0.204488
-0.19329
-0.123711
-0.150003
-0.232932
-0.235181
0.0165495
-0.294396
-0.303234
-0.321051
-0.336003
-0.320396
-0.317715
-0.304187
-0.154508
-0.139006
-0.156425
-0.136
-0.0425112
-0.0725081
-0.128327
0.533332
1.44438
2.04862
0.23801
0.174153
0.602607
0.766339
-0.000640518
-0.00555638
-0.0071907
-0.00613293
-0.00876193
-0.0091682
-0.0180414
-0.00404835
-0.00116115
-0.00394572
-0.0119911
-0.0101666
-0.00795349
-0.0132508
-0.00946783
-0.00948206
-0.0134528
0.050956
0.0420019
0.0550752
0.0594435
0.0576476
0.0459842
0.0541652
1.13453
1.19137
1.19999
1.21351
1.16076
1.19439
1.13777
1.99925
1.87487
1.97989
1.77646
2.00229
1.81158
1.94678
1.54376
1.50477
1.66763
1.74243
1.31656
1.41602
1.68406
0.0699391
-0.0839465
-0.588351
0.322292
2.18006
0.755375
0.222662
-2.33512
-2.49889
-2.27022
-1.77971
-2.21565
-1.54177
-2.24283
-2.93208
-2.00896
-2.16142
-1.97898
-3.08123
-3.18557
-2.1742
0.611899
0.703742
0.613231
0.666965
0.67267
0.584824
0.619468
0.369873
0.380353
0.402123
0.437399
0.479038
0.483218
0.432287
1.32556
4.92791
0.762712
-0.110332
0.0982802
2.94591
0.246628
0.136894
0.0574114
0.0761623
0.28408
0.23005
0.211379
0.230327
5.92803e-05
-0.000622784
4.92978e-05
0.00115539
0.000176534
0.0022891
0.00111205
-0.00140788
-0.00311593
-0.0001778
0.00200649
-0.00402489
-0.00401636
0.000939423
0.464344
0.419826
0.413049
0.439251
0.428127
0.419312
0.439911
0.578912
0.55059
0.555487
0.543991
0.550958
0.553726
0.537416
1.19711
1.23085
1.30212
1.08418
1.17112
1.23151
1.14437
0.796128
0.70377
0.877138
0.711091
0.384199
0.821309
0.527267
-4.28943
-4.93262
-4.72705
-5.2846
-4.23599
-5.72993
-4.4029
-10.9027
-11.0961
-8.60141
-10.4872
-9.73689
-9.66003
-9.9706
-12.3334
-11.0175
-11.7695
-10.4495
-11.3118
-8.98422
-12.1644
-12.0245
-10.7589
-10.443
-9.71891
-9.13953
-9.58672
-10.802
-5.96665
-5.66348
-4.28493
-6.81966
-8.20135
-6.71879
-5.82792
-0.841717
-1.17452
-0.393661
-1.04676
-1.24163
-1.42768
-0.91683
1181.29
822.948
760.101
1377.46
433.164
1268.13
538.93
719.748
1405.8
1581.68
1662.9
1356.12
245.742
361.016
495.826
190.583
1283.26
1429.03
7.01506
14.9765
6.49562
25.5834
27.0669
20.88
23.0742
-3.30225
-2.15435
-3.41658
-4.71018
-2.47578
-2.1801
-4.85813
-4.65579
-4.48706
-4.1038
-4.86853
-3.18989
-4.95344
-3.06851
-9.3325
-9.66849
-10.5684
-9.10205
-8.78667
-9.41508
-10.427
1.37981
0.431319
0.219625
1.14388
-0.120111
1.85719
0.934564
1.33639
1.39104
1.32651
1.33495
1.28106
1.27782
1.31939
1.33046
1.47616
1.36081
-0.607627
-0.625177
-0.666789
-0.644516
-0.751313
-0.664784
-0.686901
2133.72
2150.23
2122.99
1609.91
1957.74
2114.22
2001.62
2.30769
6.83443
0.154222
1.72507
-0.0382172
10.8724
4.40743
-0.259668
-0.101206
-0.0260819
-0.294092
-0.269175
0.00480112
0.174554
-0.0999998
-0.0977888
-0.0923283
-0.0843239
-0.0873976
-0.0907528
-0.0943686
-0.0633748
-0.062662
-0.0582195
-0.0524787
-0.0533872
-0.0575058
-0.0584635
3.82156e-05
-0.000744785
-0.00104515
0.00846644
0.00389075
0.000437171
0.0066916
0.00845454
0.0137063
0.0462983
0.0250075
0.00835849
0.00642195
-0.0456813
0.00669107
0.000606763
-0.00492908
0.023016
0.00556883
-0.0809552
-0.0183743
-0.0226464
0.00732931
-0.0275022
-0.00459847
-0.0221684
-0.112486
-0.0557413
-0.0723719
0.129867
0.0532541
0.220532
0.102893
0.226756
0.0473261
0.206773
0.226531
0.223774
0.209999
0.210474
0.210308
0.213677
0.269285
0.345893
0.357746
0.365295
0.348966
0.364911
0.382921
0.364921
0.349037
0.368777
0.608543
0.560243
0.548258
0.673639
0.728129
0.644497
0.674716
0.624558
0.670852
0.620785
0.864304
0.872042
1.05815
0.830516
0.901048
0.953609
0.872499
-1.68245
-1.42256
-1.69248
-1.69386
-1.85303
-1.58077
-1.7662
2.37993
-0.349133
-0.363592
2.26338
1.43198
0.00917942
-0.193476
78.4975
266.335
110.112
161.824
159.281
181.537
-4.12278
-4.8579
-6.04162
-4.63124
-5.97672
-3.79911
-5.08573
8.44117
6.29308
7.80805
7.57073
6.78498
6.73062
9.65142
1.58366
1.64524
1.67216
1.64033
1.72563
1.75532
1.68861
1.51753
1.58789
1.62796
-3.63313
-3.09957
-3.39979
-4.21962
-3.51402
-3.18699
-3.83534
-0.588337
-0.584523
-0.596991
-0.609851
-0.593976
-0.599048
-0.591771
-0.43666
-0.216156
-0.669194
-0.552328
-0.73548
-0.434171
-0.479932
1787.71
1924.34
1795.31
1854.24
1957.96
1938.21
1899.98
-0.234616
-0.251674
-0.240842
-0.226552
-0.236529
-0.241624
-0.234461
-0.219629
-0.219186
-0.216143
-0.22234
-0.245851
-0.240394
-0.22453
-0.212555
-0.218476
-0.215386
-0.206347
-0.206021
-0.213665
-0.21087
-0.118589
-0.107848
-0.110721
-0.126772
-0.125523
-0.115985
-0.11822
-0.0872033
-0.0887064
-0.0814001
-0.0747916
-0.0750502
-0.0816399
-0.0814899
0.0143819
0.02061
0.00463688
0.0125811
0.0115873
0.0167768
0.0118491
0.0456466
0.0497318
0.0635979
0.0538366
0.0464415
0.0504791
0.0620173
0.36999
0.328742
0.28358
0.347625
0.275399
0.369198
0.272883
0.25135
0.247831
0.252431
0.258565
0.262974
0.255954
0.243376
0.240646
0.2514
0.237825
0.251945
0.276569
0.239266
0.255878
0.368401
0.362676
0.387081
0.389056
0.375513
0.396667
0.37675
0.396247
0.371911
0.377667
0.543659
0.586301
0.541326
0.535759
0.543955
0.558291
0.535484
0.211278
0.127687
0.229696
0.0745118
-0.0209042
0.179616
0.0962955
0.0654878
0.14863
0.149604
0.170882
0.042607
0.0876497
0.20378
0.125613
0.0739168
0.122755
0.0760252
0.0116904
0.0463663
0.0745951
-0.775466
-0.604997
-0.826875
-0.68771
-0.528575
-0.446981
-0.357231
-2.79965
-3.11917
-2.92592
-2.86657
-2.70393
-2.88597
-2.80962
-1.18934
-0.638339
-1.45976
2.81712
6.86461
1.76434
-0.471527
524.52
460.478
524.471
17.5291
130.076
58.268
415.583
793.932
974.48
813.27
840.049
905.548
897.522
849.543
620.012
724.322
621.772
599.765
633.144
563.469
592.928
625.352
578.679
935.8
878.94
913.198
942.042
900.503
557.555
644.808
485.839
578.464
530.831
142.412
131.204
65.4653
30.9083
12.0519
108.388
98.5634
-2.97913
76.0675
132.359
97.4213
108.331
82.0061
97.7528
9.22414
6.35593
6.76674
5.5373
7.38981
4.29105
3.8932
3.05388
3.55752
3.06332
3.5708
3.80859
3.37362
3.70387
5.36981
5.23682
5.26989
4.72807
4.62634
4.77424
4.63841
4.09714
1.97342
2.07078
1.83761
2.45821
2.17957
2.52997
-3.14853
-3.07358
-3.35965
-3.68779
-3.43733
-3.3969
-3.31113
-0.900267
-1.11287
-1.16803
-1.23261
-1.15759
-1.18451
-1.03077
-1.19744
-1.06771
-1.08027
-0.969281
-0.975525
-1.03654
-1.05682
74.5508
30.1456
35.6055
329.903
646.496
43.3007
66.494
-0.27456
-0.262464
-0.272991
-0.294147
-0.272349
-0.267192
-0.281037
-0.0147837
-0.0198286
-0.0126712
-0.009921
-0.0144574
-0.0154521
-0.0108176
0.0190407
0.0188853
0.0231464
0.0171597
0.018232
0.0140629
0.0159774
0.281209
0.284512
0.259266
0.275801
0.289549
-0.736996
-0.689518
-0.95058
-0.876826
-0.749775
-0.885508
-0.835938
-1.83852
-1.88785
-2.07363
-1.65234
-1.84033
-1.83349
-1.96538
-1.28065
-1.35083
-1.74864
-0.316064
-1.05185
-1.21911
-1.1209
-0.613661
0.889566
1.13654
1.01404
1.41536
0.145033
-0.592679
642.969
654.061
842.151
3.30805
3.393
3.27887
3.21911
3.08242
3.19009
3.29117
2.77563
2.90548
2.88577
2.88221
2.95115
3.03179
2.93039
3.31239
3.35665
3.40534
2.75038
2.84876
2.88292
4.32101
4.37282
4.36628
4.38948
4.37929
4.32787
4.35963
4.37616
4.34874
4.46505
4.45173
4.4659
4.45189
4.46935
4.47977
4.4797
4.45946
4.43275
4.50151
4.47567
4.50627
4.47603
4.43428
97.03
96.7972
97.2429
97.7542
96.3839
96.8344
97.6139
96.8951
97.903
97.2978
96.6965
96.5327
99.3013
98.5017
98.1561
99.1856
99.353
99.0908
98.4686
98.5561
98.8346
99.1017
99.333
98.8251
4.69875
4.5724
4.70051
4.39538
4.61811
4.36194
4.54607
4.62182
4.35664
6.00682
4.66265
5.50387
4.86685
6.60823
18.4159
20.026
15.5405
20.6712
24.7148
21.5396
23.0297
-9.50694
-8.98433
-8.8861
-6.57314
-8.726
-8.76541
-9.30859
1.49641
-2.13326
-3.75957
-3.87899
-4.0788
-2.49661
-1.83719
-3.02772
-4.01067
-3.06355
-3.54818
-2.99045
-3.85383
-3.4349
-1.24233
-1.19346
-1.24187
-1.34819
-1.3135
-1.27118
-1.2751
-0.399065
-0.414544
-0.421187
-0.451659
-0.429078
-0.433841
-0.415159
0.0606384
0.0354726
0.0398583
0.0596574
0.0501961
0.038032
0.0426021
0.0357928
0.0417282
0.0346322
0.031243
0.0278864
0.0370036
0.0301965
0.0182278
0.0273511
0.0430075
0.0299459
0.0225958
0.0810992
0.0663775
0.0841646
0.100264
0.0753726
0.0761361
0.0684485
0.0866041
-1.80011
-1.67355
-1.60331
-1.5953
-1.61238
-1.70295
-1.62705
-2.42592
-2.45167
-2.51667
-2.39681
-2.48023
-2.41659
-2.51124
905.972
859.351
841.714
949.486
931.1
930.91
952.115
4.2727
9.28651
14.7806
14.3224
12.9517
10.3043
15.1176
-2.23847
-0.648285
-0.931049
-2.32629
-1.62734
-0.268819
-2.86923
0.340707
0.4606
-0.313982
-0.242701
-0.0500663
-0.655603
-0.395245
104.696
103.367
104.716
105.982
104.131
107.029
104.816
99.8629
100.435
99.6181
99.5038
99.5628
98.8659
98.7243
102.144
104.611
103.492
4.40641
4.25787
4.41942
4.34793
4.58624
4.30032
4.75451
4.42001
4.51129
4.59899
4.43375
4.50156
4.46711
4.53429
4.11647
4.15808
4.14066
4.04007
4.11485
4.1518
4.10427
4.10186
4.07324
3.98566
4.30734
4.28378
4.27738
4.38195
4.39722
4.41331
4.17781
4.27337
4.29837
4.28329
4.23806
4.5341
4.58574
4.51831
27.2048
8.56136
17.937
71.5233
18.5229
6.86613
23.7596
98.9813
96.5193
100.295
95.864
96.3721
96.8713
98.6318
99.4805
99.0945
98.6007
99.5379
98.1044
99.0492
99.0494
97.1528
98.5731
98.5665
97.5688
99.9661
98.8274
101.073
8.49205
8.40534
8.85543
8.0497
8.30252
8.55459
9.45287
8.25302
14.4839
13.9487
13.3446
16.9599
19.2452
13.8575
12.9417
27.3901
20.8754
20.3788
8.61544
-0.799663
5.21562
-1.83095
-2.46536
-1.38882
-1.92245
-2.44376
-1.89758
-1.64225
-2.33345
-2.33843
-2.36793
-2.38392
-2.40265
-2.36054
-2.34586
-1.71297
-1.82387
-1.89514
-1.74684
-1.81853
-1.74508
-1.8736
-0.696141
-0.698391
-0.659172
-0.680276
-0.736366
-0.721935
-0.67469
0.0114595
0.00676205
0.023836
0.0553219
0.0798645
0.0631522
0.0419486
0.0426964
0.0361634
0.0434617
0.0524157
0.0526488
0.042636
0.0416461
0.105799
0.116938
0.119604
0.112676
0.126625
0.108631
0.122252
0.1065
0.0752575
0.0926452
0.113623
0.100532
0.0867307
0.142245
0.0427949
0.0624162
0.0490808
0.0512482
0.0779954
0.127059
0.0682028
0.00491168
0.0135442
0.00231165
0.00262614
0.00672519
0.00642178
0.00995481
0.0131035
0.00704037
-0.00847835
-0.00769429
0.00772455
0.00154149
0.0220712
0.00400793
0.00807119
0.0170053
0.0180562
0.00609232
0.0194834
0.0105474
0.0071245
0.00130829
-0.000165228
0.00507385
2865.59
2855.19
2862.43
2867.12
2858.42
2844.98
2796.69
2844.67
2868.51
1.62587
1.81894
3.02376
91.2686
30.2982
0.92864
0.438346
4.40654
-0.179014
-0.0778409
0.0394169
0.909981
2825.37
2880.98
2851.64
2820.62
2819.9
2821.53
2824.52
2819.97
2809.89
2822.14
2800.96
2804.85
2811.53
2815.2
2817.84
2821.11
2851.79
2820.44
2830.09
2803.68
2818.47
2819.78
2818.89
2820.14
2821.23
2823.83
2820.09
2821.97
2819.39
2815.29
2811.29
2806.25
2800.14
2791.4
2817.32
2825.55
2814.68
2844
2810.49
2786.71
2813.67
1572.76
659.632
2833.3
2887.78
2865.73
2677.92
2700.77
0.000770688
0.00290705
0.000775549
0.00275917
0.000240556
-0.00154487
-0.00742934
-0.00789407
-0.000150442
91.5086
94.7243
95.7754
95.9444
95.2929
94.2309
97.4689
98.0572
95.6966
96.148
96.2475
96.6176
92.3498
94.91
84.5508
-0.00179272
0.00495713
-0.00209494
-6.88131e-05
-0.000355989
0.000172606
-1.87082
-1.79013
-1.78071
-3.60586
-3.75223
-3.54289
-2.10249
-2.23384
-2.42566
-2.16716
-1.72942
-1.68878
-1.69991
-0.14619
-0.152767
-0.138933
-3.31592
-3.2524
-3.45917
4.17456
6.91328
4.79352
-1.80685
-1.86444
-1.73323
-1.81099
0.0504478
0.0523749
0.0464628
-0.139089
-0.1402
-0.154175
-0.155335
-7.76114
-9.87661
-9.63518
-8.34785
-2.95873
-2.95409
-3.34944
-3.01714
13.1214
14.2342
7.19438
6.3433
5.81318
3.83026
4.62114
8.16352
12.1754
11.8803
-3.39169
-3.32169
-3.56041
-3.62816
-9.29585
-9.30378
-1.88205
-7.03484
5.99914
5.15048
0.138043
18.2511
7.31401
0.0654122
-1.71049
-1.17233
-0.0312743
-0.9309
-0.260508
0.305286
-2.15414
-1.82928
-1.73518
-2.04822
-1.5367
-1.73832
-1.91117
-1.35705
-0.201088
-0.210907
-0.193487
-0.203864
14.4168
9.87155
18.9476
9.53212
0.00440832
0.00491913
0.00198934
0.00500063
0.0073793
0.0119894
0.0131558
93.5524
153.649
58.7453
81.1038
-4.54275
-3.35959
-5.65843
-4.52729
0.0118023
0.0128735
0.0129477
4.60238
4.64568
4.06515
3.82604
-0.930743
-2.80069
463.251
364.614
335.06
467.054
0.215649
0.139489
0.000504571
0.000843997
0.00119471
0.00136079
3039.42
2639.51
2213.93
1919.44
0.0447019
0.0564014
0.0504206
0.0566597
11.8421
16.3719
18.4768
44.0117
3.41925
3.43267
3.51834
3.57837
-0.0103519
0.00450908
-0.0287605
-0.0141461
-0.225272
-0.223817
1.06111
2.95796
6.90047
6.16122
0.884903
-2.42108
-0.354932
-2.17729
1.46369
1.94275
10.4528
14.2206
3.62781
3.47213
2853.76
2860.87
0.0150469
0.0105984
0.0196381
0.0152403
-13.7208
-14.0498
-10.664
-11.7943
-14.2737
-14.0801
-12.3597
-11.8349
-0.27212
-0.282244
-0.0114376
-0.0101048
-0.0123279
-0.0102244
1.06798
1.80561
1.05585
-1.89566
0.00911048
0.0158039
0.0333098
0.0420818
-0.918524
-1.37642
0.316346
0.338644
0.323956
0.351947
56.7571
69.7973
93.8428
80.0974
84.1512
95.1494
98.063
4.06829
4.13126
4.07267
4.14977
4.51306
4.55544
4.5057
869.677
654.094
485.235
321.413
652.474
619.854
-0.0219698
0.00481766
0.61901
0.615157
0.574081
0.540282
0.526617
0.54786
0.0212289
0.00456625
0.0226863
-0.00300575
-0.00167161
-0.00131487
0.0196694
0.0190274
-1.95418
-2.06012
-1.86693
-2.03061
-1.65475
-1.2944
-1.14043
-1.09596
6.31665
11.4138
4.32285
10.9052
-2.05411
-2.01367
-2.15345
-2.10453
0.77077
0.437427
3.63895
3.60315
0.426911
0.758302
2.44149
3.29312
-0.283684
-0.273993
955.687
880.44
-12.2581
-10.5115
-10.3262
-8.75308
863.801
960.959
10.4136
13.2271
2237.24
2717.94
0.010209
-1.11802
-0.42756
-1.32899
9.26299
5.3996
5.75469
3.68144
-0.875888
-0.136328
-0.142538
-0.134471
-0.156546
-0.146398
-0.203646
-0.200026
2851.29
2853.18
2862.21
2848.97
0.00489935
0.0105552
0.000969059
0.0122025
116.969
64.5479
292.893
121.129
-1.8991
0.642311
-1.5279
-1.23319
1.86028
1.84263
-9.02457
-10.42
-0.563432
-0.671611
0.0536737
-0.208597
13.6085
10.956
9.34177
10.0875
-0.0432518
-0.0365613
-0.0518306
-0.043651
0.0344177
0.0359835
72.0433
21.6149
0.00331075
0.00410994
5.21766
5.2734
2824.56
1168.31
358.765
1492.55
518.511
0.10936
0.110814
0.0853104
0.094723
0.128879
0.124249
-4.06146
-4.14509
-0.129541
-0.129917
-2.60208
-2.57192
-2.40908
-2.40722
-5.83152
-5.45779
4.85691
4.89154
4.72111
4.98282
2280.32
2370.06
2662
-0.160161
-0.165799
-0.148359
-0.159672
0.575422
0.567868
0.611727
0.592435
-0.0429928
-0.0435622
-0.0494469
-0.0551322
-2.6112
-2.29373
0.251235
0.223391
0.299878
0.222239
-2.6769
-2.61221
-2.78479
-2.74499
-0.159459
-0.163088
-0.238362
-0.228798
-0.511517
-0.491098
-0.47361
-0.454036
12.1579
10.3413
-0.327229
-0.340305
-0.0357278
-0.0355738
-0.0459013
-0.0422918
-0.046893
-0.0521226
85.8796
53.5071
416.147
407.526
-0.166307
-0.190371
-0.143554
-0.479536
-0.0131294
-0.0139991
-0.00933134
-0.00996795
-0.043159
-0.0428919
-0.0548561
-0.0495172
-2.15279
-2.20121
0.0673054
0.0626076
-2.50488
-2.30181
-2.8755
-2.69062
-2.38294
-2.52245
-2.689
-2.87029
-4.23209
-4.79772
-5.31053
-4.98801
-5.52775
-5.9942
-6.44145
-6.80834
0.00125454
-2.55837
-2.56718
4.52694
4.36857
4.46637
4.36471
0.0263286
0.02833
0.0374645
0.0387116
51.1546
72.048
401.789
403.226
4.85085
4.9074
4.69486
4.70334
4.4978
4.54273
4.36661
4.52918
8.39532
9.04277
9.90226
10.7147
0.03784
0.0344126
-0.935308
-0.963656
480.828
441.839
1.01483
1.09567
1.01824
1.06489
-0.044396
-0.0185021
-0.0351421
-0.0187782
1997.6
2079.05
2091.02
2133.44
2838.79
2862.74
6.95561
6.43839
116.747
145.771
1252.69
1727.87
0.62594
0.638972
-0.0296744
-0.0252413
4.69796
4.77583
-3.94135
-4.14726
-3.57564
-3.59542
2875.08
2881.49
-3.99268
-3.94817
-3.23949
-3.43129
-1.51484
-1.54442
0.0646463
0.0763425
4.45644
4.49229
4.62413
0.00519126
0.00357873
0.437473
0.427129
2.56398
3.23431
3.39427
3.74587
0.129515
0.229076
-1.29136
-1.33573
-1.25958
-1.36729
-0.262744
-0.286716
-0.272461
-0.305478
-0.0187486
-0.0193972
-0.283103
-0.257234
-0.309978
-0.292394
0.000845357
0.00114406
0.00115495
0.000874018
-0.373763
-0.631387
-0.639647
-0.90493
-10.0432
-9.7794
-1.61329
-1.55491
-1.67809
-1.5995
-0.0749155
-0.0671197
20.4887
18.864
25.2298
22.8633
-1.54362
-1.2368
6.1668
6.75863
8.37441
11.091
7.22819
5.79974
10.705
8.37847
-3.4619
-3.53327
-0.323847
-0.340941
66.5916
89.7169
101.3
125.263
-0.884734
-0.82038
-0.940882
-0.782148
-1.72662
-1.40193
0.0497487
0.0192618
6.01563
7.06742
5.40612
6.61319
-0.725963
-0.499152
2198
1693.18
2274.44
1253.1
-10.635
-10.2744
-10.0611
-9.06274
-1.96848
-1.99344
1.8278
1.84069
1.78221
1.96515
-0.26523
-0.278492
-0.254889
-0.270682
-7.4553
-7.31728
-5.67567
-7.21718
0.014951
0.0141124
-0.0982544
-0.0922023
4.58295
4.49767
4.39291
4.36271
-0.0982787
-0.0922167
1.31836
1.28557
1.43307
1.38756
-1.81755
-1.91793
2.81077
1.65816
1198.83
1314.12
1267.77
1282.21
-0.153046
-0.179675
2859.73
2856.53
2853.02
2862.39
-0.208574
4.35337
4.38296
4.37647
0.498042
0.592777
-0.05894
-0.0841747
-0.0614815
-0.0773637
3.78328
3.81702
3.7768
3.81722
1.34009
1.32206
1.43501
1.44933
1.70661
1.66493
-0.0710024
-0.078526
-0.00451432
0.0771393
4.32519
3.82529
4.5485
4.28396
4.022
4.53023
5.39899
5.09382
-0.0709647
-0.0785092
-0.0518598
-0.047794
4.36402
6.01178
0.0521824
0.0649866
0.048468
-1.38512
-1.27209
-2.93402
-2.97282
-3.037
-3.24187
-3.53418
-4.86648
-3.31106
-3.5171
-3.39846
-3.5801
75.3133
144.55
58.048
124.023
2773.4
2785.43
-1.36734
-1.04632
-2.38146
-2.3288
2.78196
0.495205
0.954652
0.798173
99.2649
42.4927
-0.0246862
0.00577996
12.9965
20.7726
0.808992
-0.0355181
-0.474442
-0.556297
-0.585685
-0.509563
-0.619436
-0.583203
15.7349
21.2394
-1.46387
-1.2491
0.210738
0.353881
0.212056
0.295652
2844.83
2840.85
13.7361
7.20551
39.5042
19.7102
-0.0240253
0.00449562
0.0504594
0.0461711
-12.0257
-10.7738
-9.90513
-9.59461
0.299165
0.346008
1.26305
1.21273
0.968903
0.841816
-0.0951271
-0.0848195
493.843
1.81033
1.9685
484.621
16.1165
10.4683
-1.67776
-1.60291
-1.7309
-1.54145
0.0137827
0.0190698
-0.0404349
-0.0439336
-0.0433806
-0.0478813
0.0505275
0.0462722
-0.0584009
-0.0646339
2800.58
14.4092
10.2016
17.5957
8.58834
4.84313
-0.128153
-0.166352
0.63651
0.611295
0.0131588
0.0157536
-0.179362
-0.191487
-0.209923
0.0129521
0.0156405
8.12741
2.5087
-0.0254971
-0.0273219
-2.3652
-2.46918
3.40763
3.44406
1.11618
1.04848
1.07851
1.06884
-0.0702286
-0.0640163
49.1132
14.2531
1.94263
1.54813
-1.88751
-1.89192
-0.676726
-1.04142
-0.551231
-1.3554
-1.64031
-1.601
-2.78821
-3.14177
-0.531876
-0.50981
-4.36445
-4.25102
0.0591579
0.056173
0.0591575
0.0564586
72.453
306.227
-0.0121444
-0.00335839
44.8882
24.9942
-0.626684
-0.646845
0.0074802
0.00667101
-0.021516
0.00835978
55.7731
323.034
-1.45126
-1.36122
11.5071
6.50989
1.79317
1.77629
-8.89967
-7.82215
-11.0914
-9.96002
-8.98256
-8.44727
2.57609
2.6681
2.63294