/*--------------------------------*- C++ -*----------------------------------*\
| =========                 |                                                 |
| \\      /  F ield         | OpenFOAM: The Open Source CFD Toolbox           |
|  \\    /   O peration     | Version:  v2012                                 |
|   \\  /    A nd           | Website:  www.openfoam.com                      |
|    \\/     M anipulation  |                                                 |
\*---------------------------------------------------------------------------*/
FoamFile
{
    version     2.0;
    format      ascii;
    class       volVectorField;
    location    "0.2";
    object      U;
}
// * * * * * * * * * * * * * * * * * * * * * * * * * * * * * * * * * * * * * //

dimensions      [0 1 -1 0 0 0 0];


internalField   nonuniform List<vector> 
24700
(
(0.018292 -1.74825 0.0181593)
(-0.00745192 -1.69532 0.010198)
(-0.00540309 -1.64241 0.00122257)
(0.0730779 -1.44593 -0.0172282)
(0.0322389 -1.55933 -0.0383139)
(0.0802384 -1.51215 -0.0564933)
(0.0576395 -1.56314 -0.0485181)
(-0.0105241 -1.48988 0.00462162)
(0.0810491 -0.899198 -0.0186631)
(0.0257705 -1.39668 -0.0229796)
(-0.00252182 -1.46786 -0.0214622)
(-0.00364601 -1.49886 0.00432122)
(1.65786e-05 -1.4851 -0.0207651)
(0.00415826 -1.47113 -0.0190314)
(0.00575862 -1.48443 0.00340928)
(-0.00170209 -1.49516 0.000516562)
(-0.00223564 -1.4895 -0.0164029)
(-0.0043832 -1.57135 0.0181065)
(0.0328532 -1.54405 0.0210525)
(0.00206964 -1.67456 0.0967345)
(0.0434097 -1.45219 0.00374168)
(0.00878492 -1.49754 -0.000840996)
(0.0251324 -1.44554 0.00927766)
(0.00381763 -1.57614 0.0542366)
(0.0519268 -1.43804 -0.00229271)
(0.00750688 -1.51474 -0.0058355)
(0.0482286 -1.20757 -0.00230259)
(-0.010218 -1.49921 0.011015)
(-0.025306 -1.50287 -0.0311634)
(-0.00346649 0.454795 -0.00314456)
(0.00140715 0.466944 0.0255188)
(0.00280962 0.459922 0.00375743)
(-0.00501363 0.46066 0.000731)
(-0.0106541 0.48022 0.0216106)
(-0.00516815 0.463354 -0.0047573)
(-0.00606526 0.474715 0.00597309)
(-0.00711756 0.222307 -0.0122875)
(-0.0291183 0.240932 -0.00840918)
(0.000216412 0.260273 0.0346834)
(0.00902747 0.264913 0.035746)
(0.0342653 0.263538 0.0272053)
(-0.0101493 0.250843 0.0149221)
(0.0244189 0.237632 0.0127486)
(0.00897422 -0.467556 0.171718)
(0.00475877 -0.582827 0.155961)
(0.0226983 -0.681823 0.130618)
(0.0273845 -0.360866 0.116605)
(0.00040043 -0.404732 0.193271)
(0.0202084 -0.493798 0.140759)
(0.0176677 -0.605304 0.0748156)
(-0.165028 -1.06085 1.46553)
(0.0467091 -1.07036 1.42545)
(-0.0199043 -0.758596 1.37199)
(-0.00224408 -1.2642 0.962009)
(0.0579932 -0.797868 0.918446)
(-0.18889 -1.27006 1.1559)
(0.0551198 -0.791318 0.94655)
(0.144757 -2.19893 0.314071)
(0.179567 -2.63058 1.83972)
(0.899162 -2.09094 -0.778167)
(0.25693 -1.78486 -0.679438)
(-0.645957 -1.53386 -0.241729)
(0.642165 -1.85249 -0.688046)
(-0.5918 -1.64568 -0.732417)
(0.00126454 0.267248 -0.243828)
(-0.000958211 0.288433 -0.229891)
(0.0049792 0.276325 -0.223896)
(-0.00180847 0.262046 -0.237251)
(-0.0109068 0.276082 -0.241111)
(-0.00627923 0.28723 -0.239756)
(0.00144257 0.266335 -0.222349)
(-0.0114489 -7.48209e-05 -0.0887338)
(-0.00077397 -0.0087384 -0.114956)
(0.00566362 0.0528005 -0.128383)
(-0.00573721 0.00277271 -0.164056)
(-0.00293903 0.0532142 -0.172764)
(-0.000161225 0.0648968 -0.174977)
(-0.0199877 0.0114281 -0.159169)
(0.0113784 -1.47947 -0.0931976)
(-0.0268858 -1.14985 -0.00708122)
(-0.00706251 -1.51943 -0.0809643)
(-0.0623232 -1.59965 -0.0498618)
(0.0613151 -1.27773 -0.102959)
(-0.0101552 -1.53858 -0.119036)
(-0.0251489 -1.55678 -0.100807)
(0.0191948 -0.253768 -0.179894)
(-0.128125 -0.0752659 -0.154289)
(-0.00704395 -0.00366101 -0.115459)
(0.0799057 -0.174601 -0.143013)
(0.0196462 -0.247274 -0.154017)
(-0.0482589 -0.0809621 -0.163405)
(0.0971805 -0.0222302 -0.0677207)
(-0.00317614 0.236871 -0.130788)
(-0.00207544 0.244074 -0.127922)
(-0.000139159 0.2278 -0.134586)
(0.00348011 0.242889 -0.117423)
(0.00450519 0.235748 -0.121128)
(0.000728857 0.246386 -0.121072)
(0.00146141 0.241575 -0.123542)
(0.000248154 0.327249 -0.124722)
(-0.000388453 0.323986 -0.124223)
(-0.000609208 0.324835 -0.128872)
(0.00111352 0.330329 -0.129033)
(0.00057683 0.329663 -0.121326)
(0.000208518 0.325032 -0.123391)
(6.38749e-05 0.326592 -0.130979)
(-0.00487878 0.474721 -0.154301)
(0.00521024 0.468889 -0.145808)
(-8.09622e-05 0.465154 -0.166313)
(0.000684053 0.455549 -0.154352)
(-0.00745849 0.462033 -0.160182)
(0.00624787 0.459574 -0.142071)
(-0.00683667 0.471877 -0.15776)
(0.0184268 0.229161 0.016528)
(0.00417195 0.289306 0.0199424)
(-0.00298694 0.311463 0.0181474)
(0.000659384 0.288161 -0.00651915)
(-0.00278333 0.263705 -0.00869365)
(-0.00160598 0.237593 -0.0156794)
(0.00513875 0.28356 -0.0162335)
(-0.0013081 0.123782 -0.00150337)
(-0.00336532 0.261546 -0.0154934)
(0.000422824 0.251644 0.0111022)
(-0.00217691 0.313293 0.000437699)
(-0.000402187 0.311642 0.00049464)
(0.000110477 0.310039 0.00276908)
(0.00131496 0.313769 -0.000719)
(-0.000591452 0.31458 -0.000490229)
(0.000598146 0.313747 -0.00186315)
(-0.00221586 0.315499 -0.00103797)
(0.000337612 0.304692 0.00088591)
(-4.99116e-05 0.308792 -0.00233667)
(-0.000373893 0.308453 0.000277404)
(-0.000586944 0.313367 0.00160825)
(-0.00316509 0.313224 -0.00121837)
(0.000196899 0.297101 -0.0114899)
(5.06774e-05 0.29461 -0.0130744)
(-0.000756111 0.296595 -0.0113208)
(-0.000180767 0.295729 -0.0139526)
(1.85105e-05 0.297046 -0.0146291)
(0.000444036 0.298446 -0.0132011)
(-0.000191286 0.296732 -0.0125091)
(0.000100341 0.248401 -0.125235)
(-0.00343814 0.255776 -0.115213)
(-0.00530567 0.260674 -0.111653)
(0.000370442 0.25842 -0.11682)
(0.00436636 0.254326 -0.118633)
(-0.00102826 0.258166 -0.114152)
(-0.0038889 0.26069 -0.114283)
(-0.00820454 -0.71994 0.105467)
(-0.000970161 -0.622171 0.143809)
(-0.0131351 -0.514676 0.20258)
(0.000698537 -0.397947 0.188042)
(-0.0327559 -0.380803 0.11292)
(-0.0239739 -0.493515 0.111872)
(-0.02825 -0.612011 0.0581279)
(0.0682173 1.05874 -0.746521)
(-0.0240233 1.60101 -0.91698)
(-0.0109203 1.6171 -0.687889)
(0.010642 1.53529 -0.867382)
(-0.0350801 1.6861 -0.907055)
(0.0172157 1.61035 -0.941124)
(0.0385792 1.14537 -0.796176)
(-0.00856353 2.72426 -1.55075)
(0.0102871 2.71095 -1.54418)
(-0.00477946 2.65962 -1.66759)
(-0.0282612 2.61366 -1.75199)
(-0.00740975 2.67603 -1.63665)
(-0.018487 2.64833 -1.62985)
(-0.0554871 2.60812 -1.75065)
(-0.00565668 1.88333 -1.59016)
(0.0169392 2.07056 -1.8753)
(0.0925405 1.8984 -1.61592)
(0.0740279 1.88718 -1.47714)
(0.022427 2.07775 -1.7659)
(0.0657902 2.19468 -1.92632)
(0.153165 1.84916 -1.55666)
(0.020834 0.104827 -0.596623)
(0.0230472 0.044045 -0.62971)
(0.002455 0.14437 -0.54808)
(-0.0301115 -0.00364056 -0.497185)
(0.00315339 0.0651588 -0.488721)
(0.0136054 0.0140582 -0.580916)
(0.0323795 0.0698692 -0.559498)
(0.0417747 0.483111 -0.629435)
(0.0318348 0.509022 -0.618498)
(-0.0224285 0.552601 -0.693239)
(-0.0397297 0.685173 -0.590824)
(0.00181988 0.570975 -0.755258)
(-0.00656005 0.546109 -0.563253)
(-0.0130899 0.457011 -0.62738)
(0.00836475 -1.34629 0.141447)
(0.0291249 -1.35175 0.147774)
(0.00237472 -1.2481 0.140411)
(0.0153625 -1.47248 0.0592922)
(-0.00286336 -1.35923 0.0596721)
(0.0176539 -1.38819 0.111446)
(0.0235342 -1.36913 0.103221)
(-0.015195 -0.787056 0.0801975)
(-0.0168087 -0.871877 0.129481)
(-0.00596235 -0.78814 0.114544)
(0.0181446 -0.888693 0.0600033)
(0.0424061 -0.94544 0.029407)
(0.0173222 -0.856305 0.0483917)
(0.00755145 -0.811128 0.0729046)
(0.00193849 -1.98695 -0.00614344)
(-0.00671149 -1.98334 0.0247579)
(0.00590712 -1.99322 -0.0330726)
(0.00588646 -1.97074 0.00639015)
(0.00074851 -1.94452 -0.0313708)
(0.00383889 -1.96518 -0.0345243)
(0.00490806 -1.96613 -0.00669922)
(0.0025839 -0.267589 0.120757)
(0.00246825 -0.225171 -0.0113342)
(0.0341353 -0.272399 -0.00886306)
(-0.0281419 -0.270012 0.0955537)
(-0.0272564 -0.19305 0.0587741)
(-0.0411174 -0.211618 0.00405603)
(-0.0319961 -0.249982 0.00591322)
(0.0220665 -0.554789 0.971902)
(-0.018775 -0.622834 1.03279)
(-0.00950362 -0.70069 1.00349)
(0.00316295 -0.39548 1.09192)
(0.0255122 -0.0694592 1.03781)
(0.0329226 -0.501024 1.05335)
(0.0814334 -0.174287 1.00055)
(0.00264745 1.4697 1.43676)
(0.129201 1.39631 0.966052)
(-0.0242945 1.62208 1.10235)
(0.0227266 1.86497 0.0160498)
(-0.0204337 1.89036 0.561788)
(0.00872755 1.60289 0.393272)
(0.0269535 1.6744 0.788153)
(0.00693237 2.6109 -1.51054)
(0.0527773 2.81869 -1.37151)
(0.0477585 2.72877 -1.48768)
(-0.0544927 2.64914 -1.45822)
(-0.0868916 2.74519 -1.30723)
(-0.0242846 2.79465 -1.25956)
(-0.00171898 2.71189 -1.42739)
(-0.00989426 0.526669 -0.140638)
(0.0503189 0.462645 -0.239909)
(-0.057528 0.309069 -0.158063)
(-0.0368493 0.271874 -0.0948143)
(0.0505443 0.422033 -0.189243)
(0.0613935 0.427307 -0.274434)
(-0.0337463 0.205716 -0.131723)
(0.0475533 -0.33908 0.0250544)
(-0.114619 -0.26462 -0.0199723)
(0.18453 -0.234828 0.0472403)
(0.0272834 -0.251639 -0.0367949)
(0.0338848 -0.180236 -0.0298024)
(0.082065 -0.109572 0.0328466)
(-0.0028928 -0.0123812 0.0391183)
(0.0186936 0.01073 0.0564888)
(-0.0616332 -0.0493367 0.112816)
(0.0165072 0.0797856 0.0167052)
(-0.0305022 0.0617328 -0.0140403)
(-0.00556211 0.0961088 0.0243919)
(-0.060655 -0.0805537 -0.134877)
(-0.00498683 -0.0884419 0.0402518)
(-0.0638038 0.361167 0.333196)
(-0.0870464 0.276676 0.371494)
(0.148956 0.285344 0.514656)
(0.353062 -0.253567 0.209547)
(-0.0517219 -0.0258506 -0.112852)
(-0.00108618 -0.0608568 -0.187698)
(0.0882102 -0.0342979 -0.262453)
(-0.0702778 0.239717 0.100732)
(-0.0199284 0.129026 -0.14647)
(0.128033 -0.111853 -0.0515775)
(-0.00619213 -0.0151683 -0.233152)
(0.0378757 -0.0405123 -0.222706)
(-0.0200775 -0.223345 -0.286498)
(-0.0238497 -0.0281516 -0.395816)
(0.117748 -0.227655 -0.257492)
(-0.0249013 -0.102569 -0.251381)
(0.0347806 -0.112635 -0.297474)
(0.122166 -0.256437 -0.219365)
(-0.00537425 -0.206413 -0.246625)
(-0.0125659 -0.0304159 0.116815)
(-0.0974866 -0.212597 0.15769)
(-0.0643486 -0.289018 0.0402769)
(0.0872198 -0.14254 -0.0921728)
(0.0483562 -0.122526 0.0890283)
(-0.150212 -0.260087 0.322221)
(-0.130433 -0.305093 0.211701)
(0.0307265 0.598198 -1.98526)
(0.0429229 0.583827 -2.38181)
(-0.0340224 0.556468 -2.49589)
(-0.0753078 0.560498 -2.41711)
(-0.0252093 0.594794 -2.51045)
(-0.0379629 0.562888 -2.41364)
(-0.113867 0.538081 -2.26495)
(-0.00618396 0.422154 -2.60604)
(-0.160301 0.459962 -2.47916)
(-0.0548319 0.444624 -2.55031)
(0.11246 0.424305 -2.5638)
(-0.0163813 0.359411 -2.50742)
(-0.189832 0.439502 -2.35333)
(-0.0393774 0.473059 -2.49353)
(-0.168017 0.433121 -3.01672)
(-0.0626277 1.73074 -2.86898)
(-0.11155 1.02835 -2.68055)
(0.0688614 1.30762 -3.96107)
(0.0447055 1.63224 -3.44343)
(-0.118272 1.00404 -3.25533)
(-0.0477161 0.726944 -3.61294)
(-0.0365762 -1.71946 0.1276)
(-0.113292 -1.41754 0.0797162)
(0.0045497 -1.71683 9.15091e-05)
(0.0675496 -2.18531 -0.0399827)
(0.0300091 -2.11255 -0.0371633)
(-0.0279979 -1.91166 -0.00262124)
(0.0492404 -2.0706 -0.0235763)
(-0.0105431 -0.324727 0.0153701)
(-0.0287099 -0.327519 0.0326677)
(-0.000511173 -0.306976 0.0349167)
(-0.012124 -0.203328 0.00456609)
(0.0179161 -0.236178 -0.0240684)
(0.0167292 -0.258683 0.0915893)
(0.0158 -0.256848 0.022759)
(0.0011523 0.434809 -0.134454)
(-0.0243159 0.395341 -0.132565)
(-0.0017204 0.443379 -0.13989)
(-0.024089 0.382661 -0.0943774)
(0.013737 0.409331 -0.118422)
(-0.050228 0.374228 -0.119023)
(-0.00853174 0.410947 -0.115362)
(-0.00259017 0.308724 -0.09818)
(-0.00237872 0.313129 -0.0961902)
(0.000110367 0.303884 -0.105313)
(0.00132623 0.312145 -0.106645)
(0.002065 0.307936 -0.104906)
(-0.000583263 0.316474 -0.101135)
(-2.23524e-06 0.312962 -0.100508)
(0.000437467 0.352479 -0.0484462)
(-0.000554495 0.350873 -0.0460294)
(-0.000298233 0.353266 -0.044525)
(-0.00139169 0.358145 -0.0535816)
(0.0025166 0.36009 -0.0538612)
(4.26367e-05 0.355253 -0.0511535)
(0.00301994 0.358085 -0.0503894)
(-0.00309046 0.345894 -0.0231947)
(0.000472187 0.339067 -0.0294049)
(-0.000788152 0.33926 -0.0268769)
(0.00111395 0.342908 -0.0317646)
(0.00152236 0.346339 -0.0302122)
(0.000711963 0.341616 -0.0289769)
(-0.00100307 0.349448 -0.026275)
(-0.000950424 0.330272 -0.0116539)
(0.000106475 0.329436 -0.0103011)
(-0.000143328 0.328829 -0.0120016)
(0.000234991 0.326968 -0.011425)
(9.2794e-05 0.3255 -0.0128662)
(0.000531887 0.328641 -0.0103533)
(-0.000154962 0.328078 -0.0119998)
(-0.000435378 0.318796 -0.0100364)
(0.000187471 0.318487 -0.0111416)
(-0.000282201 0.320547 -0.011154)
(0.000235613 0.321921 -0.0138063)
(-0.000699523 0.324497 -0.012384)
(-0.000108209 0.321333 -0.0127573)
(-0.000858158 0.322819 -0.0107038)
(0.000656924 0.314357 -0.0118691)
(-0.000256156 0.315359 -0.00954052)
(0.000412542 0.314093 -0.0105368)
(-8.04477e-05 0.317322 -0.0110797)
(-0.000684626 0.316369 -0.00954901)
(-0.00040625 0.314916 -0.0101642)
(-0.000663668 0.316352 -0.0120234)
(0.000402271 0.304067 -0.0171226)
(0.000150905 0.303633 -0.0157713)
(0.000235626 0.302166 -0.0178707)
(-0.000657335 0.303086 -0.0149328)
(-0.000625497 0.303256 -0.0150012)
(-2.05539e-05 0.303457 -0.0161691)
(-0.000367781 0.302227 -0.0164263)
(-4.27783e-05 0.293746 -0.0106453)
(-0.000126117 0.296666 -0.0115177)
(0.000341172 0.295592 -0.0100226)
(0.000290745 0.298099 -0.0128326)
(0.000291562 0.295804 -0.0111738)
(-0.000245645 0.299641 -0.0124892)
(4.32694e-05 0.296911 -0.0104024)
(0.000119436 0.270818 -0.0448212)
(0.000919963 0.271858 -0.0536693)
(0.000675758 0.271382 -0.0485873)
(-0.0009489 0.27115 -0.0428913)
(-0.000996319 0.271459 -0.0450721)
(0.000125497 0.27233 -0.0499442)
(-0.000261309 0.271463 -0.0471048)
(8.60759e-05 0.22769 -0.134901)
(0.00174243 0.24412 -0.12778)
(0.00300669 0.236886 -0.130846)
(-0.0042282 0.235616 -0.120992)
(-0.00298403 0.243045 -0.116904)
(-0.00169157 0.246184 -0.120089)
(-0.0018778 0.241565 -0.122984)
(-0.00017592 0.207399 -0.1702)
(-0.00140704 0.230962 -0.167917)
(0.00172166 0.233187 -0.17327)
(0.00510271 0.218159 -0.176274)
(-0.00127866 0.216098 -0.17362)
(-0.00123489 0.230751 -0.171945)
(0.00506046 0.234019 -0.180876)
(-0.00229045 -1.89526 0.0100036)
(-0.00113193 -1.91842 0.0136899)
(-0.00133074 -1.93838 0.0351205)
(-0.00298677 -1.8532 0.00283997)
(0.00101413 -1.85807 -0.0159678)
(0.00347458 -1.88573 0.00536924)
(0.00715488 -1.90486 0.0370613)
(0.0244598 0.968588 1.08575)
(0.0322484 0.878694 1.27222)
(0.00540517 0.903895 1.08025)
(0.014127 0.862265 1.17327)
(0.0343517 0.757029 1.29261)
(0.0605548 0.81534 1.38596)
(0.0579455 0.893581 1.22804)
(0.0487879 1.21753 1.40522)
(5.94556e-05 1.26082 1.45497)
(-0.0139176 1.14907 1.35973)
(-0.0247835 1.35174 1.243)
(0.019302 1.39028 1.3993)
(-0.0441822 1.2368 1.23242)
(0.0440413 1.33834 1.35269)
(0.068814 0.220362 -0.118111)
(0.0151383 0.236398 -0.092339)
(-0.015306 0.420628 0.00918749)
(-0.0555445 0.161467 -0.0420447)
(0.0350185 0.232473 -0.0705762)
(0.0116443 0.20885 -0.114429)
(0.0566303 0.170098 -0.127674)
(-0.0300991 0.178534 -0.0710951)
(0.0241902 0.391936 -0.199939)
(0.0897185 0.319501 -0.101435)
(-0.0713832 -0.00892623 0.105849)
(0.0421986 0.253625 -0.0952833)
(0.0152819 -0.0456618 0.041474)
(0.0532206 0.0845225 -0.0765801)
(0.087677 0.137735 -0.128946)
(-0.0597837 -0.0272585 -0.0988296)
(-0.0681109 -0.0102156 -0.0391024)
(0.0378398 0.2059 -0.103055)
(-0.00207398 0.142136 -0.0792585)
(0.023454 -0.10537 -0.279361)
(0.189761 0.226287 -0.0533087)
(-0.0162552 -0.257103 0.085284)
(-0.165009 -0.164466 -0.0147117)
(-0.0529617 0.261991 -0.103928)
(0.0824221 0.274877 -0.0167727)
(-0.0962572 -0.267126 0.094146)
(0.0653607 -0.0282277 0.00187643)
(0.0379688 -0.343767 0.0945332)
(0.197745 -0.351953 -0.0588089)
(0.094464 0.0259067 -0.193648)
(-0.0163686 0.0128493 -0.155361)
(0.0389012 0.00665759 -0.0707426)
(0.0629308 0.0817456 -0.111987)
(0.0388659 0.316155 0.0625424)
(-0.106975 0.375161 -0.105569)
(-0.0248856 0.30624 0.0328473)
(0.0247246 0.121232 -0.163884)
(0.100205 0.0173903 -0.0924901)
(-0.0022234 0.583161 -1.77961)
(0.00175813 0.738179 -1.62956)
(-0.0269287 0.672312 -1.75601)
(-0.00731193 0.689765 -1.63764)
(0.00589718 0.799145 -1.62534)
(-0.0209641 0.821508 -1.58857)
(-0.0442464 0.708122 -1.64261)
(-0.00602645 -0.75634 -0.146923)
(0.00333355 -0.811638 -0.198796)
(0.0544896 -0.860709 -0.18909)
(0.0603193 -0.886526 -0.137762)
(-0.0331065 -0.782831 -0.150737)
(0.0210641 -0.852393 -0.146669)
(0.0930597 -0.921063 -0.172954)
(0.00403442 -0.851663 -0.0854374)
(-0.00627742 -0.817249 -0.0869757)
(0.00494322 -0.813184 -0.076026)
(0.035163 -0.882747 -0.0265443)
(-0.0132212 -0.861546 -0.0216661)
(0.00690203 -0.832539 -0.0242827)
(0.042325 -0.878917 -0.0314886)
(-0.00173949 -0.246476 -0.0795089)
(-0.0151933 -0.193708 -0.0731288)
(-0.0124754 -0.150512 -0.0735786)
(0.0262522 -0.159929 -0.172546)
(0.0185654 -0.212552 -0.147026)
(-0.00158428 -0.190916 -0.136883)
(-0.0019578 -0.139484 -0.140443)
(-0.00397635 0.26327 -0.163076)
(-0.000930391 0.271385 -0.165524)
(0.00020388 0.269337 -0.167145)
(0.00352061 0.265207 -0.172896)
(-0.00362654 0.256838 -0.17089)
(0.00121646 0.266199 -0.173251)
(-0.00790847 0.251457 -0.165822)
(6.59963e-05 0.286167 -0.152864)
(-0.00198403 0.291478 -0.144156)
(-0.00204893 0.298517 -0.14187)
(0.00262893 0.29924 -0.150231)
(0.00258092 0.295724 -0.151482)
(0.00205911 0.298275 -0.148925)
(0.00218642 0.300369 -0.148208)
(-0.0017508 0.382632 -0.0567044)
(-0.00303624 0.38688 -0.0532547)
(0.000257557 0.38182 -0.0615586)
(0.00116492 0.387141 -0.0660167)
(8.43399e-05 0.383861 -0.0659971)
(-0.00143623 0.39078 -0.0594767)
(-0.000979682 0.385597 -0.0616757)
(-0.0182387 0.294201 0.00211866)
(0.00321554 0.367287 -0.0233757)
(-0.011343 0.171624 0.00637667)
(-0.0270007 0.323156 0.000565401)
(-0.0404364 0.327367 0.0227141)
(-0.0418026 0.36497 0.025092)
(-0.0196473 0.38331 -0.0117323)
(-0.000773348 0.331136 -0.0140793)
(-0.000180807 0.336706 -0.012299)
(-0.000569616 0.331985 -0.0129909)
(-0.000866168 0.33944 -0.012058)
(0.00113792 0.338283 -0.0095497)
(-0.00163771 0.335493 -0.0136509)
(-0.000258066 0.335832 -0.0106834)
(-0.000470248 0.237138 -0.0199365)
(0.00041738 0.237888 -0.0229924)
(-0.000420572 0.235174 -0.0217244)
(-0.00120894 0.232923 -0.0299272)
(-7.59605e-05 0.231674 -0.0254589)
(-0.00124561 0.234666 -0.0270027)
(-0.00137673 0.234991 -0.0227867)
(-2.09081e-05 0.220763 -0.0295078)
(0.000472329 0.22065 -0.0342504)
(-0.000556087 0.218627 -0.0317629)
(-0.00255104 0.213302 -0.0413523)
(8.32545e-05 0.212759 -0.0339275)
(-0.00239682 0.215329 -0.0373678)
(-0.000764192 0.21616 -0.0303071)
(-0.00173828 0.0642121 0.063056)
(-0.0178812 0.0134561 0.101595)
(0.0178434 0.0148879 0.116227)
(0.0129616 0.0632296 0.0979891)
(-0.0182965 0.0369427 0.0950888)
(-0.0234675 0.0126974 0.104344)
(0.0085283 0.0408068 0.108261)
(-0.0478121 1.56112 0.938326)
(-0.0121744 1.50795 1.07892)
(0.0174643 1.69436 1.03666)
(0.0120921 1.4411 1.08668)
(0.0684952 1.50708 1.13089)
(-0.0254153 1.50203 0.981305)
(0.054978 1.61388 1.10871)
(0.0168284 1.71792 0.591055)
(0.0337113 1.72366 0.511049)
(0.00736492 1.63488 0.623334)
(-0.00709098 1.5803 0.533043)
(-0.00742101 1.59951 0.588001)
(0.0254834 1.68788 0.507557)
(0.0222382 1.68041 0.576305)
(0.0080255 1.37224 0.561902)
(0.00290275 1.41306 0.569993)
(-0.00442424 1.42385 0.577132)
(-0.00990027 1.27905 0.523892)
(0.00296702 1.36837 0.505952)
(0.00436288 1.39204 0.51493)
(-0.00215829 1.29157 0.510184)
(0.0595352 0.239976 -0.0591411)
(0.00341794 0.570694 0.0845031)
(-0.0237969 0.356797 -0.0318524)
(0.0321508 0.484203 0.0191842)
(-0.0318 0.578798 0.0338832)
(-0.038368 0.398741 -0.0900237)
(0.098873 0.322642 -0.0714406)
(0.0443357 0.583942 0.0767243)
(0.110926 0.598852 0.0511641)
(0.0119982 0.502635 0.143003)
(-0.132973 0.340557 -0.0434354)
(0.0403577 0.35283 -0.0484001)
(0.104458 0.532442 0.0181342)
(-0.00351096 0.478087 -0.00645624)
(0.0223683 -0.356969 0.00659057)
(-0.00247304 0.0683375 0.13322)
(-0.0887596 0.0280549 0.122769)
(0.03884 -0.0884762 -0.0411442)
(0.0668145 -0.223302 0.0736958)
(0.0738015 -0.03604 0.0918201)
(-0.156111 0.1506 0.0110758)
(0.031521 0.246295 -0.154807)
(0.0385883 0.0335837 -0.0889926)
(0.0472034 0.00316712 -0.113843)
(-0.0454808 0.0886771 -0.3902)
(-0.0376942 0.0584868 -0.229219)
(-0.0297804 -0.0153822 0.0288127)
(0.0352777 0.0437148 -0.149999)
(-0.0131872 1.20827 -0.943047)
(-0.00984543 1.03384 -0.82716)
(0.0116027 1.13376 -0.877126)
(0.0112625 1.11708 -0.990832)
(-0.0106193 1.09929 -0.971964)
(0.00573274 1.14463 -0.981753)
(0.0425089 1.16966 -0.992371)
(0.00768034 -1.96128 0.0529457)
(-0.0202665 -2.12395 0.0345068)
(-0.00738666 -2.13871 -0.063083)
(-0.0183617 -2.34684 0.0117808)
(-0.0257573 -2.33066 0.00667239)
(-0.0160812 -2.27044 0.018321)
(-0.00789903 -2.20085 0.0334651)
(0.00297558 -2.46444 -0.0338499)
(-0.0015138 -2.47214 -0.0348369)
(-0.000458562 -2.45956 -0.0213102)
(0.000324103 -2.47654 -0.0295987)
(-0.000873429 -2.4775 -0.0234506)
(6.35037e-05 -2.46613 -0.0341937)
(-0.00380079 -2.46639 -0.0265739)
(-0.0212907 -0.850223 -0.45589)
(-0.0117042 -0.775558 -0.509786)
(-0.000818658 -0.907909 -0.392702)
(0.0234829 -0.75886 -0.545602)
(0.0157683 -0.857983 -0.487292)
(-0.00908204 -0.763264 -0.578616)
(-0.0165075 -0.82535 -0.525915)
(-0.0109879 0.267919 -0.267571)
(0.00281369 0.272042 -0.259986)
(-0.00114861 0.26523 -0.267054)
(-0.00495319 0.271353 -0.241445)
(0.00133614 0.268926 -0.244573)
(-0.00263021 0.271154 -0.242218)
(-0.0147344 0.262836 -0.246752)
(-0.00331552 0.344394 -0.155614)
(-0.000780924 0.352086 -0.152989)
(5.13759e-05 0.338084 -0.16026)
(0.00260346 0.349638 -0.163591)
(0.00172908 0.34102 -0.161192)
(0.00143468 0.355485 -0.160552)
(-0.00118067 0.34841 -0.161825)
(-0.00406052 0.223375 0.000413821)
(-0.00705737 0.389041 -0.0091625)
(-0.025197 0.380841 0.0160957)
(-0.0175983 0.372885 -0.00732214)
(-0.00254172 0.39218 -0.0306744)
(-0.0105169 0.427202 -0.0248328)
(-0.0273809 0.413765 0.00579969)
(0.00276752 0.443081 -0.0061323)
(-0.00571375 0.435194 -0.0292228)
(-0.00664705 0.430876 -0.0107772)
(0.00210859 0.409954 -0.00903535)
(-0.00329906 0.425627 -0.021426)
(-0.035395 0.168724 0.0118162)
(-0.0301213 0.302285 0.00546173)
(0.00267995 0.399108 -0.0326001)
(-0.00934846 0.348012 -0.00544928)
(-0.0204631 0.324704 0.027612)
(-0.0202083 0.36767 0.0155819)
(0.00107918 0.408442 -0.0320574)
(-0.00154758 0.400412 -0.0313088)
(-0.0352849 0.338811 0.00372028)
(-0.00328921 0.404445 -0.0341801)
(-0.00410527 0.398731 -0.0223536)
(-0.022528 0.375289 0.000946895)
(0.0152731 0.355606 0.00101479)
(0.0197314 0.384782 -0.00667232)
(-0.00388171 0.363656 -0.027481)
(-0.0061785 0.375781 0.0109896)
(0.00383288 0.328886 0.01897)
(-0.000699212 0.20163 -0.0242166)
(-0.00353867 0.195148 -0.0378721)
(-0.000223531 0.193613 -0.0277644)
(0.000222913 0.204199 -0.0223718)
(0.00116992 0.205816 -0.0283165)
(-0.0030895 0.200732 -0.0325854)
(-0.00108924 0.198158 -0.0241672)
(-0.00154823 0.0267222 -0.132765)
(0.00470449 0.068991 -0.1888)
(0.00170095 0.0550219 -0.212932)
(0.00754763 0.0540953 -0.141426)
(0.0070688 0.0296325 -0.150442)
(0.00316522 0.0619048 -0.195452)
(0.000274394 0.0470482 -0.221123)
(-0.000671845 0.127276 0.0716933)
(-0.0121561 0.117337 0.0773686)
(0.00250209 0.106164 0.0712886)
(0.0065625 0.122113 0.0784105)
(-0.00461546 0.130104 0.085719)
(-0.0149379 0.124472 0.0911737)
(-0.00203165 0.117403 0.0825537)
(-0.00172272 0.100936 0.0759949)
(-0.000361592 0.0986945 0.0816668)
(0.000361972 0.0988137 0.0720057)
(0.00422335 0.116702 0.0871764)
(0.00127886 0.112072 0.0796578)
(0.00467809 0.103205 0.0749036)
(0.00269105 0.104035 0.0861536)
(-0.0040729 0.206001 0.382744)
(0.00128125 0.191234 0.405724)
(0.0170702 0.22238 0.401983)
(0.0205018 0.167178 0.513803)
(-0.00128215 0.14328 0.483372)
(0.0328568 0.203341 0.483563)
(0.0118212 0.166386 0.465422)
(0.00079279 0.0782336 0.640725)
(-0.000478659 0.0779027 0.593854)
(-0.00569425 0.0640914 0.627353)
(0.00570562 0.0723599 0.5925)
(0.018334 0.0773801 0.581076)
(-0.00157416 0.0704198 0.620216)
(0.00159267 0.0887973 0.604664)
(-0.00225166 0.555686 -0.269472)
(0.0146011 0.443386 -0.274576)
(-0.00571872 0.372392 -0.245721)
(-0.0206663 0.456861 -0.202424)
(-0.0163781 0.483977 -0.248329)
(-0.024194 0.46918 -0.246439)
(-0.0206751 0.469543 -0.196906)
(-0.0192487 0.896149 0.152788)
(0.0431893 0.989768 0.246922)
(-0.00263831 0.907204 0.0197775)
(0.0312339 0.936139 0.0402146)
(-0.00937715 0.893285 0.00441525)
(0.0648481 0.999798 0.16087)
(0.0158458 0.913435 0.115965)
(-0.00378806 0.579933 -0.0193928)
(-0.0440909 0.562465 0.0204574)
(0.0190894 0.583603 0.00967835)
(0.0447896 0.63199 0.0428168)
(0.00724039 0.576287 0.0372938)
(-0.00940323 0.5821 0.0733094)
(0.0692213 0.685258 0.0492041)
(0.0119211 0.51871 0.00585336)
(0.00146205 0.618824 0.0314964)
(0.0483959 0.77709 -0.000453629)
(0.0500762 0.865842 -0.0149662)
(-0.00398183 0.742139 0.042198)
(0.0163632 0.378209 -0.175576)
(-0.0122278 0.490213 -0.24665)
(0.0118181 0.56909 -0.276792)
(-0.0262024 0.412405 -0.107059)
(-0.0234759 0.468068 -0.208479)
(-0.0175112 0.429324 -0.186299)
(-0.0149974 0.306016 -0.0702181)
(-0.0241546 0.346272 -0.606879)
(-0.0109132 0.314529 -0.567439)
(0.00213756 0.317629 -0.581556)
(0.0215652 0.280407 -0.621704)
(-0.00741418 0.331175 -0.66)
(-0.00393933 0.271695 -0.612644)
(-0.0219301 0.319421 -0.645064)
(0.0191028 -0.20271 -0.0544769)
(0.0333924 -0.135644 0.104851)
(0.0278586 0.0607337 0.270988)
(0.0393597 -0.29287 0.199724)
(-0.0830435 -0.170353 0.163458)
(0.00296243 -0.24589 0.197868)
(0.01655 -0.301105 0.0278539)
(-0.0209133 0.601751 -0.317304)
(0.0394394 0.672143 -0.471489)
(0.0427171 0.666405 -0.45776)
(-0.0472892 0.34426 -0.221835)
(-0.0464558 0.380193 -0.276488)
(-0.0880668 0.51707 -0.336151)
(0.00691621 0.50929 -0.376017)
(-0.0869437 0.452999 -0.278679)
(0.101496 0.422929 0.0699275)
(-0.0781851 0.600369 0.0568675)
(0.128768 -0.0267724 -0.058712)
(-0.0922284 0.340232 -0.447393)
(0.1379 -0.218073 0.248885)
(-0.0250756 0.223659 -0.222027)
(0.122458 -2.12419 0.127445)
(0.327159 -1.6026 0.375621)
(-0.0781044 -2.57292 -0.111701)
(-0.0290515 -2.20997 0.0264129)
(-0.0662062 -2.49047 -0.0391715)
(0.195354 -1.62696 0.151254)
(0.0211264 -2.15542 0.0465633)
(-0.00244082 -2.37706 -0.0989493)
(-0.00886201 -2.37552 -0.11196)
(-0.0103297 -2.37948 -0.120269)
(0.0051837 -2.33069 -0.12624)
(0.0252175 -2.27881 -0.140357)
(0.00698572 -2.32961 -0.125452)
(-0.00203832 -2.35582 -0.113541)
(-0.0329278 -0.233577 -0.784472)
(-0.0146825 -0.137397 -0.716726)
(0.0131493 -0.0824615 -0.691148)
(0.00272046 -0.0657961 -0.776215)
(0.0220213 -0.179483 -0.870038)
(0.000958847 -0.13226 -0.785134)
(-0.0110274 -0.281331 -0.900806)
(-0.00227972 -0.00431473 -0.310678)
(-0.017495 -0.0807297 -0.279524)
(0.00463402 -0.125353 -0.268472)
(0.059568 -0.119111 -0.320915)
(0.000505481 -0.0930986 -0.29409)
(0.0369554 -0.121746 -0.27009)
(0.0826076 -0.148047 -0.281731)
(0.0147775 0.291553 0.00267694)
(-0.00451064 0.494772 -0.0038509)
(-0.0245441 0.472618 0.0202605)
(-0.0118033 0.45856 -0.0177851)
(-0.00752882 0.477464 -0.050516)
(-0.0160615 0.524448 -0.0331677)
(-0.0309785 0.505315 0.00524124)
(0.003407 0.509999 -0.0113944)
(-0.00684026 0.509178 -0.0395619)
(-0.00970446 0.501962 -0.0167145)
(0.00527483 0.511557 -0.00590993)
(-0.0100126 0.515481 -0.0312855)
(-0.000246271 0.381782 -0.0612197)
(0.00297011 0.386837 -0.0527762)
(0.00169495 0.382552 -0.0563324)
(-9.98799e-05 0.383871 -0.0654367)
(-0.00120507 0.38716 -0.0655307)
(0.0012467 0.390726 -0.0588878)
(0.000864539 0.385556 -0.0610942)
(-3.93404e-05 0.324921 -0.0854904)
(-0.000127697 0.328022 -0.0866636)
(0.00146182 0.328077 -0.0812155)
(-0.000476104 0.322291 -0.0814812)
(-0.00160646 0.324376 -0.0843239)
(-0.000823819 0.326879 -0.0852979)
(0.0011656 0.323998 -0.0798078)
(0.000150541 0.288751 -0.0809227)
(0.000174811 0.295466 -0.0857516)
(0.000693215 0.292776 -0.079501)
(2.65087e-05 0.28732 -0.0807927)
(-0.00227273 0.289038 -0.0843546)
(-0.00130201 0.291529 -0.0880361)
(0.00112631 0.288782 -0.0815106)
(-7.12652e-05 0.225506 -0.000852366)
(-0.00268277 0.224446 -0.00505512)
(0.00120315 0.223781 0.000148977)
(-0.000216444 0.220264 -0.00687513)
(0.00267375 0.220666 0.000885242)
(0.000666618 0.219943 -0.00217935)
(-0.000665686 0.226918 0.016981)
(-0.00629625 0.223689 0.0222489)
(0.00142385 0.219998 0.0112719)
(-0.00321477 0.216976 0.0102819)
(-0.00179775 0.22277 0.00288234)
(-0.000527666 0.221347 0.00211215)
(0.00338834 0.213154 0.00463946)
(-0.00118112 0.226696 0.0144071)
(-0.00941505 0.227504 0.0248952)
(-0.00439531 0.220471 0.0180566)
(0.000532224 -1.65643 -0.0369022)
(0.00180378 -1.64547 -0.0203854)
(-0.00194391 -1.65806 -0.0523553)
(-0.00318003 -1.62555 -0.0343663)
(-0.000272857 -1.65177 -0.0472337)
(-0.0038702 -1.63041 -0.0279559)
(-0.00150352 -1.651 -0.0406651)
(-0.0842652 -0.115429 0.117108)
(0.0409659 -0.122599 0.111392)
(-0.00812346 -0.183033 0.0995213)
(0.0134211 0.0526423 0.0810678)
(-0.0534332 0.0366296 0.0385917)
(-0.0290306 0.0134912 0.0541234)
(-0.120613 -0.0695086 0.0206058)
(-4.3707e-05 0.112517 0.0891405)
(0.00256466 0.126385 0.0872472)
(0.00320006 0.127928 0.0859727)
(-0.0031174 0.114743 0.0744341)
(-0.00240122 0.113947 0.0741212)
(0.000597006 0.123888 0.0785438)
(0.000224274 0.121922 0.0800739)
(-3.80944e-06 0.182364 0.134824)
(-0.000161602 0.163245 0.125923)
(-0.00405224 0.172741 0.146371)
(0.0024468 0.164598 0.130237)
(0.00200984 0.168455 0.126203)
(-0.00397531 0.166145 0.14701)
(0.000628064 0.175514 0.136636)
(-0.00687409 0.232355 0.341902)
(0.00232573 0.222032 0.418748)
(-0.00151353 0.266576 0.312024)
(0.0157748 0.294323 0.40042)
(0.00316785 0.291796 0.343586)
(0.00269797 0.251206 0.42508)
(0.00554103 0.261045 0.364954)
(-6.76948e-05 0.0781198 0.754223)
(0.0219711 0.13509 0.771594)
(0.000804736 0.108791 0.74691)
(-0.0227534 0.0412446 0.79453)
(0.0164647 0.0749492 0.851829)
(0.0288242 0.111001 0.830911)
(-0.0076986 0.0670073 0.800347)
(-0.00144966 0.496498 -0.354078)
(0.0141477 0.572218 -0.281035)
(-0.00216145 0.60864 -0.169159)
(-0.0162451 0.48857 -0.17848)
(-0.0245301 0.379111 -0.237202)
(-0.00639134 0.484092 -0.282839)
(-0.0278266 0.426 -0.320996)
(-0.00260088 1.09213 -0.139114)
(-0.0157305 1.08246 -0.154958)
(0.00125337 1.04367 -0.113629)
(0.0152249 0.994732 -0.108456)
(0.0166011 0.993986 -0.0962693)
(-0.00524801 1.04163 -0.134838)
(-3.76817e-05 1.0253 -0.106652)