/*--------------------------------*- C++ -*----------------------------------*\
| =========                 |                                                 |
| \\      /  F ield         | OpenFOAM: The Open Source CFD Toolbox           |
|  \\    /   O peration     | Version:  v2012                                 |
|   \\  /    A nd           | Website:  www.openfoam.com                      |
|    \\/     M anipulation  |                                                 |
\*---------------------------------------------------------------------------*/
FoamFile
{
    version     2.0;
    format      ascii;
    class       volScalarField;
    location    "0.25";
    object      alpha.water;
}
// * * * * * * * * * * * * * * * * * * * * * * * * * * * * * * * * * * * * * //

dimensions      [0 0 0 0 0 0 0];


internalField   nonuniform List<scalar> 
24700
(
1
1
1
1
1
1
1
1
1
1
1
1
1
1
1
1
1
1
1
1
1
1
1
1
1
1
1
1
1
1.46466e-05
1.46212e-05
8.1524e-06
1.24938e-05
7.22096e-06
3.23341e-06
3.1909e-06
2.04904e-06
3.36219e-06
2.0539e-06
2.93328e-06
5.77017e-06
5.66965e-06
6.96918e-06
0.000102713
6.12409e-05
0.000116272
1.9224e-05
1.54993e-05
2.33465e-05
6.05579e-05
0.000212924
0.000333729
0.000333729
0.000215009
0.000292836
9.97717e-05
0.000184119
0.000833434
0.000825097
0.000725029
0.00328047
0.00273268
0.000901222
0.00152881
4.88602e-10
3.13277e-10
2.12023e-10
1.94186e-10
2.65508e-10
2.1862e-10
1.42196e-10
2.35424e-06
1.55605e-06
1.19104e-06
8.60673e-07
2.70643e-07
4.44961e-07
1.24567e-06
0.55012
0.0861705
0.968112
0.541977
0.0579405
0.750743
0.936745
1.31301e-06
1.31242e-06
5.67938e-07
1.23626e-06
1.31277e-06
6.27742e-07
7.39342e-07
4.07539e-12
7.29535e-12
2.13203e-12
3.42236e-12
2.08483e-12
6.21477e-12
3.41303e-12
2.4141e-09
2.41427e-09
3.00983e-09
6.8446e-09
5.7478e-09
3.90458e-09
6.06354e-09
1.01785e-05
1.01785e-05
1.01785e-05
1.01785e-05
1.01785e-05
1.01859e-05
1.42905e-05
3.30476e-17
2.23959e-17
4.19569e-17
7.16452e-17
2.37472e-16
1.19424e-16
4.67385e-17
1.63616e-17
1.33463e-17
8.45379e-18
1.20999e-18
8.45272e-19
2.1386e-18
3.75724e-18
1.14456e-17
1.71075e-18
3.92177e-18
1.33823e-17
2.44706e-18
2.79413e-18
9.98406e-19
3.26556e-18
7.41598e-15
1.76288e-15
2.43825e-15
9.62666e-16
1.32388e-15
3.3158e-15
1.7392e-15
1.46657e-11
1.1076e-11
1.53629e-11
4.3772e-11
2.83313e-11
1.60207e-11
2.54164e-11
7.95164e-05
3.95475e-05
7.00618e-05
9.73362e-06
1.2821e-05
1.795e-05
5.01823e-05
6.79447e-05
0.000175266
6.79937e-05
0.000254781
0.000104338
0.000250593
0.000145993
0.0187606
0.0184663
0.0327334
0.0627368
0.0259283
0.0233277
0.0376559
0.103723
0.115058
0.128
0.13066
0.190531
0.835983
0.124437
0.0382952
0.0718799
0.0157055
0.0263318
0.0141893
0.0320934
0.0191766
0.898948
0.760682
0.760682
0.951684
0.972821
0.962658
0.906379
2.1963e-05
2.1963e-05
2.19625e-05
2.19625e-05
2.1963e-05
2.19667e-05
2.19626e-05
1.85514e-05
1.08717e-05
1.06207e-05
2.47807e-05
6.6551e-05
4.53665e-05
2.09336e-05
0.914078
0.857952
0.976634
0.856158
0.956893
0.954174
0.952638
6.28318e-06
1.5124e-05
2.26643e-05
6.34737e-06
6.10339e-06
1.81103e-05
1.0776e-05
3.7786e-05
2.38749e-05
5.75841e-05
2.38529e-05
7.26863e-05
5.75846e-05
5.6762e-05
0.000700343
0.00116041
0.000273021
0.000160217
0.000359809
0.000404664
0.000364795
0.00152838
0.00572036
0.00266516
0.00148795
0.00276315
0.00267088
0.00169218
0.0283772
0.0283772
0.0466825
0.030833
0.0283772
0.0580479
0.0233807
0.0322984
0.0183244
0.00823205
0.0489803
0.0464987
0.016907
0.990465
0.988196
0.979238
0.990477
0.982474
0.990658
0.991433
0.981564
0.95784
0.988142
0.982581
0.984681
0.991443
0.929999
0.890812
0.890812
0.934292
0.942857
0.977794
0.977585
0.975793
0.855487
0.880874
0.930817
0.880991
0.965046
0.984022
0.538508
0.0529029
0.382075
0.285817
0.0156154
0.0151639
0.108719
0.0144123
0.045961
0.284672
0.0120909
0.153439
0.0134409
0.0122594
0.131754
0.00911684
0.0671831
0.0382923
0.0112499
0.00805378
0.0133162
0.00939477
0.0286254
0.0285976
0.0237259
0.0230192
0.0219521
0.0216968
0.000886135
0.000899473
0.00111456
0.00824195
0.00393936
0.00228042
0.00420634
0.000137907
0.000112177
0.000137907
7.98115e-05
5.12763e-05
4.3105e-05
7.3132e-05
1.59618e-08
2.02102e-08
5.51098e-08
1.89351e-08
4.24569e-08
1.11109e-08
3.79464e-08
1.20594e-10
2.22323e-10
1.06024e-10
3.13053e-10
1.65612e-10
2.61419e-10
1.45048e-10
5.49516e-09
5.04694e-09
7.32561e-09
9.69982e-09
1.92824e-08
8.01262e-09
1.32107e-08
8.4658e-10
1.81175e-09
1.04311e-09
3.04542e-09
5.62423e-09
1.84747e-09
1.85018e-09
1.4758e-12
5.55267e-13
3.73491e-13
1.96448e-13
2.51158e-13
3.51052e-13
6.12373e-13
7.8955e-15
5.90653e-15
1.26319e-14
2.19073e-14
5.69301e-14
1.20645e-14
2.21046e-14
6.81057e-16
6.60528e-16
3.40788e-16
3.21192e-15
1.07654e-15
5.92103e-16
1.8972e-15
1.98361e-14
1.45962e-14
5.90355e-14
1.0512e-14
7.4057e-15
1.21124e-14
2.58078e-14
6.09491e-16
2.72619e-15
8.61436e-16
4.24048e-16
3.11786e-16
1.11342e-15
5.81902e-16
9.52541e-16
4.35611e-15
1.77173e-15
6.10353e-16
1.1071e-15
1.67656e-15
1.05009e-15
1.05914e-11
3.30507e-11
1.93988e-11
1.02954e-11
1.5647e-11
1.99016e-11
1.22801e-11
4.15994e-11
3.56757e-11
3.66385e-11
3.48521e-11
2.11986e-11
2.41425e-11
3.41807e-11
0.984976
0.773921
0.474352
0.982702
0.985156
0.946353
0.736639
0.00059923
0.000908942
0.000459119
0.000457904
0.000486632
0.000932491
0.000459566
0.000324355
0.000372695
0.000386837
0.000710345
0.000471923
0.00062585
0.00021537
0.00671539
0.00882921
0.00487164
0.00490337
0.00543164
0.00460217
0.0103489
0.0112518
0.00620382
0.00768702
0.00602265
0.00644688
0.0123895
0.0152663
0.0233481
0.0349624
0.00558878
0.00558878
0.00931031
0.0743977
0.0682058
0.0646887
0.0750753
0.0735185
0.0165518
0.0415121
0.0366241
0.0356917
0.0643239
0.0554095
0.0112556
0.0080844
0.0123532
0.00654944
0.00819039
0.0083369
0.00790369
0.0134373
0.00359372
0.000558826
0.00196458
0.00249915
0.00111013
0.000528186
0.00112653
1.76077e-06
1.767e-06
1.88546e-06
2.72646e-06
1.767e-06
1.76479e-06
4.51799e-06
2.41516e-06
2.41516e-06
2.41637e-06
2.95256e-06
1.10853e-05
6.85944e-06
2.41557e-06
4.22688e-07
4.21506e-07
5.34775e-07
1.10426e-06
5.7256e-07
4.21506e-07
5.57859e-07
2.23496e-06
1.56316e-06
1.77192e-06
5.55023e-06
2.82362e-06
2.92093e-06
3.52089e-06
2.11172e-09
1.60975e-09
1.71389e-09
4.40302e-09
3.00498e-09
1.99149e-09
2.40508e-09
4.40476e-07
6.19148e-07
4.40311e-07
1.54817e-06
8.42057e-07
1.03812e-06
5.84855e-07
5.07743e-09
4.80246e-09
5.05754e-09
1.77875e-08
9.36693e-09
7.6273e-09
9.56673e-09
5.58649e-12
6.67864e-12
4.42682e-12
2.31683e-11
9.43554e-12
1.2277e-11
7.85165e-12
7.99988e-17
4.70001e-17
1.09582e-16
1.12603e-16
1.03359e-16
5.72349e-17
8.41861e-17
7.31467e-15
3.77888e-15
1.05851e-14
7.97768e-15
9.39034e-15
3.8632e-15
7.4977e-15
3.84861e-06
1.77122e-06
1.53717e-07
1.66483e-06
2.76875e-06
1.366e-06
1.85144e-07
0.00128584
0.00134038
0.000993112
0.00134108
0.00133782
0.00133236
0.000693373
0.000293845
0.000292608
0.000293849
0.000295307
0.000295233
0.000306605
0.000295074
0.000459839
0.00032278
0.000882326
0.000833421
0.000515537
0.000327671
0.00040301
0.00105207
0.000870607
0.000870607
0.000870607
0.00127751
0.00114662
0.00158463
0.00862631
0.00455372
0.00666525
0.0256926
0.0122639
0.00641813
0.02008
0.910276
0.871493
0.895085
0.871859
0.910276
0.727464
0.936713
0.938936
0.938936
0.938936
0.943895
0.938936
0.962226
0.984614
0.000719643
0.000249358
0.000700802
0.000718733
0.000719643
0.000305759
0.000376843
0.00165934
0.00287896
0.00171721
0.0159327
0.00951756
0.00612792
0.00291083
0.939565
0.953209
0.953322
0.941067
0.848893
0.950538
0.952663
1.5086e-05
6.45304e-06
2.63222e-05
2.39296e-05
2.38032e-05
6.29417e-06
6.40141e-06
9.03025e-06
9.03134e-06
1.587e-05
1.498e-05
1.0573e-05
6.50507e-06
9.39901e-06
2.54599e-07
4.79106e-07
2.08207e-07
3.62947e-07
2.07532e-07
3.23342e-07
1.73389e-07
2.01618e-07
2.17608e-07
2.01618e-07
2.69653e-07
4.48735e-07
7.16174e-07
3.8228e-07
2.02892e-07
6.47631e-07
3.88935e-07
4.68692e-07
1.15987e-06
1.99474e-08
1.99474e-08
3.25714e-08
4.85144e-08
3.32294e-08
2.95403e-08
6.38135e-08
4.2038e-08
3.26177e-08
6.1898e-08
1.30438e-07
2.83893e-08
3.15981e-09
4.11751e-09
3.16622e-09
7.39197e-09
4.79352e-09
6.65173e-13
4.39296e-13
1.11542e-12
6.06829e-13
2.34857e-13
2.21502e-13
9.45329e-13
7.06152e-07
1.79608e-07
5.4812e-07
2.09929e-06
6.38132e-06
6.80236e-07
2.71634e-06
3.03053e-07
2.93651e-07
5.39088e-07
6.42441e-07
5.54948e-07
2.69452e-07
2.34789e-07
5.11053e-07
5.70934e-07
5.70404e-07
7.69853e-08
5.69712e-07
5.36003e-07
1.28004e-07
6.68351e-05
6.49705e-05
8.08814e-05
0.00023448
9.86341e-05
0.000105163
7.44841e-05
0.000248475
0.000198406
0.000248329
0.000249209
0.000248812
0.000249256
0.000248883
0.00242544
0.00202933
0.00134869
0.000541043
0.00202216
0.00139964
0.000534382
0.000897225
0.000377735
0.00120696
0.000731966
0.000734347
0.000370851
0.000370851
0.00310633
0.00310633
0.00310633
0.00282338
0.00292998
0.00310623
0.00310622
0.00281893
0.00309048
0.00303733
0.00310584
0.00310612
0.0431422
0.094894
0.0445521
0.0963076
0.088749
0.296491
0.058141
0.151648
0.12676
0.119153
0.183113
0.510856
0.0870212
0.436992
0.0558311
0.060345
0.301973
0.0245798
0.0551147
0.0259682
0.0261368
0.0119486
0.0112327
0.0188859
0.0378586
0.109505
0.0256896
0.0733478
4.56584e-05
1.51414e-05
7.87538e-05
3.64626e-05
4.07077e-05
1.50117e-05
4.51397e-05
0.00241671
0.0023991
0.00241671
0.00442549
0.00879669
0.00247566
0.00495899
0.0026137
0.00518169
0.0093357
0.00499032
0.00248877
0.0024261
0.00479705
7.44154e-05
7.24471e-05
7.80341e-05
3.23689e-05
4.486e-05
1.33476e-05
3.06187e-05
0.000233302
0.000189503
0.000180025
0.000233302
0.000234298
0.00023577
0.000234298
2.9134e-05
7.72938e-05
3.18902e-05
2.85323e-05
4.4371e-05
9.42617e-05
4.68387e-05
7.7411e-05
7.06888e-05
4.5472e-05
0.000173693
0.000155792
1.22571e-07
1.77754e-07
1.23086e-07
1.50501e-07
3.34697e-07
3.96811e-07
1.76721e-07
9.18518e-10
2.63327e-09
1.16685e-09
6.74362e-10
1.05188e-09
1.78154e-09
9.24575e-10
1.0295e-12
3.98538e-12
2.04097e-12
6.37296e-13
1.14171e-12
2.41057e-12
1.14324e-12
4.26113e-12
2.9149e-12
3.89435e-11
5.31793e-12
9.76254e-11
7.14709e-11
1.10561e-09
2.9485e-09
5.66818e-10
1.72365e-09
7.67104e-10
5.6599e-10
1.11791e-09
3.32968e-09
8.22863e-09
4.88768e-09
0.981881
0.991689
0.96449
0.991577
0.960527
0.991667
0.973697
8.76364e-06
1.00119e-05
1.44153e-05
3.19541e-06
1.36569e-05
9.4331e-06
7.42883e-06
1.06656e-08
1.0498e-08
8.68498e-09
6.71083e-09
1.0418e-08
1.76616e-08
5.10469e-09
3.99408e-06
1.05421e-06
1.85103e-06
1.67778e-06
1.04379e-06
1.77914e-06
3.63216e-06
7.19368e-05
9.13442e-05
5.41127e-05
0.000113832
5.35854e-05
0.00021267
5.43655e-05
0.000715407
0.000708317
0.000971167
0.00178006
0.00147799
0.00163113
0.000975697
0.00336949
0.00336949
0.00337021
0.00336949
0.00337021
0.00336949
0.00336777
0.00718003
0.00718003
0.00718003
0.00718003
0.00718003
0.00717975
0.00708949
3.97631e-05
5.08579e-05
2.30397e-05
2.31094e-05
2.41669e-05
3.17199e-05
2.27874e-05
0.0113835
0.0371471
0.0937507
0.0204532
0.010823
0.0197558
0.0588894
0.813948
0.814196
0.814262
0.815618
0.804756
0.814162
0.814147
0.810466
0.810568
0.810356
0.810466
0.810116
0.810179
0.759038
0.813938
0.8141
0.806317
0.000130007
0.000300484
0.000783172
0.000152903
0.00010757
0.000146615
0.00039708
0.931887
0.931968
0.931885
0.931834
0.919135
0.931847
0.931827
0.197624
0.801453
0.856346
0.149688
0.0263474
0.0514859
0.171209
0.00293953
0.00594171
0.00603789
0.000979858
0.00377542
0.00308183
0.00168632
0.00274542
0.00361002
0.00208934
0.00470852
0.0132224
0.00812602
0.00223961
0.000298548
0.000248939
0.000258626
0.000431816
0.000248939
0.000622563
0.00066977
0.000248939
0.000294095
0.00026406
2.51593e-10
3.67765e-10
3.51146e-10
1.04018e-09
6.55616e-10
6.89374e-10
4.18119e-10
4.78396e-12
3.24165e-11
5.72503e-11
7.2263e-16
2.36789e-12
2.62366e-16
2.397e-12
3.87201e-12
4.07395e-12
2.04802e-39
2.5088e-28
1.37955e-28
6.1975e-13
5.89471e-13
3.00873e-11
1.95501e-11
3.0168e-12
4.77381e-12
3.28488e-28
3.60555e-09
3.06081e-08
2.16073e-06
7.25839e-07
2.49216e-07
1.00024e-06
2.91895e-07
1.35664e-06
4.70514e-06
1.66287e-08
1.95405e-07
3.45729e-09
3.37761e-09
2.68296e-09
1.08144e-09
3.26536e-09
2.93256e-09
4.75207e-09
6.03307e-05
5.81735e-05
3.66358e-05
3.65136e-05
3.66358e-05
4.22975e-05
5.98709e-05
0.00727828
0.00736798
0.00402226
0.00402926
0.00431634
0.00736871
0.00695177
3.00634e-05
1.75145e-05
3.00634e-05
2.48134e-05
1.85722e-05
8.99597e-06
1.21791e-05
0.000782006
0.00312637
0.00192941
0.000730865
0.000852254
0.000796933
0.00152841
0.0681798
0.0468033
0.0468033
0.107774
0.0653463
0.449532
0.0654946
0.391179
0.541617
0.445268
0.363265
0.0246359
0.839911
0.0251935
0.000338477
0.000227508
0.000590958
0.000340171
0.000569276
0.000228688
0.000561292
0.810635
0.682675
0.812298
0.825943
0.816225
0.82711
0.822411
0.236897
0.345641
0.827373
0.704639
0.829991
0.827456
0.768979
0.736415
9.73926e-05
0.000161138
7.88539e-05
0.000116502
8.87335e-05
0.000161294
0.000132639
0.000161496
0.000161496
0.000161496
0.000159526
0.000102139
0.000100891
0.000146499
0.000173125
0.000370342
0.000370342
0.000321028
0.000276568
9.28238e-05
0.0002821
0.000609122
0.00109569
0.000552535
0.000359112
0.000606929
0.000959543
0.000585762
0.00399011
0.00454571
0.00476331
0.000707344
0.00192143
0.00105492
0.00185182
0.00532564
0.0019421
0.00320302
0.0100961
0.0131874
0.00213618
0.00837238
0.00035842
0.000321134
0.000318501
0.000336046
0.000589073
0.000325127
0.000794497
0.000365248
0.000712972
0.000221293
0.000248061
0.000222602
0.000685237
0.00025241
0.000660894
0.000937031
0.00157654
0.00101489
0.000660894
0.00077018
0.00240327
0.00157323
0.00124594
0.00097506
0.00117359
0.000879754
0.00124694
0.000482411
0.000609787
0.00305473
0.000493768
0.000289371
0.000596305
0.00141354
0.000289111
4.40526e-06
2.47813e-06
2.44871e-06
2.41887e-06
4.54963e-06
2.57855e-06
6.46158e-06
1.40898e-05
1.8209e-05
1.4982e-05
1.76228e-05
1.42566e-05
3.01545e-05
3.01855e-05
0.000212892
0.000681828
0.000898536
0.000169594
9.45739e-05
0.000187423
0.000356057
5.82133e-13
4.28422e-08
1.29822e-07
1.19744e-08
5.70912e-14
2.70132e-08
1.39866e-08
1.11425e-08
7.56493e-20
6.56912e-09
2.61743e-10
1.51177e-10
2.07926e-10
1.5402e-10
8.15149e-11
1.10795e-10
2.15273e-10
3.779e-05
7.77352e-05
0.000120781
6.35861e-05
3.71252e-05
3.83105e-05
6.39064e-05
3.65618e-05
4.81001e-05
3.64461e-05
3.63997e-05
4.59859e-05
1.78135e-05
3.95996e-05
0.000339857
0.000194837
0.000190757
0.000183038
0.000261606
0.000189628
0.000329098
0.0014235
0.00121772
0.00146365
0.000611006
0.00079754
0.000745394
0.000712764
5.82686e-05
5.81577e-05
0.000120321
7.96424e-05
7.73951e-05
4.87724e-05
0.000122705
0.000159211
0.000159211
0.000159211
0.000159211
0.000159211
0.000149249
0.000113065
0.000145841
0.000190343
0.000124904
9.97758e-05
0.000194636
9.08081e-05
7.18351e-05
0.000864256
0.000864255
0.000887586
0.000864255
0.00122736
0.000870745
0.0015977
0.00351123
0.00331439
0.00201249
0.00274924
0.00285621
0.00523765
0.00362463
0.000350866
0.00134357
7.40239e-05
5.95103e-05
3.38072e-05
0.000969975
8.33838e-05
2.91151e-05
3.22236e-06
6.9214e-06
6.97387e-06
1.11198e-05
1.05207e-05
2.68499e-05
1.15592e-10
2.74392e-11
4.44317e-10
4.60594e-10
1.06088e-10
1.75686e-09
6.35431e-10
4.21906e-11
4.61071e-11
2.67719e-10
1.02852e-09
1.4768e-10
1.56845e-10
9.67104e-10
0.000129061
4.6815e-05
7.75326e-05
6.43377e-05
4.57628e-05
7.49391e-05
6.97473e-05
2.23578e-05
2.23603e-05
2.23578e-05
4.37275e-05
8.30093e-05
2.80961e-05
2.23578e-05
0.000291973
0.000276018
0.000474407
0.000454098
0.000303671
0.000515491
0.00110746
0.00114506
0.00142449
0.00141274
0.00143389
0.00133794
0.00139938
0.000549312
0.000200264
0.000100671
0.000152805
0.000575923
0.000273134
0.00022042
0.00037903
0.000205752
0.000429433
0.000208272
0.00021833
0.00020835
0.000515769
0.000174227
0.000325718
0.000229023
0.000229023
0.000229076
0.000229023
0.000258705
0.000313544
0.000383091
0.000383091
0.000383091
0.000383086
0.000383086
0.000383091
0.000383094
6.11577e-05
2.32602e-05
2.38497e-05
6.01137e-05
3.17751e-05
1.96643e-05
2.56451e-05
0.000602019
0.000115822
0.000296563
0.000647624
0.00016939
7.32003e-05
0.000315595
0.510474
0.311237
0.305826
0.838096
0.380069
0.590803
0.8256
0.645338
0.524078
0.858586
0.855082
0.859415
0.739262
0.856717
0.200745
0.81709
0.861431
0.851052
0.00163428
0.00168538
0.00314724
0.00308223
0.00544111
0.00529687
0.0023446
0.00171203
0.00029254
0.000895412
0.000814688
0.000607136
0.000156987
0.00175234
0.00196869
0.0076436
0.0134489
0.0134181
0.0112021
0.0081775
0.0182451
0.0266662
0.00607479
0.0265863
0.0189889
0.0162634
0.011065
0.0109632
0.00185682
0.00178699
0.00165505
0.00171628
0.00178687
0.00138239
0.00115748
0.0217697
0.0209096
0.0137152
0.0128871
0.0217697
0.0121898
0.00475138
0.0218015
0.0218306
0.0127703
8.87405e-05
0.00012609
8.91357e-05
0.00011907
8.9984e-05
0.000151644
0.000242891
0.984388
0.98463
0.981056
0.495178
0.864561
0.935001
0.766564
0.00144724
0.00380534
0.000347502
0.000846084
0.000343665
0.00462565
0.00226663
1.03688e-05
8.63791e-06
2.10544e-05
5.07794e-05
2.04584e-05
1.64758e-05
5.04647e-05
8.92007e-09
8.69308e-09
9.80852e-09
6.81453e-09
2.5664e-09
8.68527e-09
2.9127e-09
1.38691e-09
1.31293e-09
1.31502e-09
9.3462e-10
3.55363e-10
1.27594e-09
8.88596e-10
3.46643e-11
5.42603e-11
2.20735e-11
7.48631e-09
5.33263e-09
9.0988e-09
9.57696e-09
1.82687e-08
4.59179e-09
9.47292e-10
2.81834e-11
3.43723e-09
1.76477e-11
4.98463e-10
1.19958e-11
5.26622e-10
5.9168e-20
5.79719e-14
6.4712e-13
1.7805e-10
1.15794e-10
5.06442e-08
8.34412e-08
1.02404e-06
2.29813e-07
1.16151e-08
5.84555e-08
4.13291e-07
1.98511e-07
7.46304e-06
2.82675e-06
1.6093e-05
4.22979e-06
1.61857e-05
2.227e-06
9.81546e-06
1.83513e-05
1.83535e-05
1.83535e-05
1.19953e-05
1.83471e-05
1.78726e-05
1.83521e-05
5.40751e-06
8.70058e-06
5.44786e-06
8.46455e-06
1.28766e-05
1.57463e-05
6.0797e-06
7.91931e-06
1.31632e-05
2.23696e-05
3.70375e-05
2.23578e-05
0.000547416
0.000972572
0.000422963
0.000422963
0.000422995
0.000722755
0.000422995
0.00285397
0.00116912
0.00166907
0.00216329
0.00113428
0.00100079
0.0031922
3.3096e-06
3.3096e-06
5.92658e-06
3.181e-06
8.40672e-06
3.25516e-06
5.81636e-06
0.00596696
0.00106765
0.00204631
0.00618064
0.0033167
0.00170104
0.00330515
0.88776
0.887774
0.88764
0.887762
0.858685
0.5652
0.0131586
0.00987026
0.00979748
0.0100563
0.0100771
0.024816
0.013665
0.841488
0.82334
0.479569
0.127795
0.0824697
0.28145
0.37598
0.0147072
0.0146574
0.0147199
0.0229499
0.0146574
0.0238645
0.0244773
0.0219073
0.0232245
0.0146574
0.00107937
0.00135661
0.00183707
0.000487604
0.000579599
0.000651253
0.00123198
2.71356e-06
1.19396e-06
6.24864e-07
3.71449e-07
5.64843e-07
5.47205e-07
5.48804e-07
0.00029628
0.000422082
0.000228454
0.000228454
0.000224602
0.000358013
0.000515233
0.887808
0.95558
0.886903
0.936233
0.967309
0.957182
0.955108
4.40536e-07
3.79952e-07
4.00255e-07
3.78997e-07
8.98369e-08
3.03802e-08
4.71979e-07
4.01998e-07
3.98968e-07
1.84273e-07
6.74214e-07
1.69443e-06
5.16898e-06
5.69879e-07
1.40858e-08
1.2136e-08
1.24349e-08
5.41037e-09
1.38121e-08
5.99484e-09
1.56768e-08
5.40497e-09
8.12019e-09
1.9173e-09
3.79826e-09
6.15561e-09
1.11456e-08
1.77953e-09
3.72004e-10
4.33404e-10
4.33755e-10
3.20347e-10
3.17991e-10
3.62657e-10
2.65643e-10
5.64582e-08
3.26471e-09
1.88804e-08
5.03804e-08
1.0221e-07
1.72705e-07
7.67262e-08
4.95592e-05
4.95592e-05
4.39268e-05
4.14574e-05
4.95592e-05
4.95186e-05
2.34686e-05
4.86493e-06
1.26719e-05
9.07634e-06
7.39711e-06
3.41256e-06
1.25351e-05
2.34199e-06
7.34363e-08
7.34094e-08
7.34363e-08
1.84533e-07
1.38428e-07
1.34497e-07
1.18634e-07
7.34363e-08
7.3329e-08
9.8843e-08
9.17711e-08
2.5356e-07
1.85877e-07
2.29501e-07
1.61143e-05
7.24361e-06
2.70784e-05
3.23805e-05
2.00677e-05
4.80774e-05
1.62925e-05
5.09742e-05
2.22901e-05
3.5471e-05
8.89356e-05
0.000357524
0.000233919
0.000121727
7.49291e-05
0.000208522
0.000115
0.00100152
0.00100488
0.00100168
0.00100633
0.00100633
0.00100459
0.00130571
0.00323088
0.00173454
0.00221458
0.00321758
0.00324405
0.00242761
0.0011686
0.00358132
0.00359221
0.00283025
0.00359386
0.00359221
0.00269466
0.00359221
0.000460873
0.000459016
0.000596619
0.000602944
0.00126517
0.000464833
0.000483294
0.000166236
0.000125459
0.000186774
0.000107152
0.000180476
6.73208e-05
0.000209457
0.00128743
0.00215561
0.00124844
0.00749018
0.0125351
0.00513307
0.00240959
0.708664
0.705052
0.716834
0.0276543
0.357506
0.0976522
0.532691
0.79492
0.87988
0.880305
0.880533
0.881593
0.88055
0.879912
0.884841
0.885027
0.88491
0.885022
0.885024
0.884868
0.884784
0.885025
0.884942
0.880533
0.88058
0.88195
0.884052
0.825101
0.284345
0.854185
0.138976
0.796041
0.405871
0.0304043
0.0205353
0.0329636
0.0120771
0.00997305
0.00839988
0.0108223
0.00682931
0.000764288
0.00264203
0.00327264
0.00138599
0.000861907
0.00101803
0.0365816
0.0365774
0.0360073
0.0923947
0.103944
0.0508468
0.0480381
0.0248388
0.018516
0.0183468
0.0250068
0.0393163
0.0175873
0.0243605
0.0494478
0.0470022
0.109424
0.0678451
0.0309621
0.0233632
0.0201835
0.89479
0.760359
0.884012
0.286115
0.313955
0.681268
0.838251
3.82253e-05
3.73889e-05
3.79981e-05
4.04642e-05
7.36413e-05
3.82183e-05
7.48743e-05
1.74494e-06
1.7378e-06
1.73785e-06
6.21356e-06
1.65026e-05
4.93937e-06
5.48813e-06
4.67329e-05
2.06202e-05
2.82399e-05
7.15833e-05
0.000151008
2.85273e-05
0.00010828
0.0208973
0.0102549
0.0112932
0.651647
0.658813
0.0904313
0.437651
2.47271e-07
2.04385e-07
1.3175e-07
1.77673e-07
2.28864e-07
2.12715e-07
5.8641e-08
1.95352e-09
1.77002e-09
1.55934e-09
6.75031e-09
5.59867e-09
4.02275e-09
3.16315e-09
2.17846e-05
3.78182e-05
8.12393e-06
9.24029e-06
6.75241e-06
2.16484e-05
1.14765e-05
7.65143e-07
4.79094e-07
1.99937e-07
3.01396e-07
5.661e-07
6.48411e-05
0.000139897
0.000144425
0.000126381
6.13758e-05
6.63723e-05
2.77539e-05
0.000131638
0.000242031
0.000221096
6.88601e-05
0.000248654
5.45434e-05
0.00012307
0.000175949
8.30024e-05
0.000176777
0.000155401
8.44036e-05
5.06063e-05
0.000161742
0.000103984
7.4657e-05
0.000103398
6.46298e-05
9.46158e-05
4.43153e-05
4.94385e-05
0.884941
0.884105
0.884894
0.0131247
0.0131247
0.0131247
0.0101952
0.0087478
0.0127326
0.00757291
0.00852012
0.00953234
0.00850248
0.0212574
0.011516
0.00852012
0.0154113
0.00703233
0.00469943
0.00809873
0.00899005
0.0234932
0.00957362
0.103661
0.0860022
0.103803
0.103803
0.103809
0.0928922
0.0818739
0.0843358
0.103831
0.0441624
0.056782
0.0277523
0.053719
0.0275222
0.0269235
0.0841434
0.103695
0.103769
0.10369
0.0892753
0.0666561
0.0678847
0.0823043
0.994938
0.997718
0.998239
0.994977
0.979382
0.994939
0.999077
0.983298
0.999236
0.999066
0.997425
0.995365
0.994392
0.961216
0.990814
0.997038
0.996646
0.989165
0.995579
0.999186
0.996568
0.99913
0.995587
0.98934
0.984125
0.805307
0.577988
0.706759
0.96592
0.950787
0.981893
0.726284
0.726284
0.795077
0.978708
0.943764
0.927803
0.963228
0.164609
0.0218045
0.573879
0.573684
0.532363
0.0379743
0.280235
0.00601767
0.00546348
0.00528586
0.0145987
0.01008
0.0281136
0.0117532
0.0112178
0.00752128
0.00397306
0.00404805
0.00563026
0.0114434
0.0168857
0.000359436
0.000619842
0.000497822
8.06879e-05
9.86083e-05
7.65787e-05
6.69043e-05
5.88494e-05
7.63734e-05
3.02999e-05
2.98674e-05
3.80792e-05
4.21452e-05
5.86525e-05
7.42808e-08
2.10685e-07
4.02071e-08
4.87683e-08
4.02766e-08
1.51495e-07
4.09371e-08
2.39917e-06
5.79221e-07
1.16999e-06
2.39917e-06
1.33823e-06
7.41416e-07
1.44635e-06
3.08573e-06
2.99054e-06
1.22867e-06
7.81056e-07
1.39667e-06
1.24237e-06
2.00184e-06
1.01387e-06
7.81056e-07
7.81056e-07
1.68769e-06
1.01894e-06
2.21548e-06
1.07079e-06
1.0716e-06
1.51855e-06
1.07442e-06
3.28146e-06
1.57944e-06
3.41621e-06
1.20884e-05
4.46464e-06
3.31285e-05
7.83429e-06
3.10829e-06
5.98925e-06
1.0931e-05
1.70605e-06
1.46191e-06
1.46191e-06
1.46191e-06
3.13247e-06
1.48159e-06
1.49251e-06
0.945644
0.952779
0.858224
0.952779
0.945175
0.95126
0.952533
2.79415e-05
2.63722e-05
2.64864e-05
2.63722e-05
2.63459e-05
2.63722e-05
2.64523e-05
0.000159149
0.000124742
8.03125e-05
7.99707e-05
0.000118035
9.34894e-05
0.00016164
2.62053e-05
3.3961e-05
3.42398e-05
2.62523e-05
2.8109e-05
2.85345e-05
4.90264e-05
0.971954
0.971595
0.971595
0.971954
0.943715
0.940867
0.89261
0.992946
0.991473
0.992946
0.985823
0.992226
0.991015
0.990424
0.954684
0.971954
0.949143
0.982203
0.759672
0.598087
0.850574
0.98201
0.955061
0.982189
0.026303
0.0835206
0.0267373
0.0277336
0.0263657
0.0278237
0.0263104
0.0440189
0.0713761
0.0715641
0.0644144
0.0406477
0.0708681
0.0713761
0.0384828
0.0374653
0.0607278
0.0928593
0.0877748
0.0924473
0.103803
0.103799
0.103809
0.0617506
0.0256579
0.050945
0.0248612
0.0249893
0.0590811
0.0977757
0.0603318
0.914581
0.746202
0.723543
0.987036
0.982015
0.870133
0.987221
0.99766
0.994129
0.997749
0.997923
0.995756
0.993665
0.998099
0.998595
0.998595
0.998591
0.998138
0.997665
0.996858
0.994886
0.99694
0.994913
0.995556
0.99504
0.992795
0.976839
0.977357
0.320462
0.309074
0.320462
0.047165
0.045046
0.335715
0.0447675
0.0073931
0.00171348
0.00660489
0.00456135
0.00238629
0.00133344
0.00646281
0.000413748
0.00061121
0.000323277
0.000538356
0.000611785
0.000312335
0.000822845
0.000315298
0.000654667
0.00032707
0.000298998
0.000227322
0.00018961
0.000145395
4.07562e-05
4.07566e-05
4.07568e-05
4.20471e-05
4.07568e-05
6.45637e-05
4.0763e-05
0.000103055
1.78818e-05
4.33746e-05
3.05004e-05
1.73917e-05
6.27273e-05
2.96834e-05
8.35386e-06
7.79577e-06
1.54326e-05
2.29656e-05
1.20077e-05
1.06347e-05
2.29656e-05
2.28387e-05
5.18058e-05
2.29098e-05
2.28466e-05
2.28387e-05
4.90814e-05
2.30053e-05
3.31727e-05
2.32323e-05
2.27531e-05
2.25757e-05
3.39412e-05
1.80175e-05
3.57882e-05
4.3997e-06
2.73292e-06
8.12275e-06
2.71916e-06
4.25919e-06
3.14366e-06
5.89325e-06
2.86436e-06
2.74913e-06
2.32217e-06
1.57024e-06
1.54609e-06
1.539e-06
2.34903e-06
2.54815e-05
6.60331e-05
4.74902e-05
2.49077e-05
4.32344e-05
2.25144e-05
2.60645e-05
1.46466e-05
1.12399e-05
1.46466e-05
8.24893e-07
8.24732e-07
8.24076e-07
8.23257e-07
8.65411e-07
1.03585e-06
8.23441e-07
8.23487e-07
8.23487e-07
8.23487e-07
8.23487e-07
8.23257e-07
8.24097e-07
1.56942e-06
1.23938e-06
8.24341e-07
2.57163e-06
2.99822e-06
2.67801e-06
1.76251e-06
3.00776e-06
3.00129e-06
1
1
1
1
1
1
1
1
1
1.58808e-09
1.84545e-10
2.53952e-10
0.0254691
0.00834013
5.55647e-06
3.60093e-05
0.00106031
4.40076e-06
2.23572e-155
1.09445e-09
0.000114383
1
1
1
1
1
1
1
1
1
1
1
1
1
1
1
1
1
1
1
1
1
1
1
1
1
1
1
1
1
1
1
1
1
1
1
1
1
1
1
1
1
0.566243
0.246858
0.974227
0.993683
0.993721
0.935853
0.955638
2.14865e-18
5.80448e-19
3.59835e-19
1.59347e-19
1.03212e-19
6.10844e-19
2.29752e-19
1.50653e-19
3.42045e-19
0.988968
0.968834
0.99012
0.989632
0.990112
0.967673
0.976281
0.987406
0.984805
0.965427
0.990663
0.978324
0.955933
0.952228
0.977395
4.50518e-19
3.98683e-18
1.05792e-18
7.70213e-19
8.73733e-19
2.93414e-18
0.000283793
0.000284181
0.000284181
3.41732e-05
5.48808e-05
7.85667e-05
0.00172135
0.00133118
0.00150792
0.00172146
8.46522e-05
5.25241e-05
0.000153152
4.02522e-07
4.56417e-07
4.00374e-07
0.000203212
0.000139884
0.000203212
0.000957259
0.00165682
0.001051
0.000150547
0.000159595
0.000154356
0.000162775
3.01098e-07
5.2511e-07
3.88183e-07
1.04401e-06
1.43923e-06
4.76163e-07
5.77761e-07
0.00570475
0.010448
0.00487781
0.00933543
8.46355e-05
0.000192154
0.000181624
0.000203212
2.63625e-05
2.6515e-05
5.08482e-05
3.75102e-05
3.22813e-05
2.63618e-05
2.60937e-05
2.61579e-05
2.63258e-05
5.01106e-05
3.41732e-05
7.94955e-05
3.418e-05
3.418e-05
0.00985898
0.0112179
0.0541184
0.185251
0.0214249
0.0340221
0.0518594
0.0921496
0.0416023
0.0246517
0.000123617
5.53737e-05
7.8081e-05
0.00015908
6.81283e-05
7.27314e-05
0.00172147
0.0017213
0.00172135
0.00172135
0.00172135
0.000465825
0.00105672
0.000720823
1.43099e-07
7.2698e-08
5.50127e-08
2.64401e-08
0.0149916
0.0148695
0.0338654
0.0199996
3.57977e-09
9.87711e-09
9.30761e-10
8.84609e-08
3.93183e-08
1.0252e-07
5.00661e-08
0.0113142
0.0172393
0.0167977
0.0431795
0.00310881
0.00228103
0.00317092
0.00549455
3.0919e-14
6.67944e-14
9.97626e-14
0.0448972
0.0361004
0.664924
0.264266
0.134208
0.0736003
0.803341
0.324913
0.433671
0.80693
4.41356e-06
4.11938e-06
3.00824e-17
3.29876e-17
1.5825e-16
1.02358e-16
0.935877
0.93587
0.93587
0.925233
1.13199e-06
8.47873e-07
2.75666e-06
9.61907e-07
0.0117032
0.0148743
0.0186285
0.017652
0.00271799
0.0016015
0.00349446
0.000832044
2.09123e-06
2.92608e-06
5.04255e-06
4.48209e-06
5.36328e-06
2.35017e-06
0.000778687
0.000463718
0.000878858
0.000881753
0.00896639
0.0101935
0.012132
0.00977392
0.0100159
0.0183413
0.0197294
0.0197294
0.000717642
0.000752337
0.999977
0.999998
5.7037e-08
8.57792e-08
7.34419e-08
1.3059e-07
0.0342299
0.0233168
0.180736
0.075582
0.022138
0.033997
0.0368953
0.157806
7.55719e-08
1.27013e-07
1.88579e-16
7.87351e-17
4.35904e-16
1.04318e-16
0.214871
0.0842186
0.0557615
0.0501158
2.92342e-07
2.07127e-07
2.11753e-05
9.49412e-06
0.000189028
0.000317096
0.000221014
0.000334517
0.000276071
0.000662535
0.241575
0.590356
0.896728
0.961617
0.983623
0.95721
0.983202
0.0165111
0.00919542
0.00750833
0.0150494
0.123108
0.0219674
0.0246958
0.22879
0.80325
0.333835
0.0424527
0.345681
0.490097
5.49304e-06
1.31148e-05
3.53603e-05
2.7023e-05
3.83155e-05
4.46804e-05
9.72443e-05
8.40059e-05
1.31428e-05
1.37232e-05
8.42413e-06
8.91438e-11
5.62184e-11
3.23598e-10
3.35846e-12
2.35824e-12
0.000181637
0.0001535
0.000181508
0.00014118
4.36344e-05
4.32129e-05
0.000104934
0.000142295
0.00275274
0.00524341
0.00229291
0.00759629
0.00030121
0.000301563
0.000295476
0.00017166
0.000448058
0.000245878
0.00111398
0.000810824
0.000306697
0.000419202
0.0493946
0.042372
3.6791e-08
3.6022e-08
0.952779
0.89455
5.04503e-05
3.52135e-05
0.000106279
0.000209177
0.881081
0.953529
0.00166126
0.00230274
0.769026
0.961898
5.56449e-05
4.3713e-05
8.79418e-05
4.59694e-05
0.0106572
0.0273059
0.0372616
0.0831589
0.000138279
6.46934e-05
3.67561e-10
1.8323e-10
3.23005e-10
1.27974e-10
1.70112e-08
1.72408e-08
1
1
1
1
5.10043e-06
5.3358e-06
7.41651e-06
1.8994e-05
0.177664
0.0467352
0.576984
0.149707
2.45953e-09
6.77861e-09
1.36276e-08
1.45894e-08
9.31528e-05
8.78561e-05
0.000383089
0.000383091
0.00047702
0.000844396
0.000462235
0.00048745
0.959255
0.940642
0.879888
0.442378
3.22864e-06
3.29589e-06
5.37867e-06
4.98228e-06
5.40151e-10
9.0405e-10
0.0204219
0.00449279
5.14735e-15
1.20502e-14