/*--------------------------------*- C++ -*----------------------------------*\
| =========                 |                                                 |
| \\      /  F ield         | OpenFOAM: The Open Source CFD Toolbox           |
|  \\    /   O peration     | Version:  v2012                                 |
|   \\  /    A nd           | Website:  www.openfoam.com                      |
|    \\/     M anipulation  |                                                 |
\*---------------------------------------------------------------------------*/
FoamFile
{
    version     2.0;
    format      ascii;
    class       volScalarField;
    location    "0.25";
    object      p_rgh;
}
// * * * * * * * * * * * * * * * * * * * * * * * * * * * * * * * * * * * * * //

dimensions      [1 -1 -2 0 0 0 0];


internalField   nonuniform List<scalar> 
24700
(
2825.59
2804.68
2869.99
2790.76
2792.32
2878.64
2848.23
2831.21
2774.97
2775.53
2798.94
2801.88
2790.73
2822.31
2814.88
2810.52
2807.42
2855.52
2844.4
2808.99
2890.76
2889.52
2816.56
2808.83
2913.31
2853.21
2861.85
2826.32
2857.18
0.0260677
0.0298649
0.0085426
-0.00137996
0.00115315
-0.0318461
-0.00593874
0.111408
0.10052
0.0957836
0.0829265
0.0989611
0.0981055
0.111151
-2.13803
-2.28744
-2.13407
-2.20077
-2.25827
-2.30635
-2.15977
-3.36387
-3.23078
-3.20715
-3.25231
-3.20566
-3.38916
-3.28015
-0.127178
2.36998
0.418978
7.00625
13.1696
1.63796
2.05687
-0.414319
-0.444802
-0.415073
-0.393918
-0.411079
-0.430887
-0.404842
-0.323617
-0.326022
-0.321098
-0.347385
-0.321394
-0.321854
-0.33894
1510.82
242.469
2710.12
1528.28
161.674
2134.59
2613.37
-0.180678
-0.209768
-0.167219
-0.167988
-0.225974
-0.233114
-0.168523
-0.185344
-0.189044
-0.176635
-0.163521
-0.163005
-0.175167
-0.172402
-0.171154
-0.156578
-0.185096
-0.187805
-0.152588
-0.153932
-0.187193
-0.821328
-0.694662
-0.699972
-0.636083
-0.716261
-0.6799
-0.790021
0.0406317
0.0365046
0.0456667
0.0516608
0.0634998
0.0633683
0.0462672
0.0440166
0.040282
0.0318206
0.00963626
0.00621935
0.012217
0.0171065
0.0260242
0.0134747
0.0193496
0.0110526
0.0100961
0.00293047
0.00632466
0.0149549
0.0360534
0.0301095
0.0313547
0.0247384
0.0273112
0.0317141
0.0276169
-0.14688
-0.134715
-0.135129
-0.158581
-0.155365
-0.143587
-0.145621
-2.19077
-2.32478
-2.18838
-2.27451
-2.20973
-2.31556
-2.17326
-3.41419
-3.30823
-3.4328
-3.22238
-3.48516
-3.27326
-3.32565
13.1647
12.933
24.2301
49.1626
19.3121
16.9191
28.5435
134.075
136.774
148.823
153.737
190.533
666.791
153.098
91.2155
105.431
82.8375
85.6625
82.3318
89.2034
82.9972
508.924
468.705
445.898
517.898
519.003
544.49
502.778
-3.34729
-3.3376
-3.31908
-3.2693
-3.25388
-3.29514
-3.28399
-2.78566
-2.8241
-2.82531
-2.85894
-2.75786
-2.76591
-2.84398
1825.42
1747.06
1992.32
1749.81
1951.47
1948.01
1916.58
-1.31683
-1.26267
-1.30271
-1.40878
-1.32649
-1.29089
-1.375
-4.46896
-4.53225
-4.20278
-4.49064
-4.79361
-4.33958
-4.71485
-8.05633
-6.36769
-6.72706
-6.28877
-6.13966
-6.59075
-7.39133
-2.4969
1.34143
-1.39406
-2.62839
-1.50997
-1.49226
-2.36675
78.1277
78.9705
91.6983
72.3611
75.809
94.3548
76.2824
80.4717
94.0693
82.8477
126.666
91.5367
89.8958
358.711
320.267
338.66
358.778
450.658
367.657
703.655
740.625
700.585
708.981
524.771
586.61
685.111
502.061
427.573
466.395
543.169
490.288
510.75
498.384
401.921
401.909
378.777
394.611
387.993
397.961
411.814
173.882
32.4184
119.376
96.1541
21.8034
21.2972
46.9207
9.29535
23.2309
110.377
4.09219
58.0066
13.0655
7.51405
57.7116
2.38083
24.7791
11.2957
2.51318
1.57113
4.05888
2.32452
15.3269
16.4091
12.8307
11.8357
12.3122
11.3351
-1.95563
-1.95705
-1.62814
7.51076
1.66409
-0.20529
2.32729
-1.63107
-1.56953
-1.52538
-1.56267
-1.6805
-1.61063
-1.68711
-0.731648
-0.758323
-0.769829
-0.806502
-0.777861
-0.783818
-0.749218
-0.0577106
-0.0520682
-0.0698032
-0.0813615
-0.0831413
-0.0668905
-0.0691347
0.218389
0.217848
0.231565
0.197826
0.230748
0.207899
0.229624
0.241189
0.235135
0.227468
0.22399
0.253182
0.22644
0.243718
0.149319
0.138515
0.13658
0.126798
0.130983
0.131044
0.139082
0.100535
0.0929898
0.102148
0.100195
0.11253
0.0945251
0.103107
0.0692143
0.0724584
0.0632586
0.086579
0.0756995
0.0704641
0.0768581
0.0608931
0.0583616
0.0671644
0.0540561
0.0504436
0.0545868
0.0592871
0.0302881
0.0363306
0.0317157
0.0274264
0.0246054
0.031866
0.0276053
0.00355771
0.00233846
-0.000780394
0.00416195
0.00907177
0.00573489
0.00247551
-0.176379
-0.188953
-0.185175
-0.163084
-0.163376
-0.175113
-0.172377
-0.274648
-0.268482
-0.288002
-0.277306
-0.264044
-0.265541
-0.284287
2140.64
1649.57
1030.95
2143.98
2146.95
2044.92
1617.56
-10.4154
-10.8959
-11.1423
-10.5331
-11.3942
-10.7151
-10.506
-10.0462
-9.3461
-9.37139
-8.03625
-8.79307
-8.56694
-9.80057
36.2703
39.7037
37.6415
48.0462
36.3186
38.6767
41.7684
58.5479
41.6724
56.7509
42.9523
33.8753
37.6613
43.8138
67.9149
69.8308
40.9911
37.8709
40.8213
122.749
107.09
126.823
106.398
91.8807
73.8708
83.6042
101.716
98.8443
148.468
88.3824
72.6261
88.0069
90.9436
88.8323
89.9775
87.3613
89.5753
89.2658
-1.61182
-2.58901
-1.87844
-2.17008
-2.55306
-2.66231
-2.34763
-2.52945
-2.47631
-2.56456
-2.54767
-2.51901
-2.49723
-2.55952
-2.62964
-2.55135
-2.62862
-2.6461
-2.6239
-2.58685
-2.63619
-1.79192
-1.7704
-1.72038
-1.79792
-1.88522
-1.82261
-1.75827
-0.842891
-0.812986
-0.854936
-0.839443
-0.910205
-0.82352
-0.875988
-0.276722
-0.259365
-0.259917
-0.300497
-0.290746
-0.275897
-0.286414
0.264378
0.288911
0.25678
0.260368
0.220392
0.278059
0.247842
0.397081
0.395252
0.419876
0.523672
0.429182
0.405106
0.422465
0.1671
0.175102
0.166919
0.187766
0.177232
0.179329
0.173258
-0.0119688
-0.0121215
-0.0146609
-0.0187631
-0.0157723
-0.0149534
-0.0135833
-0.0329407
-0.0339444
-0.0371578
-0.0442872
-0.0395126
-0.0391451
-0.0364857
-0.785778
-0.854163
-0.797392
-0.725627
-0.76304
-0.797395
-0.764133
-4.6111
-5.43359
-5.62598
-5.69477
-6.07634
-4.95299
-6.39609
-3.48171
-3.30113
-3.33439
-3.06795
-3.40385
-2.99273
-3.42587
-2.94959
-2.97114
-2.25858
-2.14432
-2.84699
-3.34104
-2.94271
33.1959
33.4479
27.5684
30.2294
31.9974
29.8971
31.6773
42.6344
47.4891
52.0804
82.6013
64.0821
52.0443
65.3033
478.35
415.442
469.196
478.326
352.67
299.196
469.102
683.223
702.769
756.816
610.98
751.107
765.726
709.551
-2.20414
-2.33632
-2.48381
-2.09741
-2.21753
-2.33383
-2.51511
-1.36742
-0.37723
-1.21268
10.0515
4.45103
2.46826
-0.414527
939.109
945.014
959.835
909.01
840.774
930.138
952.13
-2.66458
-2.64027
-2.65349
-2.66883
-2.71177
-2.65504
-2.69599
-1.27647
-1.21558
-1.17998
-1.17168
-1.1164
-1.17354
-1.23156
-0.313738
-0.326894
-0.352225
-0.381716
-0.371658
-0.350165
-0.338837
0.731565
0.854931
0.682798
0.742075
0.743559
0.754643
0.709832
0.702754
0.63447
0.692116
0.903378
0.764479
0.457109
0.483333
0.50757
0.552461
0.458139
0.497678
0.558124
0.546657
0.537173
0.492442
0.570166
0.507393
0.396028
0.365972
0.38139
0.42227
0.412976
-0.0450655
-0.0540659
-0.0475223
-0.0398226
-0.0421153
-0.0480246
-0.0437832
-0.334775
-0.323363
-0.353511
-0.303831
-0.324426
-0.313687
-0.338467
-0.410839
-0.445664
-0.410399
-0.394783
-0.403079
-0.426778
-0.40496
-0.440413
-0.408294
-0.410219
-0.404455
-0.39
-0.403027
-0.428076
-0.977904
-1.0998
-0.933688
-0.815658
-1.15374
-0.948177
-1.08575
-1.56507
-1.60854
-1.60601
-1.45715
-1.44928
-1.52247
-1.49336
0.929618
0.953819
-0.84506
-2.27365
0.345084
-0.138209
-2.31061
-3.54025
-3.71218
-2.54561
-3.24028
-2.79894
-3.83065
-3.80677
4.51719
4.65578
6.14128
4.51854
4.38521
5.00917
5.8953
4.92179
4.60441
5.94395
5.00439
5.01625
94.8028
125.433
93.1135
122.195
111.544
253.92
100.552
147.144
136.006
133.493
156.523
307.138
115.549
290.663
42.8603
39.2674
111.796
20.33
34.1407
25.4353
31.6224
-1.4322
0.725041
-3.19479
2.38544
11.7539
1.38795
1.49798
-1.75976
-1.81794
-1.69637
-1.6819
-1.62897
-1.77656
-1.7077
-0.941097
-0.790194
-0.523159
0.352101
2.74103
-0.609235
0.37793
-0.604187
1.11981
4.72584
1.32818
-0.823851
-0.85167
1.35845
-3.2007
-3.09586
-3.15748
-3.18673
-3.27961
-3.18182
-3.28825
-2.5019
-2.45252
-2.43326
-2.6082
-2.73564
-2.55223
-2.47776
0.615337
0.995821
0.460763
1.12354
0.753865
0.817035
0.9161
0.708684
0.456858
0.903296
1.35665
0.865428
0.256487
0.287459
0.264556
0.218378
0.260881
0.277093
0.248617
0.0394801
0.0347147
0.0527879
0.0431784
0.0275842
0.0258195
0.0477135
-0.0218718
-0.0261181
-0.0116056
-0.0175245
-0.0290005
-0.0286458
-0.0139205
-0.00385151
-0.00427215
-0.00172247
-0.00741151
-0.0015449
-0.0061767
-0.00408097
-0.00377001
-0.00807332
-0.00555243
-0.0019278
-0.00192908
-0.00870317
-0.00157774
-0.000733709
-0.00724611
2536.07
2590.57
2524.42
2614.17
2524.6
2603.74
2539.25
-0.126724
-0.136342
-0.112657
-0.138106
-0.098402
-0.128894
-0.117315
-0.248026
-0.255445
-0.268838
-0.237509
-0.227234
-0.240891
-0.251811
-0.425347
-0.444139
-0.482598
-0.431161
-0.41123
-0.456553
-0.412255
-0.776367
-0.829825
-0.7875
-0.684041
-0.691416
-0.520937
-0.723233
-0.520105
-0.293242
-0.0576456
1.51233
0.693458
1.33623
-0.207618
3.38497
3.02967
3.63739
3.7029
3.32305
3.49522
2.89114
7.76489
8.88559
8.07357
9.22211
7.83781
8.79924
7.49873
-1.08244
-0.954077
-1.08614
-1.04352
-1.06775
-0.994704
-1.06895
3.54025
5.07297
12.6642
0.875048
0.466251
0.503147
6.20768
-33.3308
-117.231
-75.1943
222.717
93.0741
19.3649
-55.6348
76.1937
17.3619
-21.5645
44.4642
11.2793
188.223
14.9903
259.093
1.74747
-35.5152
-1.33227
-1.3247
-1.13565
-1.26881
-1.39392
-1.4073
-1.24957
354.891
377.583
380.947
401.507
379.276
387.074
367.933
106.5
466.874
473.69
73.5425
9.68263
25.1043
95.7475
-0.782245
1.2711
1.74641
-2.10907
-0.455914
-0.871419
-1.61118
2.31241
3.18701
1.64908
4.91929
17.0821
9.39935
1.41484
1.27749
0.676909
0.725284
0.951539
0.823272
1.20964
1.08238
0.795967
1.45215
0.813642
-0.0112011
-0.0300154
-0.0184186
-0.0247512
-0.00209022
-0.0268619
-0.00459977
-0.00356814
0.082384
-0.0288909
0.00537838
-0.0445477
-0.0321142
0.00101681
0.0549041
-0.0261983
-0.0188829
-0.0400579
0.0269644
-0.0781526
-0.0121262
-0.0061198
0.0948474
-0.0377973
-0.0548376
0.00811704
-0.042213
-0.0102611
0.0104971
0.00472551
-0.0129768
0.0210192
-0.00489516
0.0263089
0.0207687
-0.0257517
-0.0151954
-0.135151
-0.141067
-0.127135
-0.116663
-0.115813
-0.129076
-0.125628
-0.290302
-0.203532
-0.290152
-0.239128
-0.255511
-0.240348
-0.241282
12.4417
11.9993
5.7979
6.42927
6.12483
12.5921
11.2925
-1.16708
-1.10956
-1.1095
-1.10476
-1.10604
-1.13902
-1.1628
-2.36093
-1.19698
-1.26631
-1.53256
-2.79758
-2.99482
-2.28272
110.957
94.958
98.5308
138.223
111.114
389.05
111.827
248.627
349.543
282.326
216.37
14.3343
517.937
16.7312
-2.50134
-2.27399
-2.18279
-2.27453
-2.31335
-2.2899
-2.44917
119.179
120.631
298.841
61.1017
73.0248
66.4165
104.446
20.4615
31.693
115.183
57.4434
148.664
-23.0867
45.4758
68.6534
-2.63234
-2.62769
-2.6528
-2.64604
-2.606
-2.62001
-2.59692
-2.86318
-2.90436
-2.89259
-2.84537
-2.86721
-2.91191
-2.89407
-3.99759
-4.03882
-3.55293
-4.05898
-4.35765
-4.17158
-3.99025
-7.93182
-7.37364
-8.52974
-9.155
-9.15291
-8.09423
-8.69459
-1.19536
-1.62096
-0.611568
-6.77971
-4.21553
-6.4112
-4.3072
4.78109
-0.373886
1.96447
11.3485
15.298
-0.269964
8.72824
-1.74744
-1.75039
-1.91333
-2.02403
-1.8045
-1.89616
-1.34748
-1.99231
-1.87017
-2.67107
-2.89306
-2.59514
-2.17689
-2.61507
-0.775788
-0.0997673
1.04806
-0.461679
-1.35647
-1.01661
1.95963
-0.850464
-1.11266
-1.78547
-1.38855
-2.36221
-1.28661
-3.22741
-1.16229
2.47894
-1.37171
-1.39365
-1.33688
-0.2611
-1.61893
-1.18487
-1.12405
-1.20711
-1.21621
-1.27884
-1.16174
-1.23389
-0.257705
-0.281996
-0.233119
-0.252143
-0.259209
-0.232752
-0.214654
-0.00319045
1.2168
1.94318
-0.128096
-0.42966
-0.0941942
0.398421
-0.00421021
-0.0111971
-0.0125127
-0.0102035
-0.00444181
-0.0129082
-0.00724451
-0.00885584
-0.00118047
-0.00897617
-0.0206721
-0.0184055
-0.0144755
-0.0253903
-0.0163126
-0.0167594
-0.0251433
-0.0515934
-0.0296038
0.0576576
0.0361846
0.0217509
-0.0514853
-0.0214676
-1.06512
-1.06655
-1.11037
-1.07687
-1.12844
-1.11546
-1.10174
-1.50487
-1.68866
-1.36474
-1.41875
-1.27705
-1.41041
-1.41925
-2.70939
-3.24052
-2.23103
-3.85442
-3.84318
-4.03531
-3.3669
-2.41206
-2.37501
-2.40374
-2.43915
-2.31927
-2.32552
-2.40041
-2.72446
-2.65435
-2.74497
-2.64853
-2.78809
-2.62263
-2.78201
-3.25602
-3.28743
-3.29427
-3.3765
-3.32141
-3.34645
-3.35206
-2.49728
-2.3226
-2.14609
-2.50075
-1.732
-2.50231
-1.40357
1.58799
1.52436
-0.201723
1.11654
1.84561
3.24349
2.09527
0.514128
3.28609
0.0528391
-0.0557573
-0.116753
2.3985
-0.0149381
-0.0568988
-0.141501
-0.132296
-0.150792
-0.126307
-0.129792
-0.0724142
-0.00183207
-0.00197396
-0.000411177
-0.00437328
-0.00250361
-0.00120565
-0.00246185
0.00517547
0.000124888
0.0127239
0.00595675
-0.0023332
-0.00254079
0.0108732
0.446408
0.239343
0.319072
0.265269
0.197957
0.301108
0.286466
-0.453004
-0.355562
-0.353166
-0.237709
-0.185615
-0.363641
-0.339877
-1.72854
-1.78053
-1.57536
-2.14969
-1.76058
-1.56308
-0.971697
-5.51944
-5.47259
-4.51329
-5.82106
-6.22018
-5.03353
-6.66951
-6.38402
-6.50288
-7.29055
-7.11852
-8.78487
-6.77253
-7.20478
-3.35891
-3.10687
-3.32639
-3.36648
-3.45572
-3.09672
-3.37915
-2.92159
-3.10342
-3.10047
-3.14314
-3.16553
-3.11969
-3.02636
-3.00726
-2.88969
-2.98112
-3.00326
-2.99842
-2.91996
-3.01933
-2.80478
-2.85831
-2.80383
-2.80429
-2.80175
-2.83429
-2.82426
-1.14195
-1.38381
-1.20865
-1.18763
-1.37476
-1.41313
-1.26648
1043.85
858.036
892.986
1128.3
598.456
1178.93
661.853
778.984
1262.77
1325.84
1482.63
1053.37
376.551
396.171
566.301
210.904
978.498
1338.94
-0.723377
-0.877013
-0.287116
-1.64267
-1.29662
0.158765
-0.980238
-2.54753
-3.3103
-2.97933
-3.09979
-3.13011
-3.2913
-2.79741
-2.64073
1.58197
5.44878
4.96898
3.45383
1.96178
8.20481
17.1754
0.576816
16.3479
9.92956
9.43934
5.15332
5.61994
-4.5385
-3.28558
-4.26434
-3.71775
-4.19697
-3.69361
-5.20351
36.5493
12.881
14.6899
17.4664
25.9682
14.8899
6.78862
35.475
15.9907
17.2461
-2.913
-2.79826
-3.0447
-3.18753
-3.43707
-3.01591
-2.83094
2139.74
2144.13
2135.91
1066.61
1849.4
2021.27
1673.25
2.47364
7.86106
0.17022
1.49253
0.151103
9.90513
4.39978
-0.401175
-0.426178
-0.396988
-0.285039
-0.365102
-0.396862
-0.307256
-0.211764
-0.201106
-0.194063
-0.180318
-0.186767
-0.191515
-0.200509
-0.141291
-0.135275
-0.127252
-0.115782
-0.116648
-0.125659
-0.129134
-0.0037534
-0.00329222
-0.00218608
0.000603429
-0.0011577
-0.0120294
-0.0028306
-0.00505094
-0.00528124
0.0334558
0.0101507
0.008121
0.00348681
0.00224813
0.00252324
0.0185086
-0.000991656
-0.00229365
0.0102966
-0.0048691
0.0130927
0.00196766
0.0365209
-0.00510957
-0.0740489
-0.0234987
-0.0105049
0.0196412
-0.0283898
0.0993938
0.0919827
0.130795
0.110953
0.133246
0.0966765
0.109553
0.250581
0.268929
0.25086
0.229363
0.251736
0.255591
0.254944
0.0835158
0.0886618
0.0621721
0.094319
0.094401
0.0676858
0.0731292
0.0665974
0.0768552
-0.496634
-0.383878
-0.388024
-0.925871
-0.249983
-1.42022
-1.42066
-1.47863
-0.812775
-1.29717
-0.42977
-2.66761
-1.78855
-0.485015
-2.45735
-2.68072
0.803216
-2.56668
-2.48002
-2.5358
-2.51981
-2.54982
-2.49879
-2.5623
1.1072
-1.44993
-1.16414
1.1097
-0.285555
-1.03664
-0.721652
-150.729
-11.0401
-135.388
45.1862
-47.5862
-10.2804
4.91189
1.92747
2.17824
1.82948
2.24541
10.4788
4.82387
598.074
613.73
356.778
114.224
85.8486
222.783
283.636
26.6201
47.1636
46.7364
45.7981
38.0426
36.5258
52.676
13.6989
40.0502
38.8268
-9.50841
-9.14594
-8.86278
-9.64161
-10.057
-10.0207
-9.1919
-1.71706
-1.76966
-1.79323
-1.88694
-1.79701
-1.82133
-1.75895
-0.549929
-0.343877
-0.71728
-0.812679
-0.77392
-0.634724
-0.254443
1804.96
1949.07
1802.8
1872.71
1971.29
1949.38
1919.51
-0.629493
-0.689871
-0.643883
-0.577043
-0.607944
-0.635626
-0.605227
-0.411023
-0.389703
-0.405568
-0.446287
-0.407704
-0.389533
-0.42343
-0.503983
-0.53764
-0.504659
-0.493329
-0.480396
-0.519459
-0.492088
-0.248189
-0.227183
-0.236089
-0.268307
-0.255706
-0.240523
-0.251372
-0.220212
-0.211638
-0.199662
-0.183768
-0.18799
-0.197976
-0.205404
0.0378241
0.0411398
0.0365594
0.0527188
0.024921
0.0415842
0.0608488
0.222121
0.222925
0.221822
0.194598
0.209611
0.215921
0.156041
0.175964
0.184393
0.177594
0.168245
0.162202
0.179563
0.163436
0.0966116
0.113846
0.110276
0.119061
0.122717
0.119973
0.115048
0.112943
0.100867
0.121274
0.0925406
0.137761
0.103097
0.110539
0.0796987
0.053315
0.12411
0.104394
0.0863867
0.152063
0.096159
0.141256
0.110143
0.133003
-0.116676
0.191045
-0.00683725
-0.0118561
-0.202972
-0.0566623
-0.151643
-0.446471
-0.448616
-0.33804
-0.538515
-0.346964
-0.411184
0.219597
3.1136
0.960977
0.949498
3.39953
3.13988
1.50966
-0.490563
2.35609
2.63366
1.65434
3.00565
3.03445
1.22439
2.46468
-8.38915
-9.26875
-8.15004
-7.33925
-7.65134
-9.31655
-8.0205
-6.41652
-5.93283
-5.92656
-5.54238
-5.87144
-5.7867
-6.15472
-1.4989
-0.863899
-1.72602
2.86913
7.69641
1.87235
-0.764366
403.266
390.448
409.277
10.4217
182.781
49.8096
286.561
32.3329
81.8835
53.6217
64.0559
46.3648
49.66
70.5148
105.829
171.198
102.442
75.7529
69.9317
62.9507
-82.265
58.0334
68.0125
27.089
35.6622
49.8945
-51.5798
44.3622
55.7711
72.8738
19.4663
118.756
110.982
6.79694
1.40253
3.32322
0.528546
-1.40727
-2.42963
-6.59698
-0.276893
-2.4213
-1.85696
-0.915555
-2.17981
-2.28795
-1.80183
59.3464
54.9715
59.7221
89.8439
97.2931
65.4832
66.779
43.2429
38.6312
34.3687
47.9989
50.0732
35.7834
41.4509
113.939
94.342
133.866
112.563
108.867
93.4682
99.473
635.97
546.785
651.519
215.931
238.747
497.006
591.954
-4.3431
-4.11002
-4.32729
-4.19445
-4.39205
-4.14633
-4.38272
-2.78531
-2.77991
-2.83837
-2.91354
-2.8713
-2.83999
-2.83425
-2.69694
-2.6741
-2.65844
-2.55514
-2.49013
-2.63345
-2.57457
35.0997
17.6866
15.0346
1232.25
1195.07
166.929
822.424
-0.782414
-0.723353
-0.75857
-0.85617
-0.798608
-0.763008
-0.793275
-0.0465529
-0.0550109
-0.03572
-0.0317864
-0.0508574
-0.0488343
-0.0312862
0.0682955
0.0992032
0.0196944
0.0188361
0.0197271
0.0538202
0.0353989
0.122227
0.119976
0.115113
0.128646
0.135943
-3.21434
-3.21435
-3.21901
-3.45325
-3.26006
-3.48629
-3.27801
-4.11129
-4.25566
-4.21548
-4.44347
-4.62629
-4.33596
-4.6682
-2.24264
-2.35131
-2.24354
-2.16373
-2.29518
-2.32563
-2.19668
-2.05399
-1.9978
-2.08676
-2.15775
-2.14538
-2.10984
-2.146
97.9556
80.3231
6.79907
44.1163
51.8935
46.8588
44.6384
45.7803
47.578
42.2209
37.5586
39.8021
40.2443
49.7247
43.8099
44.9083
46.8051
40.7068
38.076
50.5722
37.892
49.8988
40.0419
226.4
225.15
277.902
269.929
267.484
214.185
224.934
243.45
241.588
194.138
203.072
181.461
184.404
180.224
179.862
186.195
231.678
238.025
203.948
199.797
191.508
199.184
218.034
251.834
252.427
252.745
253.566
248.261
250.508
253.873
253.115
255.94
253.59
253.579
251.692
262.177
250.083
255.1
263.574
272.912
258.651
258.447
258.451
258.392
265.032
284
265.014
505.688
433.756
453.299
415.077
540.732
444.527
537.784
368.179
376.544
380.932
442.665
468.425
454.968
442.118
104.913
12.8425
376.337
347.063
339.041
21.5876
176.533
2.33813
0.594551
1.81752
7.87761
4.60683
17.4934
6.05926
3.63029
1.82321
-0.360397
-1.09635
0.598213
3.85684
7.44206
-3.10462
-2.82821
-2.92537
-3.22321
-3.21959
-3.21907
-3.25943
-2.71949
-2.7036
-2.77182
-2.82616
-2.78758
-2.78358
-2.74624
-1.09959
-1.1317
-1.14533
-1.22981
-1.14916
-1.18474
-1.12277
0.0946857
0.0869756
0.0833673
0.0950252
0.102883
0.0928411
0.0873916
0.0174333
0.0373813
0.0190809
0.00721563
0.0192809
0.0271789
0.0177185
0.00752901
0.00256648
0.0404382
0.0114943
0.0101814
0.0778655
0.0570067
0.0750348
0.0970416
0.0657399
0.0732993
0.0606521
0.0873295
-3.0452
-2.97279
-2.99825
-2.91588
-2.91292
-2.98311
-2.96925
-3.02976
-3.04915
-3.04793
-3.04012
-3.07282
-3.03813
-3.07297
917.93
949.622
857.045
960.359
943.629
938.572
954.029
-2.73495
-2.79183
-2.81225
-2.83866
-2.70573
-2.68846
-2.81853
-2.5051
-2.48075
-2.58225
-2.65916
-2.61332
-2.58645
-2.56315
-2.4147
-2.33887
-2.45534
-2.44139
-2.38821
-2.33896
-2.43601
389.187
680.418
396.735
546.393
540.691
646.017
464.617
735.287
868.125
785.915
788.097
883.177
965.155
819.603
910.064
504.498
633.543
555.388
399.004
449.552
423.37
511.209
455.859
552.213
115.087
125.008
106.134
121.667
116.811
118.899
111.012
219.949
86.5204
118.918
133.154
177.334
111.86
111.305
119.352
91.1881
63.1409
166.47
194.44
168.526
287.953
247.565
254.358
87.9649
113.587
112.047
91.7339
116.971
204.507
213.873
186.772
530.115
320.545
378.157
570.609
622.538
454.728
489.468
968.328
834.506
746.771
830.428
833.393
792.679
838.896
953.45
856.773
837.367
960.159
881.214
880.861
861.8
864.15
812.123
1000.85
892.561
793.05
746.381
968.695
119.369
170.159
100.855
35.9592
58.9946
113.126
35.8783
0.0517541
-1.92003
0.0329292
-1.05856
-1.83974
-2.07693
-0.337704
-3.47924
-3.19535
-3.2794
-3.16263
-3.1154
-3.21275
-3.25731
-3.30944
-3.08741
-3.21774
-3.39053
-3.4461
-3.37033
-3.40567
-3.00578
-2.99157
-2.96235
-2.92376
-2.92972
-2.93536
-2.97772
-2.72146
-2.82543
-2.83796
-2.77369
-2.8189
-2.75427
-2.84261
-2.01937
-1.9586
-1.93312
-2.01723
-2.12468
-2.03946
-1.95955
-0.863087
-0.923897
-0.900632
-0.7683
-0.837603
-0.862252
-0.824156
-0.134422
-0.154313
-0.0933182
-0.00341309
-0.0407344
-0.0903748
-0.0853431
0.185815
0.195042
0.221344
0.20622
0.212484
0.203615
0.213157
0.130273
0.130783
0.117293
0.131912
0.150035
0.135933
0.127477
0.0769279
0.188862
0.130319
0.0886465
0.13583
0.0713873
0.0838339
0.0122007
0.00543991
0.00766012
-0.0290901
0.00473138
-0.0123502
-0.0122372
0.00429306
-0.00691378
-0.0164362
-0.0230453
-0.00629115
-0.0221954
0.0154714
-0.0147175
-0.00650765
0.0136743
0.0115607
-0.0113262
0.0204535
-0.0105367
-0.00295193
0.00400724
-0.0292837
-0.00168533
2861.23
2851.15
2858.1
2864.07
2855.23
2841.11
2793.2
2840.43
2865.18
-0.0783124
0.265861
-0.125752
74.9747
22.8485
0.670564
-0.280639
2.69019
-0.130276
-0.0748756
0.0570667
0.519804
2821.84
2877.22
2847.98
2817.57
2816.87
2818.45
2821.46
2816.85
2806.75
2819.04
2797.91
2802.14
2808.59
2812.21
2814.83
2818.16
2848.61
2817.41
2826.99
2800.41
2815.62
2816.8
2815.94
2817.14
2818.26
2820.81
2817.13
2818.98
2816.3
2812.35
2808.42
2803.39
2797.46
2788.59
2814.36
2822.54
2811.82
2840.95
2807.72
2783.81
2810.79
1706.05
704.806
2836.09
2891.03
2868.17
2710.92
2723.63
0.0171624
0.0108104
0.0104643
0.00857635
0.00770704
0.00772793
-0.00892657
-0.0109789
0.0087254
256.26
255.723
257.125
255.534
255.565
255.7
257.316
257.457
255.879
254.33
253.665
255.711
254.19
256.765
255.492
0.00430243
0.0290339
0.00845964
0.0010108
0.00458879
0.00802744
-2.85119
-2.87379
-2.80355
-4.26155
-4.01558
-4.06859
-10.6798
-11.5838
-11.3795
-10.6618
-3.05892
-3.04425
-2.92735
-0.435877
-0.438193
-0.410706
-4.11163
-4.01273
-3.84218
2.1665
3.80089
2.57709
-2.9647
-3.00301
-2.98758
-3.04001
0.108376
0.11094
0.0950025
-0.422194
-0.434358
-0.465309
-0.481508
1.98274
5.91052
0.899958
5.17389
-4.15011
-4.1499
-4.20178
-4.4211
-2.86538
-2.8569
-2.67023
-2.74266
-2.64644
-2.73897
-2.61195
-2.66666
-2.78606
-2.63166
-4.3478
-4.19849
-4.59379
-4.41488
5.24971
6.00807
40.1404
140.515
14.569
23.9622
36.4866
66.1502
29.1987
15.5505
-2.84257
-2.84939
-2.59002
-2.60855
-2.61882
-2.76593
-10.7876
-10.8483
-10.3744
-10.4127
-10.4544
-11.3101
-10.8788
-11.4218
-0.393028
-0.413418
-0.391988
-0.414478
128.506
125.687
130.593
128.165
0.0210834
0.0271105
0.0201699
0.00433562
0.0376505
0.0363382
0.0604728
3.3458
3.86001
1.80419
4.90998
-1.44802
-2.31762
-1.16468
-0.00237037
0.105448
0.114311
0.118507
111.635
119.358
539.098
215.393
104.013
57.0095
414.903
164.555
221.023
424.677
0.137377
0.129458
0.00717823
0.0140172
0.0165699
0.0205459
3468.44
3006.05
2805.15
2464.26
0.0269295
0.0559045
0.0443657
0.0548184
1.12795
2.57738
4.49064
3.33142
-0.171876
-1.97061
0.65416
-1.99449
-0.184414
-0.283032
-0.313206
-0.321833
-0.603788
-0.645028
-1.32123
-1.24999
-1.47581
-1.16081
1.88501
2.22187
3.16798
2.34181
0.79586
4.59786
4.10197
5.52864
-3.02515
-3.17959
2850.85
2858.42
0.0375242
0.0326425
0.0373034
0.0513824
21.6476
14.1456
121.006
52.927
13.3511
20.6342
24.7268
102.932
-0.757854
-0.79065
-0.0165325
-0.0136291
-0.020733
-0.0174475
175.45
67.8552
45.5497
39.9882
0.0595976
0.0578133
0.0426714
0.0307917
-2.15346
-2.15206
-0.0945037
-0.358379
0.748371
0.751715
193.825
227.486
251.736
701.9
817.535
751.632
824.081
60.8839
55.238
65.8625
66.4719
200.248
177.743
169.285
33.1427
54.1812
33.1388
7.09395
54.8417
67.3872
-0.351271
-0.323977
-0.556565
-0.586158
-0.371122
-0.147817
-0.0329333
-0.158827
-0.00689975
-0.000144
-0.000507378
-0.00500519
-0.00274485
-0.00372483
0.163634
0.15945
-2.63201
-2.6343
-2.6571
-2.63753
-2.7143
-2.71473
-2.66955
-2.67822
2.65344
5.06615
1.67574
4.56602
-3.01055
-3.03644
-3.10479
-3.20678
-6.30906
-6.95692
-2.70984
-2.89123
-6.84416
-6.30011
61.0237
53.2891
-0.792248
-0.754553
977.91
904.079
-2.83862
-2.88296
-2.90463
-2.82286
894.422
979.063
4.76473
4.87328
2233.43
2716.77
-2.82602
-2.81569
-2.8294
-2.85042
7.11083
21.1345
31.3207
69.461
-2.00994
-2.11634
-0.278886
-0.259908
-0.302761
-0.27774
-0.450175
-0.456789
2848.01
2850.25
2858.83
2846.38
-0.182423
-0.180986
-0.294528
-0.220353
87.6268
44.7814
274.632
80.3307
-2.21634
0.8315
-2.62251
-1.89954
-0.893671
-0.890145
-2.77792
-2.8102
-4.19938
-4.5759
-4.63509
-5.71737
540.663
438.794
431.9
244.592
-0.207184
-0.188339
-0.249984
-0.236938
0.24844
0.256371
57.6241
14.524
0.0524716
0.0583108
490.98
532.207
2821.57
1098.92
294.809
1489.94
422.864
-0.454623
-0.693642
-0.500268
-0.660121
0.220575
0.238998
-3.36978
-3.29898
-0.394823
-0.403279
-3.15566
-3.19797
-2.9555
-3.12082
0.896351
0.676529
83.2279
84.323
81.8746
84.0944
2430.97
2509.38
2974.71
-0.349015
-0.351783
-0.309224
-0.325075
-1.82208
-0.621602
1.93023
4.56976
-0.164691
-0.174659
-0.169972
-0.195096
-4.51905
-4.84162
1.52086
0.620975
3.77818
0.768868
-2.8498
-2.81917
-2.8827
-2.8549
-1.00908
-1.15806
-1.56698
-1.52759
-1.41838
-1.441
-1.37902
-1.35704
-1.32044
-1.22965
-0.912593
-0.938972
-0.0405114
-0.0385302
-0.0707638
-0.0568185
-0.0705947
-0.0851543
121.67
102.78
425.32
437.444
-0.0835355
-0.119294
-0.267304
-0.717908
-0.0365355
-0.0347295
-0.0305263
-0.0274981
-0.17095
-0.163089
-0.193835
-0.16835
-4.85227
-4.3964
3.41575
2.82249
-3.45702
-3.40735
-3.52088
-3.56954
-3.55925
-3.53922
-3.74296
-3.68165
-3.30552
-3.37946
-2.98507
-3.09746
-3.37502
-3.25358
-3.27401
-3.10543
0.0205634
-3.07769
-3.05071
84.3544
79.3874
76.9321
73.3218
0.192932
0.196511
0.238153
0.236079
114.907
204.565
448.56
429.284
113.715
103.579
115.923
117.031
83.6521
86.7929
75.4863
80.3619
293.642
385.776
88.2288
98.9222
0.238629
0.219107
-10.6074
-10.473
16.787
29.2097
-1.13273
-1.25164
-1.31488
-1.25377
-1.05044
-0.714718
-1.02968
-0.854694
1994.38
2081.25
2092.1
2132.27
2833.2
2860.8
547.578
465.05
115.536
153.554
1434.18
1732.48
-2.4988
-1.00384
-0.0335616
-0.0188954
524.43
505.648
-6.24834
-5.94841
-6.01423
-4.79023
2873.3
2881.67
-6.6779
-6.44133
-6.95646
-6.46442
-2.86672
-2.90781
-0.0165615
-0.0186923
561.707
562.623
113.849
3.31957
4.54197
0.243234
0.277508
18.2741
15.6405
14.3424
17.672
4.48964
1.16556
-2.71438
-2.82857
-2.65773
-2.76614
-1.97516
-2.04616
-2.05076
-2.05183
0.0104441
0.00585049
-2.04621
-2.05564
-2.13152
-2.09408
0.0207359
0.0239242
0.0238164
0.0205475
-0.134554
-0.336924
-0.448635
-0.697699
-2.78827
-2.74306
-2.72547
-2.68062
-2.77393
-2.72732
-0.295493
-0.288391
121.753
131.75
183.743
198.956
-3.41121
-3.35388
-2.75077
-2.6144
-2.7147
-2.60494
-2.76654
-2.79847
-2.63841
-2.72774
1.55839
0.215321
-1.22315
-1.18524
90.8295
113.856
128.221
133.073
-2.70496
-2.6534
-2.6905
-2.60893
-3.42334
-3.28511
-0.333864
-0.318103
16.7292
25.2122
31.6824
91.9071
-2.81189
-2.82057
2199.68
1883.17
2282.27
652.842
-3.32766
-3.33235
-1.85932
-3.1738
-2.89561
-2.87563
20.0483
18.8091
19.2796
13.3095
-0.7218
-0.764952
-0.701508
-0.757092
-3.93041
-2.65023
-3.94952
-2.60146
0.134143
0.128073
-0.194573
-0.187135
88.6367
79.7661
97.5904
96.2177
-0.194765
-0.187178
0.39796
0.391036
0.803011
0.703541
-2.8949
-2.89547
-1.3281
-1.424
994.561
1319.74
1067.81
1288.41
-0.257624
-0.271921
2857.1
2850.08
2849.34
2859.63
-0.47542
190.352
145.8
137.869
2.36976
1.89819
-1.48577
-1.42908
-1.27021
-1.29293
25.1909
28.2733
28.4557
36.9226
1.04828
0.994905
6.09824
5.54572
-1.68061
-1.66552
-0.154887
-0.167785
-1.17078
-0.932957
355.037
344.889
389.332
389.74
352.844
369.163
376.994
396.362
-0.154924
-0.167815
-0.0948632
-0.082252
-2.19226
-2.14826
0.0512692
0.0669305
0.0494349
-2.66248
-2.73168
-2.69458
-2.6103
-2.52577
-2.58664
-3.83771
-3.48156
-2.59986
-2.69668
-2.63556
-2.77494
102.42
176.633
44.945
105.357
2770.59
2782.44
-3.33815
-3.36247
-3.04069
-3.02052
3.54057
0.70413
0.746576
0.225125
1442.05
37.1027
-0.169021
-0.141476
11.9303
20.4351
-1.0599
-1.12534
-2.94898
-3.11056
-2.94109
-2.56354
-3.30356
-3.416
10.8787
16.214
-2.45585
-2.68502
0.160164
0.155655
0.17596
0.167462
2841.87
2837.84
5.96206
2.83777
22.91
11.4443
-0.122573
-0.12858
0.263276
0.243314
12.6958
4.46397
242.003
171.153
0.277162
-1.5259
-4.40431
-4.74394
-5.30694
-5.87076
-0.974038
-0.677165
439.524
-1.69378
-1.96236
373.136
26.9385
26.9346
-3.83961
-3.90691
-4.18404
-3.97183
0.0669285
0.0832221
-0.0714932
-0.0793838
-0.0841737
-0.0919413
0.263654
0.243578
-0.226045
-0.265847
2797.45
717.283
682.096
754.417
-1.99284
-2.0396
1.05289
-0.597774
-2.6102
-2.41782
0.0426011
0.0504734
-0.475876
-0.467287
-0.431759
0.0424755
0.0504618
5.74886
1.0278
-0.00379646
-0.00920498
-2.60611
-2.62569
0.0549665
-0.825005
-0.918062
-0.805936
-0.970407
-0.996575
-0.295126
-0.296297
48.3617
49.6274
0.118311
-0.326724
-3.0672
-3.07076
-0.887433
-1.09279
-0.724925
-1.28941
-2.71283
-2.67083
-12.9286
-12.75
-1.72735
-1.70658
-10.8156
-11.1038
0.354628
0.346722
0.354431
0.348409
127.684
115.995
1.6346
3.7094
28.4466
35.4159
-1.89204
-1.89425
0.0999683
0.0937947
2.80451
6.6719
109.92
107.862
-2.68072
-2.73822
573.329
577.323
-0.956205
-1.01614
-0.843832
8.15871
178.97
209.201
-1.02485
4.5236
10.9195
16.287
24.0856
28.524
-2.00825
-2.04611
13.743
11.3688
14.4931
11.1583
-3.1758
-3.17795
-1.31471
-1.37448
-0.420003
-0.388852
129.942
84.9415
0.122529
0.116428
-0.0384422
-0.0423784
0.122596
0.116585
-0.112636
-0.141352
-0.196073
-0.146673
-3.10146
-3.12567
-3.04561
-3.12609
-1.06028
-0.753983
0.129246
0.135118
-1.08764
-0.803706
-0.592069
-0.75526
-0.668688
-0.852323
-3.04393
-3.04331
-0.92547