/*--------------------------------*- C++ -*----------------------------------*\
| =========                 |                                                 |
| \\      /  F ield         | OpenFOAM: The Open Source CFD Toolbox           |
|  \\    /   O peration     | Version:  v2012                                 |
|   \\  /    A nd           | Website:  www.openfoam.com                      |
|    \\/     M anipulation  |                                                 |
\*---------------------------------------------------------------------------*/
FoamFile
{
    version     2.0;
    format      ascii;
    class       surfaceScalarField;
    location    "0.25";
    object      phi;
}
// * * * * * * * * * * * * * * * * * * * * * * * * * * * * * * * * * * * * * //

dimensions      [0 3 -1 0 0 0 0];
oriented        oriented;


internalField   nonuniform List<scalar> 
49400
(
-5.66053e-06
1.00043e-08
5.616e-06
3.45282e-08
1.30569e-05
3.59762e-06
-2.23151e-05
1.28638e-05
2.03162e-07
-3.42029e-06
1.73171e-05
-8.28084e-06
2.02282e-05
-2.00509e-05
-2.07693e-05
5.09502e-05
-3.37937e-07
8.08863e-06
1.95867e-05
-4.99904e-05
-1.57677e-07
-6.21857e-07
-1.22892e-05
2.40608e-07
1.21408e-05
-9.22375e-08
2.62932e-05
1.1554e-05
-5.01363e-05
2.59119e-05
-1.31227e-05
1.50572e-06
2.37577e-05
-1.32635e-05
4.86371e-08
2.94622e-05
-3.11718e-05
5.68798e-05
-2.6826e-05
4.35657e-07
2.63991e-05
-8.73119e-09
9.18453e-06
1.56161e-05
-5.16267e-05
4.86386e-07
9.1338e-06
4.11617e-05
2.27374e-05
-4.82829e-05
1.73178e-05
5.02429e-05
7.67475e-06
-7.39388e-06
2.05511e-07
-3.6989e-06
2.05074e-05
6.23178e-06
9.11173e-06
1.98507e-05
8.84929e-06
4.67953e-07
-2.00234e-05
4.93802e-05
2.95225e-07
-7.9001e-07
1.09891e-05
-4.24132e-06
-5.95781e-06
1.66657e-05
-6.65138e-06
-1.08043e-05
-1.19827e-05
-1.76904e-05
-4.1385e-06
-7.57949e-07
6.55139e-07
7.99061e-07
-1.15889e-05
-1.01439e-05
-2.59675e-06
-2.70353e-05
3.40981e-06
3.31837e-06
3.2211e-06
-9.94928e-06
3.81877e-07
3.78472e-06
-7.56782e-07
3.17306e-06
5.2718e-07
-3.00739e-06
-3.17177e-06
9.35222e-06
-3.98642e-06
1.50621e-06
-1.42563e-06
2.03857e-06
-2.19095e-06
8.55293e-06
2.67826e-07
-8.15213e-06
-6.68622e-07
-1.01218e-05
-7.47093e-06
2.61457e-05
-1.06389e-05
7.84909e-07
8.66206e-06
7.33536e-06
-2.41495e-05
1.01451e-05
-2.15164e-06
-5.70307e-06
8.37721e-06
-9.00664e-06
1.5367e-07
7.55792e-06
-7.82892e-06
1.17326e-07
5.89931e-06
-6.74365e-06
9.98011e-07
-4.13175e-06
1.7589e-05
1.09398e-05
4.01226e-06
-2.16957e-05
7.42532e-06
4.51245e-06
7.61815e-06
-1.14348e-05
1.09117e-05
-1.17633e-05
-1.19604e-05
-5.77064e-06
2.94944e-05
-9.83693e-06
-1.65384e-05
1.46121e-05
-2.40005e-05
2.20308e-06
8.31036e-06
1.13211e-05
-3.61698e-05
2.16421e-05
1.28036e-06
4.34606e-06
-1.70255e-05
2.02175e-05
1.2333e-06
-1.96111e-06
-1.09359e-06
1.8214e-06
-3.4024e-06
1.59102e-06
3.04468e-06
5.46121e-07
-5.90964e-06
3.52759e-06
-1.85372e-06
-2.76745e-06
-3.88644e-07
5.73764e-06
-2.40326e-06
3.60563e-06
-3.71086e-06
-2.91231e-07
-3.9622e-07
5.1833e-07
1.69121e-07
-8.47316e-07
9.27295e-07
-3.7121e-07
5.003e-07
-1.74384e-06
-1.31862e-06
-1.47503e-07
2.39342e-06
-7.44017e-07
-9.45811e-07
5.61274e-07
-8.04991e-07
9.32102e-07
-7.27616e-06
-1.2038e-05
-8.597e-06
2.79112e-05
4.07871e-07
-6.46874e-06
-1.21529e-06
-1.42524e-05
2.62226e-06
7.60036e-06
3.74308e-06
-1.78122e-05
9.26288e-06
-2.87781e-06
-1.21368e-05
1.28027e-05
-2.26462e-05
1.43428e-06
-8.70682e-07
-2.04795e-06
1.48435e-06
-1.422e-06
1.66038e-06
1.1959e-06
1.93522e-07
-2.4862e-06
2.81598e-06
3.7318e-07
-5.23711e-06
1.08051e-06
3.21982e-06
-1.21102e-06
3.95191e-06
-6.44319e-07
-2.62111e-06
-1.44297e-06
-3.27952e-07
4.39203e-06
6.22429e-07
-1.38438e-06
-1.85915e-06
-1.49494e-06
6.74392e-07
2.82531e-06
2.14497e-07
-4.53474e-06
1.15212e-06
2.34758e-06
2.0481e-06
-3.21799e-06
2.87228e-06
1.83503e-06
2.85777e-06
-1.87519e-06
-2.81762e-06
9.79964e-07
-5.22376e-06
6.07883e-06
-5.6768e-06
9.51454e-06
-6.87623e-07
4.3259e-06
-5.51347e-06
4.80926e-06
-8.3145e-06
-8.4417e-07
4.29662e-07
-2.19507e-06
-1.81949e-06
5.06029e-06
1.07809e-05
-1.40217e-05
6.02953e-06
9.08653e-06
-1.69355e-05
4.97122e-06
6.1186e-06
2.08731e-06
-1.36828e-05
1.65667e-05
-1.19595e-05
2.01654e-05
3.45255e-06
-8.04883e-06
2.274e-06
1.40265e-06
-9.56391e-08
-1.47165e-06
1.6464e-07
-3.77323e-06
-1.10192e-06
6.2778e-06
-6.02476e-08
-3.80862e-06
-6.57392e-06
6.1117e-06
4.01981e-07
5.11782e-06
-1.55004e-05
1.19766e-06
2.44851e-06
6.20744e-06
4.07142e-07
2.20601e-06
5.7437e-06
8.70878e-07
1.42275e-05
2.54655e-06
7.51374e-10
-2.47236e-06
-7.49428e-08
-2.69548e-06
-1.9686e-06
7.21063e-06
1.9376e-08
-2.71411e-06
-3.59489e-06
3.28643e-06
3.27839e-07
2.83136e-06
-9.14036e-06
-1.11577e-06
2.4336e-06
-7.56776e-07
1.08289e-06
9.9482e-06
-2.80812e-06
-8.22296e-06
9.50766e-06
-5.99116e-06
-7.65169e-06
-7.53936e-06
-1.87274e-07
-1.11043e-05
2.68551e-06
2.94171e-06
2.46278e-06
-8.09001e-06
-3.23971e-07
2.673e-06
3.36484e-07
3.59805e-06
-9.80313e-07
-2.92923e-06
-2.38505e-06
7.98728e-06
-3.65991e-06
1.06716e-06
2.39525e-06
-3.59238e-06
3.60826e-06
9.95923e-07
-1.59776e-06
-9.57231e-07
1.55907e-06
-2.96588e-06
9.5036e-07
3.01144e-06
-1.45462e-07
-4.41818e-06
3.43007e-06
-1.30086e-06
-3.08645e-06
-1.09543e-07
5.09869e-06
-2.27499e-06
3.1158e-06
-3.72131e-06
9.8133e-06
-5.08732e-07
-1.07204e-05
1.41586e-06
-8.29806e-06
-7.59439e-06
2.57058e-05
-9.27225e-07
-7.87957e-06
-8.13119e-06
1.00388e-05
-2.83479e-06
7.46871e-06
-2.34795e-05
-5.48694e-06
7.9313e-06
-8.73866e-06
3.37924e-06
4.24372e-06
3.53744e-06
-1.11604e-05
1.59724e-06
6.32849e-06
-4.5465e-06
8.08655e-07
5.03231e-06
5.003e-06
-4.62693e-06
4.32585e-07
-5.22462e-06
1.52599e-05
-2.32998e-06
3.43385e-06
-3.41947e-06
4.57132e-06
-6.98468e-06
-4.56655e-06
6.97991e-06
-1.44769e-05
5.65058e-06
1.33976e-05
1.08179e-06
-2.25433e-05
1.18777e-05
-4.83106e-06
-1.16132e-05
-5.34294e-07
1.93919e-05
-8.53814e-06
1.36544e-05
-1.22874e-05
-5.86734e-06
-5.01976e-06
5.90456e-06
4.98254e-06
1.23639e-06
1.02078e-05
-1.73115e-05
1.13589e-05
-1.51422e-05
-1.52249e-06
-1.11547e-05
1.85818e-05
-1.19928e-05
1.54528e-05
2.30612e-06
-4.09112e-06
2.51025e-06
-1.55129e-05
-8.25295e-06
6.60931e-07
2.31049e-05
5.88672e-06
-3.60919e-06
-1.77904e-05
-7.69825e-06
5.33202e-06
1.58849e-05
-1.25072e-06
-2.23324e-05
5.31019e-06
1.59067e-05
1.05971e-05
-1.54571e-05
1.65683e-05
-6.9598e-07
-6.10322e-06
-9.60346e-06
1.64027e-05
-5.42035e-06
-9.65811e-06
1.43825e-05
-5.98971e-06
-5.53386e-06
5.88793e-07
1.23518e-05
-1.89303e-05
1.28565e-05
-1.78015e-05
3.48385e-07
2.34527e-06
3.60139e-06
-1.44321e-05
-1.36481e-06
1.12388e-05
4.55804e-06
8.85311e-06
8.87186e-06
-3.2157e-05
-1.15148e-06
8.63977e-06
9.13823e-06
-7.40382e-06
-2.88589e-06
-4.39188e-06
2.21699e-05
5.95799e-06
-4.48995e-06
1.2805e-05
9.2841e-06
1.08865e-05
7.29299e-06
-2.74636e-05
-5.95302e-07
9.40505e-06
4.74352e-07
1.17279e-05
-1.43677e-06
-1.14207e-05
-7.36655e-06
2.81923e-05
-1.17896e-05
8.43241e-07
8.70844e-06
-1.3205e-05
1.30698e-05
-1.23493e-05
-1.55174e-05
-9.31242e-06
3.71791e-05
-1.62273e-07
-4.26755e-08
-1.21444e-05
-1.50709e-05
-6.0868e-07
-1.49534e-05
1.51185e-05
-2.07756e-07
9.1926e-06
-3.62904e-05
1.15549e-05
-1.74333e-05
1.7361e-05
-6.01842e-06
7.54802e-07
6.33108e-06
-1.06747e-06
8.86838e-06
3.26535e-06
-1.81521e-05
7.26145e-06
2.36172e-06
-8.37779e-06
-2.49773e-06
1.72066e-05
-6.30357e-06
-3.14169e-06
7.27061e-06
-1.03088e-05
1.20343e-05
-1.39614e-05
-1.78269e-05
-1.04881e-05
4.22764e-05
-2.46437e-07
-1.3948e-05
2.33122e-07
-1.91554e-05
1.08211e-06
1.75552e-05
1.15957e-05
-4.30989e-05
1.94715e-05
-1.68313e-06
1.62048e-05
-2.37646e-05
2.51882e-05
-2.41683e-05
-1.11312e-05
1.00499e-05
2.52497e-05
1.31584e-05
5.10572e-06
-4.24325e-05
-8.80279e-06
1.083e-05
2.27253e-05
-1.3504e-05
-1.80241e-05
-1.47669e-06
3.5032e-05
1.49438e-05
-2.33421e-05
2.3517e-05
-5.17538e-06
7.63818e-06
5.19697e-06
-7.65976e-06
1.62319e-05
-5.95281e-06
-1.54544e-05
-7.88851e-07
2.46589e-05
-1.37974e-05
5.71589e-06
1.32785e-05
8.61915e-07
-2.23191e-05
9.98579e-06
-1.50767e-05
1.49128e-05
-1.2884e-05
-4.97471e-06
1.23098e-05
5.54885e-06
1.04876e-05
1.32321e-05
-3.66037e-05
1.57375e-05
-1.02246e-05
-9.71813e-06
-1.43812e-05
3.64092e-05
-1.80758e-05
1.39065e-05
8.42629e-06
-1.327e-05
9.78255e-06
-1.33065e-05
-1.08007e-05
-1.59911e-05
4.00983e-05
-4.40483e-06
2.26357e-06
-1.11652e-05
-1.39627e-05
-1.2428e-06
-1.87547e-05
5.02714e-06
-1.97139e-06
-2.79485e-05
-1.0907e-05
4.66406e-07
9.4238e-07
3.63773e-07
-1.77256e-06
6.24515e-07
-8.1868e-07
6.60571e-07
-7.89183e-07
2.35608e-06
-2.10402e-06
1.64911e-06
6.11623e-06
-9.99281e-06
6.97616e-06
1.11494e-05
3.6505e-06
-6.98997e-06
-7.80989e-06
-4.75349e-06
1.85041e-07
1.57178e-05
-6.11248e-06
5.00949e-06
1.26829e-05
5.1767e-08
-1.88471e-05
4.48884e-06
1.32035e-05
-1.09568e-05
1.56306e-05
-1.7895e-05
-7.37853e-07
-6.22909e-06
-1.31359e-05
2.01029e-05
-5.72755e-06
-1.3801e-05
1.87907e-05
-6.82981e-06
-5.12683e-06
1.38231e-06
9.43909e-06
-1.76512e-05
9.459e-06
3.45564e-07
-4.7075e-06
-3.33136e-06
6.86338e-06
1.52853e-05
-2.68964e-06
-1.9459e-05
6.98885e-06
-7.0093e-06
6.88383e-06
2.60032e-06
1.96738e-05
1.71468e-05
-3.04584e-06
-2.11103e-05
2.49512e-06
2.15355e-05
-1.06746e-05
1.57701e-05
-1.64101e-05
-6.29681e-06
7.28567e-06
5.90353e-06
-6.89238e-06
1.74189e-05
-1.21153e-06
-2.25042e-05
2.77768e-06
2.19269e-05
-1.6198e-05
3.93523e-06
1.81662e-05
-4.0913e-06
-1.8999e-05
1.2449e-05
-1.77518e-05
1.91619e-05
1.51623e-05
6.13313e-06
2.90525e-06
-2.42006e-05
-6.13267e-06
3.94633e-06
1.73486e-05
-4.78672e-06
4.78717e-06
1.04914e-05
-4.71422e-06
-1.05639e-05
1.02439e-06
1.42542e-05
-7.41292e-06
1.23836e-05
-9.22188e-06
-4.8399e-06
6.10876e-06
3.67583e-06
-4.9447e-06
1.00203e-05
1.53202e-06
-1.63922e-05
1.48735e-06
1.46417e-05
-1.1791e-05
1.37866e-07
1.5329e-05
-4.74797e-06
-1.19877e-05
4.85863e-06
-8.07458e-06
6.48384e-06
4.84106e-06
1.11719e-05
-1.94717e-06
-1.40658e-05
4.27477e-06
-5.38278e-06
5.94907e-06
2.30541e-06
1.31412e-05
1.47556e-05
-1.89578e-06
-1.82426e-05
2.0241e-06
1.86806e-05
-8.58978e-06
1.29193e-05
-1.24327e-05
-3.89581e-07
-1.24566e-05
1.72423e-09
1.28445e-05
-1.98243e-05
1.99238e-05
-4.89046e-07
1.03939e-05
-4.26748e-05
1.58343e-05
-1.50793e-05
-7.53284e-07
-4.64869e-06
3.33275e-05
-2.08217e-05
3.60969e-05
-2.55071e-05
-4.98035e-06
-5.57401e-06
-6.37963e-06
1.6934e-05
-1.61273e-06
-9.29456e-06
5.92693e-06
-5.19321e-06
-1.99352e-06
3.60547e-06
6.83321e-06
-1.56319e-05
8.60945e-06
-6.99749e-06
3.99315e-06
-6.4545e-06
6.22297e-06
-6.14734e-07
1.98397e-06
3.99922e-06
-5.36845e-06
2.69089e-06
4.3265e-06
-7.63213e-06
2.12998e-06
2.54488e-06
3.89197e-07
-4.62418e-06
6.36496e-06
-4.72112e-06
7.6552e-06
-3.57327e-07
5.96554e-08
-1.07923e-06
-5.04299e-06
-1.84276e-06
9.37859e-07
5.94789e-06
2.03912e-06
-8.6273e-07
-6.21938e-06
-1.82378e-06
2.02014e-06
4.65178e-06
-1.0665e-06
-5.40906e-06
6.99493e-07
5.97243e-06
3.58984e-06
-5.51907e-06
5.2272e-06
3.93662e-06
-1.56447e-06
1.71538e-06
-4.08753e-06
-7.22674e-06
-1.37176e-06
1.25351e-05
-4.06776e-06
-4.72345e-06
-6.90068e-06
3.57797e-06
5.0381e-06
1.04676e-06
-1.2035e-05
-5.26322e-06
7.46943e-06
-8.28422e-06
8.55887e-07
4.91046e-06
-3.6957e-06
-2.07065e-06
3.75248e-06
1.01518e-06
-3.91177e-06
-1.80248e-06
1.04654e-05
-6.49847e-06
4.20431e-06
3.30934e-06
2.74035e-06
-1.31506e-05
-3.40094e-06
5.80276e-06
-4.35629e-06
4.12772e-06
3.35279e-06
3.36898e-06
-1.08495e-05
2.40814e-07
4.57698e-06
-6.90076e-07
3.27974e-06
3.13871e-07
-3.27318e-06
-2.50996e-06
9.06288e-06
-3.83654e-06
8.77229e-07
-2.61178e-06
4.67881e-06
-3.07934e-06
3.19156e-06
1.3343e-07
-2.95106e-06
-3.73936e-07
-3.11542e-06
-1.49093e-06
7.79791e-06
2.29561e-07
-3.21155e-06
-5.14714e-06
4.39141e-06
9.85293e-07
3.02309e-06
-1.13818e-05
-2.93601e-06
5.83649e-06
-2.86397e-06
-2.1812e-07
3.50033e-06
-3.92961e-06
6.47401e-07
2.84557e-06
-2.89273e-06
-1.70958e-07
-3.18141e-06
9.52731e-06
2.68726e-06
2.21792e-06
2.87104e-06
-3.54738e-07
-1.47662e-06
1.16626e-06
-3.18831e-06
3.50228e-07
-3.10604e-06
3.84805e-06
-1.09224e-06
-2.82836e-06
3.98384e-07
2.78021e-06
3.32764e-06
-9.26204e-06
2.39393e-06
-3.03216e-06
1.03662e-06
-2.3874e-06
7.56154e-06
-1.22166e-06
2.68231e-06
-9.26173e-07
-2.66855e-06
-3.15497e-07
3.22012e-07
2.66203e-06
2.92212e-06
2.4307e-06
-8.02136e-06
3.5699e-06
-9.63278e-07
2.93143e-06
-3.63383e-06
1.02441e-06
-2.35972e-06
7.95319e-06
2.3845e-06
-3.58763e-06
3.59467e-06
-2.11769e-06
7.31286e-07
2.15195e-06
-7.65551e-07
3.79175e-06
7.07622e-07
-6.61706e-06
2.06175e-06
2.4613e-06
-3.39437e-06
-5.9627e-07
6.14259e-06
-1.89904e-06
-2.26088e-06
2.6671e-06
-3.85851e-06
4.13257e-06
-6.17064e-07
1.44364e-06
6.82226e-07
-1.5088e-06
2.61604e-06
-1.37472e-06
-1.85839e-06
-3.18735e-07
4.37842e-06
-2.83589e-06
1.15437e-06
2.36375e-06
2.06871e-07
-4.55156e-06
2.0506e-06
-3.21844e-06
2.88623e-06
-1.41621e-06
2.19114e-07
1.32916e-06
-1.32065e-07
1.98384e-06
1.61289e-06
-5.01294e-06
1.83572e-06
3.67235e-07
-1.48081e-06
-9.49072e-07
3.75905e-06
-1.61916e-06
6.28238e-09
8.95777e-07
-9.02043e-07
1.78242e-06
1.17503e-05
2.97885e-08
-1.16061e-05
-1.74062e-07
-1.37079e-05
-9.93372e-06
3.5392e-05
-1.39489e-05
2.70794e-07
1.33377e-05
9.77584e-06
-3.47196e-05
1.37969e-05
-6.33269e-07
-7.95774e-06
1.1821e-05
-1.21308e-05
-1.5867e-07
-6.05549e-06
-5.82569e-06
1.20398e-05
-2.65414e-06
-2.93599e-06
5.43146e-06
-2.21465e-06
-6.49498e-06
-1.00235e-05
6.70366e-06
1.1052e-06
3.57318e-06
-2.00917e-05
1.09034e-06
-4.53145e-07
1.96831e-06
-2.98775e-06
1.12561e-05
-1.31201e-05
4.85171e-06
1.47544e-05
-2.69834e-06
-1.50438e-05
-1.27692e-05
3.87797e-05
-1.86431e-05
1.77644e-05
-1.81963e-06
1.43937e-05
-4.80807e-05
-5.69978e-06
1.0695e-05
-4.42619e-06
7.32769e-08
1.34901e-05
2.56549e-05
-3.92183e-05
9.52458e-06
2.47874e-05
-3.42387e-05
1.12006e-05
1.18141e-05
2.24605e-06
-1.15701e-05
2.05247e-05
-2.37002e-05
3.77603e-05
-1.89866e-06
1.51159e-05
5.6035e-08
1.02522e-05
3.73698e-06
1.07027e-05
-2.46918e-05
-1.70802e-05
1.16557e-05
1.56766e-05
2.20251e-05
-3.53683e-05
7.23626e-06
-7.32121e-06
1.17406e-05
-7.48523e-06
3.03981e-05
1.27071e-05
-1.36784e-05
-6.34991e-06
-1.75327e-05
2.27546e-05
-3.31793e-05
3.76717e-05
-3.61551e-05
2.45849e-07
5.14486e-06
-2.07468e-05
5.13907e-05
7.15269e-06
1.38233e-06
-5.28218e-06
-1.73574e-06
5.6356e-06
-5.97039e-06
-1.05607e-06
8.40879e-06
-3.91797e-06
-7.3346e-06
1.07203e-05
-4.97862e-06
-7.47741e-06
-3.81324e-06
2.01691e-05
-5.99372e-06
1.12442e-06
-1.48903e-05
2.38281e-06
1.34659e-05
6.7987e-06
-2.26474e-05
4.93537e-06
-1.74429e-05
1.10667e-05
-1.66796e-05
-8.75646e-06
-8.34078e-07
8.11717e-07
2.37726e-06
-2.3549e-06
1.11727e-06
1.91633e-06
-3.86768e-06
9.93297e-07
9.35687e-07
3.0025e-06
-2.51724e-06
5.08036e-07
-2.62509e-06
6.56327e-06
3.72161e-08
-6.3812e-07
-2.10612e-07
-1.75715e-06
6.37425e-06
3.31293e-06
-7.93003e-06
1.40002e-05
-1.23866e-05
-3.37074e-06
-3.29186e-06
2.36663e-05
-1.31746e-05
8.09781e-06
8.38974e-06
5.81926e-06
-2.69239e-05
1.22744e-05
-1.88417e-05
1.70803e-05
6.51286e-06
1.75976e-06
-7.00293e-06
-1.26969e-06
-6.24622e-06
-6.73948e-06
1.94986e-05
-1.00801e-05
5.59361e-06
7.50356e-06
7.29342e-06
-2.17999e-05
9.7098e-06
-3.47593e-06
-6.14664e-06
9.11696e-06
-8.93329e-06
7.27583e-06
7.12655e-07
-7.57684e-06
-4.11644e-07
-6.61367e-06
-6.29111e-06
2.01806e-05
-8.18705e-06
2.28604e-06
9.1547e-06
9.05142e-06
-2.5783e-05
9.97467e-06
-1.23162e-06
-3.13379e-06
6.81735e-06
-2.26942e-06
2.04546e-06
-5.48627e-06
-2.30884e-06
5.74964e-06
-9.27806e-06
4.67901e-06
6.64451e-06
1.01227e-06
-1.57766e-05
1.00199e-05
-4.74717e-06
-7.58158e-06
-1.42444e-06
1.7194e-05
-7.15692e-06
1.04115e-05
-1.08918e-05
-6.52528e-06
-3.9601e-06
-1.11062e-06
1.1596e-05
1.85392e-06
-3.75293e-06
-4.62627e-06
-4.19593e-06
2.08976e-06
7.62416e-06
1.96926e-06
-1.37894e-05
3.81504e-06
5.89888e-06
4.63005e-06
-6.41372e-06
7.33448e-06
9.26787e-07
-2.80888e-06
-8.99288e-07
2.78138e-06
-4.86697e-06
2.43432e-06
3.35944e-06
1.39888e-06
-9.07473e-06
4.01203e-06
-2.34034e-06
-2.57097e-06
-1.16348e-06
7.95689e-06
-2.30701e-06
3.57785e-06
-3.24847e-06
-8.74429e-06
-4.46999e-06
-5.59836e-07
1.37741e-05
2.36156e-06
-4.35182e-06
-6.75403e-06
-4.67344e-06
2.56501e-06
9.18862e-06
3.38095e-07
-1.42002e-05
3.83445e-06
7.91918e-06
7.23184e-06
-1.12456e-05
1.05065e-05
-4.19751e-06
-5.7284e-06
-3.06212e-06
1.2988e-05
-2.18217e-07
-4.31707e-06
3.37785e-07
-5.93021e-06
-1.64018e-08
1.20794e-05
1.11235e-05
-2.91332e-05
1.0705e-05
1.35803e-06
-2.1306e-06
9.77348e-06
4.67587e-06
-4.29197e-07
4.01371e-06
-4.84187e-06
1.25736e-06
3.44831e-06
-3.53477e-06
-3.42736e-07
-2.13737e-06
9.59939e-06
4.87136e-06
2.92873e-06
-1.13349e-05
5.46308e-06
-9.34455e-07
5.33488e-06
-7.24802e-06
8.66058e-06
-2.18466e-06
-1.74083e-06
-1.01073e-06
4.93622e-06
2.44016e-07
-1.65912e-06
-7.69552e-07
-1.69286e-06
1.9605e-07
2.45908e-06
1.13958e-06
-5.29152e-06
1.95318e-06
7.01944e-07
1.43661e-06
-1.95615e-06
2.37906e-06
-2.31413e-06
-1.49455e-06
-1.11243e-06
4.92111e-06
2.64556e-07
-1.55538e-06
-1.02331e-06
-1.43507e-06
2.05076e-07
1.71775e-06
5.93678e-07
-3.7465e-06
1.27471e-06
6.48117e-07
1.15546e-06
-2.11715e-06
1.31774e-06
4.22519e-06
-1.63603e-06
-3.92347e-06
1.33432e-06
-8.62677e-06
-2.09909e-06
1.49511e-05
-3.63346e-06
-6.62934e-06
5.68296e-06
6.05304e-07
-1.02117e-05
2.96646e-06
4.05082e-06
-4.54625e-06
5.41361e-06
-7.57441e-06
1.08926e-06
-2.07262e-05
1.84169e-05
1.21999e-06
-1.5411e-05
1.57831e-05
7.17126e-07
8.59189e-06
-4.4729e-05
-1.94546e-05
-1.03496e-05
4.55873e-05
-1.83612e-05
-3.76248e-07
-1.82905e-05
2.63578e-05
-2.80598e-05
-1.35516e-05
7.71409e-07
1.80005e-05
-5.22033e-06
1.46739e-05
1.12126e-05
-3.94381e-05
-1.00915e-06
1.64545e-05
1.94246e-05
-2.31149e-05
2.68117e-06
-1.74036e-05
5.32827e-05
1.02594e-05
-2.21617e-05
1.08563e-05
-1.97363e-05
-1.55773e-05
-9.24401e-06
4.45576e-05
2.94032e-06
-1.62236e-05
-6.45305e-06
3.23184e-06
-1.58688e-05
-2.52421e-05
1.87263e-05
9.74769e-06
1.12464e-05
-5.23573e-05
1.3624e-05
-1.86012e-05
2.31062e-05
1.05886e-05
1.0724e-05
-2.00714e-05
-1.24127e-06
1.39322e-05
-8.06812e-06
4.72458e-06
-2.75024e-06
2.74064e-05
2.02656e-06
-1.10666e-05
9.71928e-07
1.88806e-05
-1.21295e-05
4.94665e-06
1.11837e-05
-2.61913e-05
-1.1789e-05
-1.82791e-05
-1.82373e-05
4.83053e-05
-1.16855e-05
-1.82466e-05
1.81431e-05
-1.40785e-05
-1.58861e-05
-5.38194e-06
2.01074e-05
-2.8804e-05
2.37355e-05
-4.50035e-05
3.2417e-06
2.24719e-06
5.11184e-06
6.63661e-06
9.11852e-06
-6.55782e-06
-9.19731e-06
3.13184e-06
-1.41036e-05
1.76084e-05
-1.27016e-05
2.49519e-05
-4.25439e-06
1.91859e-05
-2.14893e-05
1.61601e-05
-2.96118e-05
4.25217e-06
-2.19567e-06
1.07365e-05
-2.73157e-06
-7.8478e-06
4.13569e-06
6.44367e-06
-7.34339e-06
1.04421e-05
-5.83025e-06
9.08105e-06
-2.42722e-05
4.63232e-06
-1.30091e-05
1.25125e-05
-8.35092e-06
1.94269e-05
-7.33284e-06
9.42399e-06
-1.12609e-05
-2.68687e-06
1.14601e-05
1.55839e-06
-1.03316e-05
1.56195e-05
-1.37688e-05
-4.5375e-06
-8.3333e-06
3.54129e-05
-1.24253e-05
1.29874e-05
9.96354e-07
7.94504e-06
-3.0702e-05
8.3024e-06
-1.41262e-05
1.29565e-05
-1.65664e-05
-5.18039e-07
1.6858e-05
2.26469e-07
1.38454e-05
1.00575e-05
-4.04693e-05
-7.32245e-07
1.40596e-05
1.87825e-05
-1.81344e-05
-1.38042e-06
-1.05469e-05
4.3389e-05
1.45025e-05
-2.25793e-05
2.08136e-05
1.94369e-07
-1.87479e-05
1.93551e-05
-8.01532e-07
-1.52061e-05
1.53071e-05
9.33369e-08
1.15279e-05
-4.54818e-05
-1.91224e-05
-1.15311e-05
4.59606e-05
-1.93617e-05
3.32643e-07
-1.55377e-05
2.33617e-05
-2.33716e-05
-6.61256e-06
2.7746e-07
6.37385e-06
-3.87462e-08
5.5168e-06
3.9176e-06
-1.6047e-05
1.42681e-07
5.65158e-06
7.18647e-06
-6.76409e-06
-2.79701e-07
-4.23597e-06
1.7074e-05
5.23374e-06
-8.08023e-06
7.37162e-06
5.70905e-06
-1.74959e-06
-8.97234e-06
5.01288e-06
-6.33672e-06
-6.42027e-06
1.8466e-05
-6.55064e-06
-1.53567e-06
6.589e-06
6.03469e-06
-1.91743e-05
8.70413e-06
-3.65079e-06
-5.26152e-06
7.54537e-06
-8.19916e-06
-6.43703e-06
-1.78574e-06
2.66598e-06
5.55679e-06
3.96847e-06
6.877e-07
-1.10932e-05
-1.79406e-06
3.97679e-06
7.08287e-06
-3.18226e-06
-5.69467e-06
-1.31718e-06
1.23768e-05
3.78636e-06
-6.28092e-06
5.13516e-06
-8.86371e-06
-1.79647e-07
7.82489e-06
1.21847e-06
8.50596e-06
6.10011e-06
-2.34698e-05
8.07314e-06
2.53175e-07
-1.2958e-05
-1.12624e-05
3.20453e-05
-1.43373e-05
2.59776e-06
6.29365e-06
-1.45309e-05
3.10436e-06
1.50954e-06
1.19344e-05
-1.31908e-05
7.7929e-06
-9.81575e-06
3.53239e-06
2.28317e-05
1.85727e-05
-5.52333e-05
-5.77388e-06
6.54345e-06
6.60264e-07
-7.20671e-06
3.00057e-09
-5.72063e-06
-2.40387e-06
1.46679e-05
-6.44866e-06
1.3883e-06
1.60744e-05
1.54869e-05
-3.8768e-05
1.51513e-05
9.261e-07
-7.08601e-06
1.98334e-05
1.95228e-06
8.377e-06
1.80291e-06
-8.79161e-06
-6.08822e-06
-1.08379e-05
9.2065e-06
3.43428e-06
-1.76772e-05
2.29517e-05
-1.30027e-05
-4.6938e-06
-9.45474e-06
2.71512e-05
-3.19858e-07
-1.55373e-05
2.85448e-06
2.35541e-05
-2.93179e-05
2.70874e-05
-1.24105e-06
2.0924e-08
1.31197e-06
-9.18454e-08
1.23086e-06
6.48879e-07
-3.1208e-06
1.12706e-06
1.24727e-07
-1.78682e-06
-1.22679e-06
4.32559e-06
-1.38787e-06
-4.90799e-07
6.54615e-07
-1.3936e-06
5.54882e-07
-6.65621e-08
1.02547e-06
-6.21059e-07
-3.37851e-07
1.02538e-06
-7.85541e-07
-3.064e-07
-5.26346e-07
2.5772e-06
-1.61105e-06
9.57473e-07
3.25202e-08
1.25572e-06
-3.20462e-06
-1.81421e-07
3.53353e-07
5.47952e-07
2.5413e-06
-1.39473e-06
-2.23698e-06
1.09041e-06
-4.53876e-06
3.4001e-07
6.74005e-06
-1.637e-06
-4.29649e-06
4.44356e-06
-5.39832e-08
-6.62656e-06
2.08497e-06
3.449e-06
-3.92253e-06
6.34751e-06
-5.61351e-06
-2.33002e-06
-9.27939e-07
-2.77422e-06
6.03217e-06
1.65926e-06
-1.80162e-06
-2.18765e-06
-3.56517e-06
-5.66847e-07
4.58371e-06
-5.81848e-06
3.71272e-06
-6.46722e-06
1.35735e-06
-1.20981e-06
3.16684e-06
-7.65973e-06
-1.47272e-05
2.32445e-07
2.21545e-05
-5.11395e-06
-8.02738e-06
5.4816e-06
-6.79851e-06
-1.30426e-05
1.75406e-05
1.83786e-06
-2.74059e-05
7.0034e-06
1.60188e-05
1.24777e-05
-1.74384e-05
1.97136e-05
5.17891e-06
1.00842e-05
6.60472e-08
-1.53291e-05
4.83326e-06
5.3768e-06
-5.03115e-06
3.2182e-06
1.16992e-05
-1.40265e-05
1.07058e-06
1.83327e-05
-4.06729e-06
-1.49903e-05
-8.40031e-06
1.26891e-05
-1.24015e-05
1.17155e-05
5.06004e-06
-1.29967e-05
-3.77886e-06
-1.04165e-05
-1.61601e-05
3.82921e-05
-2.2775e-05
1.74185e-05
1.17984e-05
1.52496e-05
-4.00446e-05
1.69134e-05
-8.89386e-06
-1.0274e-05
1.10273e-05
-1.77994e-05
-3.24041e-05
-7.69266e-06
1.76765e-05
2.24202e-05
1.84965e-05
6.66307e-06
-5.75636e-05
-6.37558e-06
1.71794e-05
2.76059e-05
-1.67572e-05
-1.72242e-05
-6.64777e-06
5.1433e-05
2.06747e-05
-3.07689e-05
3.17035e-05
5.21729e-07
-1.16919e-05
5.60877e-08
1.11141e-05
-1.78122e-05
1.58528e-05
2.48113e-06
1.24614e-05
-4.19655e-05
1.27e-05
-1.34854e-05
8.4155e-07
-8.0506e-06
3.18647e-05
-1.02448e-05
1.8047e-05
-1.12688e-05
1.95297e-05
-1.97337e-05
1.04554e-06
-2.4628e-05
7.60224e-05
2.10864e-05
-5.20888e-05
2.1075e-05
1.05687e-06
1.4494e-05
-9.93333e-06
4.10826e-06
1.63381e-05
-1.0513e-05
1.14404e-05
1.17614e-05
-3.31351e-05
1.11654e-05
4.38325e-06
-8.918e-06
-1.18739e-05
3.19573e-05
-1.51806e-05
1.06458e-05
8.20878e-06
-1.1628e-05
1.2673e-05
6.13567e-07
-6.00887e-06
-1.35839e-05
1.89792e-05
-6.16929e-06
-1.21652e-05
1.8948e-05
-5.94462e-06
-6.23354e-06
-1.16146e-06
1.15557e-05
-1.63388e-05
9.68021e-06
-1.70752e-05
-3.34865e-06
2.73914e-06
-7.25237e-06
-1.63798e-05
-6.78181e-06
3.24182e-06
1.99198e-05
6.54496e-06
-2.37789e-06
-2.05468e-05
-5.88589e-06
5.64904e-06
1.3903e-05
-4.62157e-06
-1.51673e-05
1.67629e-06
1.78758e-05
1.10045e-05
-1.8004e-05
1.59226e-05
1.75026e-06
-1.72747e-05
1.68762e-05
-1.35173e-06
-2.224e-05
2.05482e-05
3.44197e-06
1.47784e-05
-5.42931e-05
-2.07779e-05
-1.42723e-05
5.19264e-05
-2.03075e-05
-1.82215e-06
-1.09157e-05
1.71917e-05
-1.64448e-05
-4.43365e-06
-1.55409e-06
2.89803e-06
3.08972e-06
2.90434e-06
1.9241e-06
-9.26208e-06
-1.0964e-06
2.44664e-06
3.60215e-06
-3.81312e-06
-8.85424e-07
-1.75374e-06
7.80253e-06
1.92363e-06
-3.81266e-06
3.06791e-06
-1.67541e-05
-1.56794e-05
-1.17606e-05
4.41941e-05
-2.94044e-08
-1.55339e-05
-1.19083e-06
-1.55755e-05
-1.33248e-07
1.80721e-05
1.11891e-05
-4.48367e-05
1.84621e-05
-5.23214e-07
1.10015e-05
-1.53463e-05
1.77029e-05
1.39668e-05
5.28562e-07
-1.39745e-05
-5.20814e-07
-1.48989e-05
-1.16701e-05
4.05358e-05
-1.64404e-05
2.07001e-06
1.56135e-05
1.31356e-05
-4.27236e-05
1.74056e-05
-2.31286e-06
-8.93343e-06
1.46689e-05
-1.22382e-05
-1.1027e-05
-8.88465e-06
-5.26366e-06
2.51753e-05
1.01272e-06
-9.54101e-06
-2.49871e-06
-8.77386e-06
9.01933e-07
1.20083e-05
6.44232e-06
-2.72245e-05
1.07573e-05
2.15291e-06
8.30625e-06
-1.14049e-05
1.37999e-05
3.21687e-06
-7.99554e-06
-3.7167e-06
8.49537e-06
-1.40385e-05
5.64693e-06
1.16084e-05
8.86907e-07
-2.29209e-05
1.29469e-05
-5.5691e-06
-1.10945e-05
-2.49834e-06
2.39406e-05
-7.68925e-06
1.08378e-05
-1.23714e-05
-1.83082e-05
-5.13132e-07
1.58566e-05
2.96475e-06
1.85669e-05
1.37491e-05
-5.06242e-05
1.74286e-05
6.25131e-07
-2.42742e-05
-2.22378e-05
6.23686e-05
-2.79289e-05
6.61945e-06
1.256e-05
-2.67398e-05
7.7509e-06
4.22115e-06
2.4928e-05
-2.8524e-05
1.41104e-05
-1.82624e-05
8.37311e-06
4.67893e-05
4.06126e-05
-0.000119761
-4.38964e-06
-2.32233e-06
4.47281e-06
2.52893e-06
-4.67941e-06
8.74703e-06
-4.34338e-06
-6.72598e-06
-5.56305e-07
1.37761e-05
-9.15891e-06
3.85533e-06
7.83251e-06
4.2441e-07
-1.42627e-05
7.25939e-06
-1.11784e-05
1.05584e-05
-2.90604e-06
-2.04641e-06
2.82272e-06
2.12973e-06
5.58875e-07
4.74574e-06
-8.21065e-06
4.19887e-06
-5.6864e-06
-7.25728e-07
-5.71724e-06
9.26569e-06
-5.47597e-06
6.87997e-06
-7.37981e-07
7.74861e-09
-2.25635e-06
-2.00915e-06
-1.49365e-06
1.99959e-06
1.50322e-06
5.46933e-07
3.62286e-06
-6.17894e-06
3.67429e-06
-4.62101e-06
-5.92877e-07
-3.5928e-06
6.18526e-06
-3.71152e-06
4.62186e-06
1.69442e-07
-2.58101e-07
2.50931e-07
1.01653e-07
3.67079e-06
-3.49628e-06
-2.76169e-07
5.26848e-06
-5.38924e-06
2.22413e-07
-5.89084e-06
-7.12953e-06
1.44079e-06
-1.03263e-05
-4.8867e-06
-1.28031e-06
-1.05754e-05
-1.90467e-06
-2.71167e-06
-1.37554e-07
4.75389e-06
3.96295e-07
-1.15064e-06
-1.15033e-06
1.97613e-07
-2.51298e-06
2.32261e-06
-2.46183e-06
-1.01143e-06
-4.08559e-06
6.27065e-06
-5.16829e-06
-1.01431e-05
-5.45777e-06
-6.89343e-06
-3.05423e-06
-3.55387e-06
-1.09591e-05
-1.24537e-05
-1.02466e-05
-1.05148e-05
3.32152e-05
-3.51313e-07
-1.30027e-05
9.00271e-07
-1.00433e-05
-5.54652e-07
9.76396e-06
7.64506e-06
-2.74523e-05
1.06626e-05
-1.45327e-06
5.52963e-06
-1.08872e-05
5.67736e-06
4.51856e-07
-3.3457e-07
-2.45144e-06
2.33416e-06
-1.17832e-06
-1.74333e-06
3.37351e-06
-6.80052e-07
-8.32837e-07
-2.71021e-07
1.74872e-06
-2.15775e-06
1.76873e-06
-2.87259e-06
-5.97446e-07
6.02836e-07
-1.28016e-06
1.54635e-06
1.62963e-06
-1.6723e-06
-1.50368e-06
-6.11252e-08
-2.77571e-06
4.38318e-06
-3.07367e-06
4.64218e-06
2.48769e-07
2.76158e-06
-4.68265e-06
2.63889e-06
-3.8938e-06
-3.07341e-07
1.70522e-07
-6.19432e-07
3.24616e-06
5.85444e-06
1.43237e-06
-1.0533e-05
1.74222e-06
3.04748e-06
-1.54354e-06
3.02005e-06
4.57661e-06
-5.5752e-06
-8.53349e-07
9.47602e-06
-3.05289e-06
-4.06585e-06
-3.97653e-06
6.14323e-06
-5.59705e-06
-5.39487e-06
-8.99644e-06
-1.04208e-05
2.48121e-05
-3.38369e-06
-1.06245e-05
8.61336e-06
-9.01733e-06
-3.36279e-06
7.77534e-06
1.14503e-05
-2.8243e-05
1.35704e-05
-9.15787e-06
2.55082e-06
-1.72508e-06
5.70049e-06
1.88093e-06
6.44712e-06
-3.3074e-06
-5.02065e-06
4.71044e-06
-9.38211e-06
6.5526e-06
-6.5886e-06
1.77462e-05
-2.82758e-07
1.14207e-05
-1.44453e-05
9.3107e-06
-1.46141e-05
3.19403e-06
-3.26545e-06
8.02613e-06
1.13935e-05
1.20457e-05
1.31862e-05
-3.66254e-05
2.66998e-06
1.63327e-05
-7.6092e-06
1.16595e-05
3.05623e-06
-1.11358e-05
-1.27833e-05
3.55786e-05
-1.84262e-05
1.03466e-05
-9.22463e-06
1.27741e-05
-1.44647e-05
1.57174e-05
1.24765e-05
1.10646e-05
-3.92585e-05
9.36155e-07
1.69503e-05
-2.16907e-06
1.17702e-05
1.64245e-06
-1.37953e-05
-9.17691e-06
3.47424e-05
-1.66385e-05
4.4857e-06
-1.42712e-05
2.20447e-05
-1.98452e-05
-1.38559e-05
-1.43645e-06
1.09145e-05
4.37786e-06
1.00706e-05
6.62437e-06
-3.05509e-05
-9.67126e-07
9.60126e-06
1.25463e-05
-1.11029e-05
-2.41054e-06
-7.162e-06
2.93095e-05
8.08587e-06
-1.25644e-05
1.18384e-05
1.74297e-05
-4.67341e-07
-1.79441e-05
9.81703e-07
-1.99012e-05
-1.54913e-05
5.28223e-05
-2.16259e-05
1.2574e-06
1.95498e-05
1.63597e-05
-5.38536e-05
2.12212e-05
-6.8969e-07
-9.92806e-06
1.56579e-05
-1.51943e-05
-1.12516e-05
5.16963e-09
1.10631e-05
1.83377e-07
2.45319e-05
7.36354e-06
-4.31471e-05
2.44052e-05
1.31868e-07
-4.08526e-05
-3.51193e-05
0.000100377
-3.98714e-05
-8.4932e-07
-6.73873e-06
-1.73175e-05
-3.92466e-05
1.11743e-05
-1.38845e-07
-1.12561e-05
2.20674e-07
-2.01339e-05
-6.94541e-06
3.82536e-05
-1.94697e-05
-8.03026e-07
7.36419e-06
-4.02992e-05
2.16789e-05
-3.97194e-05
4.01382e-05
3.9307e-05
-9.90759e-05
-1.21547e-06
1.67899e-05
3.96009e-05
-9.95379e-05
-3.44192e-07
1.00722e-08
-5.92886e-06
3.91773e-07
5.30886e-06
2.2823e-07
8.35211e-06
4.30727e-06
-1.85882e-05
9.80766e-06
-1.06378e-06
-4.6181e-06
-4.95122e-06
1.48782e-05
-5.97903e-06
1.58916e-06
5.17982e-06
-6.85157e-06
1.00363e-05
-1.34916e-05
-1.34947e-05
-8.68762e-06
3.56739e-05
-3.37054e-08
-1.3597e-05
1.39097e-07
-1.34351e-05
-9.33436e-08
1.80321e-05
1.35516e-05
-4.50188e-05
1.84973e-05
-5.58556e-07
9.71849e-06
-9.76384e-06
1.95282e-05
1.67573e-05
2.03077e-05
1.23816e-05
-4.94466e-05
7.9545e-07
1.72307e-05
-1.26881e-06
1.99802e-05
1.12294e-06
-2.01714e-05
-1.26631e-05
5.00651e-05
-1.95697e-05
-1.87047e-06
1.38338e-05
-2.1022e-05
2.1151e-05
1.44124e-05
1.75567e-05
9.07706e-06
-4.10461e-05
5.0543e-08
-3.49006e-07
1.47109e-05
1.64636e-05
1.14358e-06
1.85845e-05
-1.61353e-05
-2.79822e-06
-1.0326e-05
4.36214e-05
-1.31118e-05
1.92495e-05
-2.01701e-05
6.92878e-06
4.58962e-06
-5.75695e-06
-5.76145e-06
-3.51688e-06
-9.93065e-06
2.03763e-05
-1.21709e-05
1.32437e-05
-3.32787e-07
9.82841e-06
-1.52526e-05
1.19126e-05
-1.80069e-05
-3.26166e-06
5.24365e-06
-5.60421e-06
-1.47968e-05
-2.80847e-05
-8.01683e-06
5.08983e-05
7.3434e-07
-1.61342e-05
6.03049e-07
-3.01463e-05
2.79592e-06
-1.12208e-05
-5.02057e-05
5.34097e-05
-5.46023e-05
2.72473e-05
5.74373e-05
-0.000142186
1.00276e-05
2.3944e-05
3.90637e-06
-4.49185e-05
1.23975e-05
-2.90352e-07
-2.3685e-06
-5.01652e-06
7.67538e-06
-2.16938e-06
-5.12399e-06
7.00302e-06
-2.44058e-06