/*--------------------------------*- C++ -*----------------------------------*\
| =========                 |                                                 |
| \\      /  F ield         | OpenFOAM: The Open Source CFD Toolbox           |
|  \\    /   O peration     | Version:  v2012                                 |
|   \\  /    A nd           | Website:  www.openfoam.com                      |
|    \\/     M anipulation  |                                                 |
\*---------------------------------------------------------------------------*/
FoamFile
{
    version     2.0;
    format      ascii;
    class       volScalarField;
    location    "0.15";
    object      alpha.water;
}
// * * * * * * * * * * * * * * * * * * * * * * * * * * * * * * * * * * * * * //

dimensions      [0 0 0 0 0 0 0];


internalField   nonuniform List<scalar> 
24700
(
1
1
1
1
1
1
1
1
1
1
1
1
1
1
1
1
1
1
1
1
1
1
1
1
1
1
1
1
1
1.15182e-08
2.15317e-08
7.52742e-09
8.6158e-09
1.04576e-08
3.37825e-09
3.54507e-09
9.00474e-07
5.56957e-07
2.40742e-07
2.39089e-07
2.39063e-07
3.11047e-07
3.1054e-07
0.000238076
0.000316414
0.000526953
0.000471222
0.00023635
0.000196141
0.000527674
8.23296e-08
3.37134e-07
5.62204e-08
2.39665e-07
3.36656e-07
7.80005e-08
6.64103e-08
0.000792061
0.000816219
0.000768594
0.00309961
0.00274298
0.000859445
0.00161904
2.68732e-09
1.5173e-09
8.20468e-10
2.89292e-08
9.49187e-08
2.75582e-09
1.34935e-09
2.7239e-06
2.71775e-06
2.717e-06
3.04811e-06
4.92393e-06
3.21789e-06
3.24848e-06
0.52806
0.0731726
0.967083
0.517839
0.0592077
0.73873
0.935143
2.38962e-06
2.79342e-06
1.05205e-06
6.56314e-06
6.29551e-06
2.78931e-06
3.49887e-06
2.53822e-15
2.91635e-15
1.86645e-15
3.82894e-16
9.22472e-16
6.14092e-16
1.34078e-15
9.42955e-18
3.51313e-18
7.30143e-18
7.79375e-17
1.24869e-17
9.06334e-18
2.92035e-17
2.17914e-11
1.33592e-11
4.29698e-12
1.83672e-12
1.89232e-12
4.94064e-12
5.60611e-12
2.92546e-40
1.95371e-40
9.03649e-40
1.72007e-39
1.4649e-38
2.89664e-39
5.90865e-40
8.41447e-41
6.60465e-41
2.63528e-41
3.96256e-42
2.09792e-42
1.68592e-41
3.24345e-41
2.69427e-40
6.15917e-42
3.49443e-41
1.12261e-40
2.5063e-41
1.06385e-41
1.86671e-43
1.63305e-42
1.36089e-32
9.64876e-34
1.72096e-33
1.56168e-34
2.53745e-34
1.81317e-33
5.19393e-34
2.6593e-16
1.6996e-16
6.98326e-17
2.5934e-16
3.00233e-16
2.23152e-16
1.02154e-16
0.00103011
0.00093567
0.00103011
0.000250587
0.000844358
0.000147092
0.000487544
0.000149786
0.000126513
0.000149786
0.000110096
0.000111501
0.000168054
0.000108402
0.000397386
0.000483176
0.000482551
0.000470206
0.000473148
0.000484375
0.000430848
2.09049e-05
9.62968e-05
7.51086e-05
1.89922e-05
1.9023e-05
3.60925e-05
2.54605e-05
1.79251e-05
1.36472e-05
1.85622e-05
1.11846e-05
1.72829e-05
8.92508e-06
1.07011e-05
2.81923e-05
2.8209e-05
2.80528e-05
4.84129e-05
8.09108e-05
2.56175e-05
5.16369e-05
7.08211e-08
7.9561e-08
7.1452e-08
2.08477e-07
2.49854e-07
2.26968e-07
9.37395e-08
0.00159142
0.00124423
0.00124063
0.00167502
0.00167502
0.00159545
0.00114926
0.79876
0.709229
0.959538
0.704489
0.867622
0.915158
0.912855
0.000193316
0.000146014
0.000181943
0.000160118
6.89415e-05
0.000205982
0.000246243
6.04622e-06
2.39437e-06
2.76376e-06
3.07566e-06
5.90919e-06
4.85599e-06
1.24296e-05
0.000473827
0.000416725
0.000473827
0.000472569
0.000472439
0.00013562
0.000334554
0.000360685
0.00053433
0.000531112
0.000454225
0.000346073
0.000534453
0.00053447
4.70261e-05
5.04315e-05
0.000126305
0.000109387
5.28072e-05
5.74658e-05
0.000130743
0.0110588
0.0110555
0.00716232
0.00896468
0.00880282
0.00550903
0.997223
0.995147
0.982707
0.999044
0.998501
0.994724
0.0855857
0.0229595
0.0149527
0.0146696
0.00300589
0.00542994
0.0236184
0.00196806
0.00038905
0.00286051
0.00285257
0.00136318
0.000477651
0.00110722
0.000558987
0.000454331
0.000191108
0.000387236
0.000296096
0.00018136
0.000703282
0.0020192
0.0093824
0.00600511
0.00201445
0.00330207
0.00507948
0.00561354
0.00167984
0.00154296
0.000857146
0.00109718
0.000856137
0.000793488
0.000763761
0.000117848
0.000195135
0.000118219
0.000116313
0.000190031
0.000111067
0.000111936
5.05236e-05
6.87393e-05
2.39915e-05
6.87568e-05
3.41407e-05
3.26997e-05
6.75579e-05
0.000752577
0.00166003
0.000754856
0.00734385
0.00343623
0.00159192
0.00292351
9.71741e-05
9.23599e-05
0.000121052
8.57373e-05
9.29237e-05
3.86401e-05
4.76056e-05
1.83434e-07
9.37557e-08
1.05766e-07
3.11281e-07
2.34905e-07
8.99567e-08
3.84491e-07
1.46954e-22
1.02339e-22
8.67304e-22
8.85185e-21
1.89988e-21
6.54647e-22
4.42291e-22
4.02595e-21
8.75136e-22
1.47197e-21
7.94205e-21
4.04502e-20
2.72504e-21
8.69563e-21
6.45636e-24
2.33611e-23
4.27922e-24
4.61574e-23
2.67199e-22
1.26608e-23
4.09466e-23
1.45256e-31
1.83586e-32
1.03682e-32
2.14084e-33
5.73517e-33
7.21902e-33
4.08707e-32
3.25623e-36
1.89779e-36
1.2178e-35
2.28662e-35
1.74447e-34
5.73143e-36
2.50408e-35
1.20548e-36
3.22316e-38
1.62486e-37
4.67103e-37
5.85799e-38
6.31898e-37
9.29817e-36
4.52342e-33
2.44255e-33
3.62732e-32
6.89566e-34
3.63174e-34
1.11477e-33
5.31456e-33
1.58555e-35
2.41338e-34
2.87281e-35
4.21598e-36
2.44928e-36
3.15168e-35
8.38916e-36
6.02031e-24
6.98007e-24
7.29821e-24
4.79884e-24
3.65112e-24
4.87995e-24
6.19714e-24
2.4876e-14
3.50639e-14
3.32278e-14
1.20168e-14
4.27618e-15
6.95298e-15
1.75898e-14
1.51885e-10
7.48946e-11
1.83785e-10
2.12839e-10
1.53345e-10
1.19686e-10
2.52098e-10
0.983592
0.865677
0.570234
0.983592
0.983666
0.903389
0.530739
8.15514e-05
0.000188025
5.52793e-05
5.55313e-05
6.30245e-05
0.000141115
6.68601e-05
7.20999e-05
3.08938e-05
4.3077e-05
3.09322e-05
3.32583e-05
5.40488e-05
8.551e-05
0.000260155
0.000561465
0.000120191
0.000210759
0.000117837
0.000495784
0.000233141
0.00132458
0.0011373
0.00136217
0.00184175
0.00120831
0.00352292
0.00390608
0.00434028
0.00434237
0.00184446
0.00222082
0.00280926
0.00367253
0.00548529
0.00603568
0.00603412
0.00368031
0.00294894
0.00603568
0.00505877
0.00603568
0.00603568
0.00443894
0.00160178
0.000192097
0.00019193
0.000359978
0.000201288
0.000361475
0.000191883
0.00019193
0.000148824
3.37473e-05
9.11223e-05
0.000146452
6.76102e-05
3.36667e-05
7.89312e-05
4.06868e-05
5.55499e-05
4.0567e-05
8.31114e-05
0.000179372
7.17143e-05
7.7731e-05
0.00119078
0.00132395
0.00120837
0.0013517
0.00352981
0.00306548
0.00133308
2.87073e-05
1.22568e-05
5.69835e-06
1.03144e-05
2.30004e-05
1.75624e-05
4.81563e-06
3.82788e-10
1.66226e-10
3.05022e-10
1.65728e-10
6.03436e-10
1.14081e-10
5.03427e-10
2.852e-15
7.47686e-16
7.59565e-16
2.03965e-14
6.05291e-15
2.44236e-15
4.3722e-15
1.7276e-17
1.68726e-17
7.72929e-17
6.51899e-16
1.50844e-16
8.5909e-17
4.86393e-17
4.5045e-24
1.36179e-23
1.40456e-23
2.28755e-22
3.75084e-23
1.69929e-23
8.04947e-23
6.9896e-30
8.8223e-30
2.68096e-30
1.1718e-28
1.59519e-29
4.70406e-29
1.12857e-29
3.04987e-16
1.97268e-16
3.72977e-16
3.46657e-16
4.18425e-16
2.11587e-16
3.66418e-16
3.8705e-14
1.91585e-14
4.97765e-14
2.30819e-14
4.15148e-14
1.41071e-14
3.72386e-14
3.77e-05
2.19019e-05
1.22991e-05
1.75467e-05
1.64009e-05
1.06593e-05
6.37094e-06
1.29124e-05
1.2909e-05
1.69863e-05
1.63743e-05
3.10778e-05
1.89728e-05
4.80949e-05
7.71513e-06
7.70456e-06
7.71513e-06
1.39065e-05
7.71967e-06
1.99466e-05
1.44443e-05
4.61466e-05
6.99088e-05
4.24627e-05
4.24627e-05
6.07489e-05
9.19644e-05
4.56432e-05
0.000254474
0.000136806
0.0001368
0.000490491
0.000249497
0.000234898
0.00049984
0.000285894
0.000434513
0.000280785
0.000339052
0.000530173
0.000658739
0.000367217
0.0210448
0.011062
0.00804073
0.0466297
0.0253233
0.0141554
0.0101264
0.259075
0.900128
0.61556
0.0164996
0.125299
0.64362
0.0594166
0.000573905
0.00137227
0.00100136
0.000572464
0.00119658
0.00195514
0.000704647
0.00199434
0.00199422
0.00199422
0.00830037
0.00384185
0.00385038
0.00199431
0.919945
0.833327
0.94524
0.897945
0.760171
0.940794
0.94524
0.00316816
0.00381874
0.00459327
0.00459349
0.00459327
0.00459326
0.004593
3.99684e-07
1.98678e-07
8.08202e-08
6.40311e-08
6.42648e-08
9.89116e-08
1.03263e-07
6.88252e-15
6.34568e-15
2.33058e-14
1.57164e-13
4.8884e-14
3.10268e-14
2.0734e-14
1.13306e-18
1.34715e-17
2.81409e-18
4.06089e-19
1.08818e-18
5.38977e-18
1.352e-18
4.43049e-18
2.64422e-18
1.20085e-18
3.46975e-17
1.19174e-17
1.90513e-22
8.66574e-23
2.21402e-22
3.01636e-21
5.14954e-22
3.71621e-22
1.20727e-21
6.68888e-21
7.54966e-22
1.23531e-20
6.24844e-20
1.43809e-21
2.0502e-24
5.38453e-24
7.04612e-24
2.92171e-23
7.75356e-24
3.43592e-12
2.40124e-12
3.31525e-12
2.08766e-12
6.87517e-13
5.97042e-13
2.15752e-12
3.02583e-06
6.27279e-07
2.695e-06
1.79364e-06
1.33183e-06
4.79376e-07
1.08376e-06
5.69563e-06
6.8339e-06
5.69563e-06
5.69563e-06
5.75065e-06
1.27272e-05
8.09258e-06
9.40969e-06
5.94235e-06
5.75411e-06
1.51869e-06
2.63693e-06
2.55961e-06
3.25959e-06
1.71713e-09
2.53475e-09
1.60835e-09
9.58934e-09
1.30437e-08
4.06054e-09
4.63956e-09
7.05843e-07
9.08987e-08
3.52235e-07
5.14517e-08
1.25955e-07
1.32413e-07
4.1808e-07
0.000151744
0.000283349
0.000282763
0.000191594
0.000151744
0.000253664
0.000193958
0.000137152
0.000140243
0.000105864
0.000118264
0.000105924
0.00011628
0.000105383
9.86765e-07
1.5936e-06
9.87132e-07
1.46073e-06
3.45419e-06
3.60072e-06
1.48561e-06
1.52117e-06
7.46725e-06
7.47161e-07
1.39043e-06
6.79586e-06
0.00010101
4.32716e-05
4.32842e-05
0.000101651
5.36651e-05
4.84287e-05
0.00010862
2.07363e-05
1.31096e-05
1.68815e-05
3.81015e-05
7.01921e-05
2.00714e-05
4.80183e-05
0.0066813
0.010754
0.00217682
0.0035002
0.00190393
0.00410443
0.0065827
0.182535
0.0383507
0.137375
0.0669294
0.586495
0.0314763
0.143513
1.48307e-05
1.48806e-05
1.48307e-05
3.6882e-05
7.04597e-05
1.82491e-05
3.64061e-05
0.0025103
0.00321076
0.00253488
0.00774475
0.00782199
0.00456075
0.00657854
0.0110878
0.0977417
0.316918
0.0198868
0.0100956
0.00982533
0.0101494
9.31866e-05
9.36942e-05
9.32263e-05
0.000128766
0.000158764
6.3905e-05
3.58305e-05
1.08688e-06
1.08134e-06
1.42346e-06
2.39697e-06
3.41177e-06
2.23006e-06
2.41694e-06
6.2051e-14
5.10254e-13
1.38033e-13
2.35052e-14
5.06215e-14
2.04381e-13
6.71173e-14
1.77762e-13
1.04307e-13
5.63706e-14
1.05612e-12
3.68617e-13
1.26408e-17
2.73574e-18
2.74345e-18
2.47484e-17
1.10436e-16
1.42243e-17
7.81376e-18
3.57488e-24
4.14338e-23
6.88349e-24
6.77432e-25
1.46431e-24
8.09139e-24
1.86561e-24
9.99125e-25
1.6652e-24
8.3769e-25
9.25195e-25
1.21254e-24
1.51666e-24
9.24666e-25
6.67189e-12
3.80964e-12
1.54846e-11
2.53177e-12
2.83626e-11
1.55041e-11
3.97956e-10
7.774e-10
2.42299e-10
1.32766e-10
1.38213e-10
1.36039e-10
1.08005e-10
9.19335e-10
2.1109e-09
1.38274e-09
0.986253
0.992646
0.96698
0.988912
0.96503
0.99264
0.975497
2.65961e-05
2.66061e-05
4.19182e-05
4.19157e-05
4.1917e-05
2.65961e-05
2.65961e-05
5.33273e-08
1.03162e-07
1.58522e-07
2.82959e-08
3.80297e-08
6.36655e-08
4.24456e-08
2.04146e-09
2.50667e-09
2.4863e-09
3.42302e-09
2.80067e-09
3.06259e-09
2.22331e-09
6.32112e-09
1.96961e-08
3.80235e-09
3.22703e-09
2.04142e-09
9.75028e-09
4.23811e-09
1.87109e-05
3.21045e-05
3.20816e-05
3.62511e-05
1.60964e-05
2.66233e-05
6.17548e-05
0.000162814
7.91147e-05
4.08956e-05
4.0727e-05
5.86676e-05
7.39963e-05
0.000123128
5.9476e-05
0.000107099
0.000141035
9.43163e-05
0.000140184
7.62037e-05
3.21483e-05
8.71926e-05
3.99566e-05
2.25085e-05
1.68606e-05
2.9557e-05
3.44095e-05
7.92712e-05
0.0995838
0.0653279
0.432652
0.0432462
0.00764847
0.0254227
0.108142
0.99915
0.998791
0.999197
0.996095
0.99122
0.997445
0.992208
0.998302
0.998863
0.995911
0.999298
0.998951
0.998063
0.992218
0.998397
0.998658
0.991579
0.0002432
0.000239936
0.000423283
0.000780532
0.000383117
0.000219775
0.000402544
0.00513232
0.00374118
0.00384565
0.0157312
0.00725488
0.00704674
0.00662241
0.0997553
0.0270618
0.0895928
0.0360978
0.0189278
0.0445054
0.0630497
0.174498
0.076888
0.073755
0.114297
0.115626
0.0903306
0.207509
3.81555e-05
3.82653e-05
3.83756e-05
4.90638e-05
0.000114921
8.13974e-05
3.10861e-05
5.92646e-12
8.05008e-12
1.0028e-11
1.13213e-11
2.49448e-11
4.64087e-11
1.62366e-11
3.377e-12
2.39678e-12
3.65405e-12
1.6381e-23
3.99495e-23
7.43331e-23
7.89367e-22
1.02191e-22
2.04698e-22
4.13652e-23
7.42237e-08
6.59813e-08
8.46396e-09
1.19555e-09
4.3376e-08
1.59573e-10
1.70837e-08
2.29154e-08
2.85577e-10
4.10618e-11
1.51262e-11
1.7755e-11
7.42829e-09
4.43522e-09
3.34566e-08
2.79439e-08
9.14527e-09
3.54412e-10
3.28488e-28
1.91352e-09
1.53891e-08
7.36222e-07
1.97545e-07
7.04624e-08
3.70109e-07
9.01875e-08
7.34044e-07
2.74685e-06
4.23472e-09
7.64645e-08
6.22059e-09
6.88188e-09
3.50786e-09
2.76588e-09
3.25368e-09
4.45476e-09
4.29402e-09
2.01344e-11
6.40422e-12
4.35567e-12
3.88971e-12
5.33848e-12
4.33382e-12
7.4822e-12
3.92572e-05
4.94775e-05
1.88434e-05
3.38078e-05
1.78436e-05
4.12785e-05
2.34138e-05
1.30238e-05
1.56897e-05
1.14085e-05
2.40325e-05
1.31799e-05
3.27511e-05
1.54369e-05
1.42217e-05
1.43204e-05
1.90239e-05
5.14461e-05
2.52107e-05
6.70774e-06
1.58937e-05
0.000175207
0.000349385
0.000174498
0.000183731
0.000183887
0.00025508
7.5755e-05
0.000226501
0.000173984
0.000172915
0.000313558
0.000494634
0.000184522
0.00049742
0.000482621
0.000505028
0.00033056
0.000794081
0.000329227
0.00115263
0.000345018
0.999754
0.999447
0.999663
0.9989
0.998356
0.997736
0.9989
0.9989
0.997037
0.994689
0.99578
0.987323
0.99779
0.998525
0.995724
0.00821901
0.002817
0.000947526
0.000703761
0.00115092
0.00185417
0.00372553
0.000284627
0.000392829
0.000246009
0.000599632
0.00130098
0.000781318
0.000250519
0.000417469
0.000417536
0.000417536
0.000393488
0.000155952
0.000409264
0.000161812
4.26773e-05
6.05276e-05
4.21557e-05
4.21557e-05
9.3794e-05
7.40706e-05
0.000142379
8.41687e-05
4.6882e-05
9.65799e-05
9.65799e-05
5.63414e-05
5.92516e-05
4.02252e-05
3.22225e-05
2.51014e-05
2.50983e-05
8.24086e-05
8.26147e-05
3.6701e-05
5.49313e-05
2.12483e-08
1.57714e-08
1.74299e-08
5.72938e-08
8.60867e-08
2.35128e-08
5.6556e-08
7.44309e-07
5.90466e-07
9.42839e-07
4.30086e-06
1.79939e-06
1.66518e-06
1.0267e-06
9.15071e-08
5.71453e-08
5.01802e-08
4.36501e-07
1.73387e-07
1.01203e-07
1.42962e-07
5.35676e-06
3.37066e-06
3.58917e-06
6.58467e-06
1.36301e-05
4.71138e-06
9.18557e-06
5.87581e-06
1.31902e-05
5.96069e-06
5.89682e-06
8.82075e-06
1.81065e-05
4.89708e-06
9.15161e-09
6.65937e-09
1.01648e-08
2.14442e-08
4.89744e-08
1.09403e-08
1.9387e-08
2.71391e-05
0.000109207
7.76711e-05
2.52486e-05
5.08771e-05
3.12711e-05
4.21383e-05
0.000136146
0.000410653
0.000557305
0.000110032
4.47014e-05
9.12236e-05
0.000224199
5.16174e-07
6.10416e-07
6.99372e-07
1.04757e-06
5.30058e-07
1.34796e-06
7.31621e-07
5.14635e-07
5.15074e-07
8.6669e-07
2.07153e-10
4.95324e-11
1.21477e-10
6.06904e-11
4.22022e-11
7.41719e-11
1.74559e-10
4.65002e-07
3.87288e-07
1.12473e-06
6.51443e-07
6.37986e-07
3.31881e-07
1.12559e-06
0.000187865
0.000187892
0.000156261
0.000171365
0.000172442
0.00018792
0.000187867
0.000149202
8.93605e-05
0.000149243
0.000117098
0.000126095
4.69308e-05
9.43831e-05
0.000165415
0.000191877
0.000180374
0.000191921
0.000191883
0.000191923
0.000191919
0.000158247
0.000482413
0.000256802
0.000221049
0.000158487
0.000194015
0.000230494
2.76886e-05
7.37758e-05
4.19794e-05
2.77235e-05
3.08553e-05
3.11433e-05
3.12697e-05
6.49545e-07
4.08725e-07
1.05091e-06
4.08575e-07
4.69796e-07
3.47384e-07
1.7076e-07
0.000210654
0.000127824
0.000199055
0.000132809
0.000176467
0.000159643
0.000210776
3.95103e-07
6.67303e-07
3.95127e-07
1.75747e-06
6.42237e-07
1.7125e-06
6.48421e-07
0.000649795
0.00203277
0.000262645
8.60062e-05
6.06905e-05
0.00105696
6.80194e-05
6.30987e-05
3.39016e-05
4.58848e-05
0.000118281
0.000105412
8.7852e-05
0.000105425
7.54848e-12
1.32813e-11
7.76124e-12
6.78653e-12
6.6124e-12
7.15443e-12
6.6818e-12
4.42802e-12
3.99636e-13
7.86283e-11
1.81369e-11
3.51209e-13
3.22938e-13
6.46907e-11
3.38153e-05
1.06042e-05
1.68891e-05
2.27624e-05
1.05804e-05
1.33362e-05
3.55864e-05
2.78791e-11
3.73347e-11
3.80236e-11
9.62848e-11
1.3637e-10
5.23195e-11
4.66342e-11
1.92388e-05
1.2252e-05
9.67372e-06
1.80221e-05
1.92231e-05
1.23038e-05
2.00999e-05
7.72481e-05
3.32954e-05
4.13029e-05
3.32087e-05
5.25659e-05
5.80065e-05
7.80533e-05
0.00020826
0.00031946
0.000209894
0.000220023
0.00021966
0.000162071
0.000195101
0.000482684
0.00048268
0.000482673
0.000482684
0.000482683
0.000482684
0.000482683
0.000184375
0.000317951
0.000412071
0.000412071
0.000391463
0.000152522
0.000179091
0.000210656
0.000157047
0.00021068
0.000143761
4.30058e-05
1.4582e-05
0.000160312
4.99316e-05
0.000112824
0.000104692
5.09262e-05
4.99565e-05
8.24969e-05
0.000109073
0.000171021
0.000293259
0.000591647
0.000293409
0.000168458
0.000268926
0.000535886
0.936752
0.937098
0.851054
0.976651
0.972454
0.989449
0.96856
0.871734
0.968449
0.999707
0.998153
0.99956
0.992945
0.994408
0.446158
0.916955
0.995881
0.991717
0.0120501
0.0121937
0.0181335
0.0169798
0.0262342
0.0250997
0.0156103
6.61565e-06
5.01665e-06
6.61565e-06
2.6348e-06
4.08934e-06
3.16135e-06
5.40194e-06
0.000131414
8.59709e-05
6.47887e-05
6.47359e-05
0.000129928
6.86281e-05
0.000136346
0.000183207
0.000189119
0.00018816
0.000284854
0.00028459
0.000285056
0.000284992
8.65415e-05
7.70455e-05
8.56587e-05
0.000166586
0.000253976
6.32709e-05
0.000200781
1.04588e-08
3.01415e-08
7.282e-09
9.98708e-08
2.06346e-08
1.23774e-07
4.60266e-07
1.81064e-08
7.24389e-08
1.98839e-07
1.74409e-06
9.57654e-07
1.17009e-06
6.44414e-06
2.96257e-06
1.72693e-06
5.01692e-06
0.982402
0.982582
0.977539
0.495959
0.856074
0.923426
0.639116
0.00199219
0.00467606
0.000294089
0.000869265
0.000274246
0.00536683
0.00263339
4.55262e-05
3.22657e-05
3.23561e-05
2.03023e-05
1.5802e-05
2.2681e-05
4.21208e-05
2.22529e-08
2.39416e-08
2.22529e-08
2.22529e-08
3.15127e-08
2.49544e-08
6.80947e-08
2.30489e-09
1.94637e-09
1.41126e-09
1.04556e-09
8.81139e-10
1.29694e-09
1.30121e-09
6.96634e-12
6.25212e-12
1.54409e-11
2.07488e-10
1.16855e-10
2.01815e-09
3.65046e-10
5.34864e-09
6.64677e-09
4.24409e-07
1.41462e-07
1.26262e-07
1.75444e-07
5.32427e-07
1.59833e-07
5.84007e-07
3.70948e-07
7.2276e-08
5.51729e-07
1.53238e-06
1.56993e-06
8.62937e-06
2.02658e-05
1.29131e-05
7.49555e-05
3.95179e-05
4.31558e-06
1.08218e-05
2.00825e-05
0.000106378
7.62047e-05
0.000106378
0.000102724
0.000106378
3.74607e-05
8.11967e-05
5.26803e-05
0.000103326
5.09995e-05
0.000106506
6.85307e-05
0.000106499
6.60373e-05
7.33381e-08
2.08189e-07
3.64597e-08
8.58656e-08
1.77462e-07
9.14229e-08
3.62975e-08
2.83788e-08
4.91305e-08
2.7964e-11
4.98399e-11
3.8555e-11
3.73347e-07
1.24492e-07
1.10393e-06
2.5905e-06
1.23721e-06
2.06397e-07
3.29741e-07
9.29552e-06
6.16335e-06
6.1503e-06
8.26205e-06
6.40035e-06
1.34032e-05
2.22253e-05
9.58416e-05
8.89768e-05
8.5413e-05
0.000342887
0.000177671
9.39915e-05
0.000124586
0.00324126
0.00405516
0.00321929
0.0104709
0.0109755
0.00635607
0.00821594
0.998347
0.996334
0.99306
0.996748
0.990443
0.956578
3.55822e-05
3.22222e-05
3.22867e-05
7.93242e-05
0.000110311
6.59089e-05
9.36293e-05
0.000329994
0.000225905
0.000109639
6.21411e-05
8.27701e-05
9.27105e-05
0.000208585
2.42022e-07
8.15852e-08
2.10894e-07
8.31272e-07
2.64691e-07
7.42176e-07
1.60484e-06
1.87852e-07
5.04963e-07
4.26108e-08
0.000174675
0.000174546
9.31289e-05
0.00013494
0.00017464
0.000167251
0.000114897
4.03969e-06
7.52845e-06
1.07016e-05
1.04371e-05
6.97546e-06
9.69678e-06
3.9844e-06
0.00057314
0.000787124
0.000221737
0.000205374
0.000113438
0.000404682
0.000269582
0.74976
0.89953
0.746905
0.811175
0.954818
0.914641
0.912929
1.93591e-05
1.92041e-05
1.49572e-05
7.84205e-06
3.13577e-06
6.25951e-06
6.30967e-06
9.38274e-06
6.8623e-06
1.94149e-06
8.30574e-06
7.8055e-06
3.01214e-06
2.94489e-06
4.1445e-07
1.27736e-06
7.07336e-07
3.30347e-07
3.3219e-07
7.15866e-07
4.22908e-07
2.13667e-08
1.94335e-08
2.29336e-08
4.23248e-08
2.64239e-08
1.94023e-08
1.7961e-08
9.32135e-10
7.30416e-10
5.77222e-10
4.92054e-10
4.78368e-10
5.90987e-10
6.58683e-10
3.04462e-07
1.60575e-06
4.077e-06
5.73453e-08
3.44313e-08
3.44426e-08
6.37308e-08
3.35245e-06
3.05584e-06
3.19833e-06
1.2753e-06
1.54587e-06
1.45268e-06
5.93164e-07
1.29144e-05
6.23844e-06
3.20147e-06
3.07894e-06
3.22961e-06
4.14799e-06
7.60123e-06
8.06168e-08
1.05246e-07
8.09795e-08
5.04561e-07
2.49928e-07
2.53823e-07
2.3833e-07
6.6021e-08
3.26351e-08
1.13233e-07
5.28536e-08
1.34901e-07
1.93557e-07
2.71604e-07
2.83788e-08
2.83788e-08
5.88997e-08
1.8821e-07
7.39946e-08
1.02007e-07
3.66623e-08
3.13415e-07
3.06802e-07
5.6446e-07
6.7171e-06
3.50803e-06
1.25267e-05
4.33884e-06
1.69335e-06
1.75885e-06
7.84198e-06
2.46164e-05
2.46164e-05
2.46102e-05
1.9452e-05
2.46102e-05
1.02342e-05
2.10895e-05
3.66245e-05
7.78677e-05
8.7929e-05
3.65961e-05
3.64577e-05
5.0755e-05
8.19928e-05
0.00010465
9.11924e-05
8.34085e-05
6.5136e-05
0.000171262
0.000130773
4.36816e-05
2.51903e-06
9.68228e-06
4.85848e-06
2.53618e-06
3.03543e-06
7.45233e-06
3.10724e-06
0.000125378
0.000209453
0.000124601
0.000162099
0.000156882
0.000209855
8.79206e-05
0.00542813
0.00348756
0.00734216
0.0217068
0.0219681
0.00453361
0.0122759
0.0237531
0.0844676
0.0817736
0.0177914
0.0260632
0.0398728
0.0509522
0.999659
0.997494
0.999911
0.999943
0.999876
0.999854
0.998633
0.999976
0.999913
0.999257
0.999919
0.99916
0.988907
0.996268
0.987999
0.994805
0.999138
0.993203
0.999737
0.998723
0.991224
0.962137
0.975825
0.927994
0.99544
0.995048
0.462789
0.154239
0.0850445
0.0804227
0.0859771
0.0825169
0.171661
0.000297003
0.000605431
0.000503564
0.000296931
0.000297003
0.000413393
0.000386182
4.77857e-06
5.91203e-06
1.62459e-06
3.82568e-06
1.77967e-05
1.32297e-05
1.54993e-06
8.23763e-06
8.50617e-06
3.60816e-06
3.44724e-06
7.57957e-07
1.53527e-06
8.01738e-07
0.00205417
0.000940868
0.00101641
0.000626547
0.000294687
0.000944209
0.000847292
0.000133537
5.63266e-05
7.47066e-05
5.6772e-05
6.2085e-05
0.000112201
0.000165199
2.6002e-05
4.62899e-05
4.60814e-05
2.15042e-05
2.15161e-05
2.15105e-05
2.15105e-05
0.000233419
0.000256938
0.000199934
0.000209499
0.000188799
0.000207813
0.000246933
0.00183775
0.00326175
0.000997214
0.000790577
0.00104575
0.00337896
0.00181365
0.0329514
0.0166108
0.0168756
0.155096
0.263364
0.030981
0.0869014
9.43433e-06
3.16679e-05
7.64212e-06
2.39203e-05
3.54968e-05
3.69229e-05
1.43467e-05
5.48819e-12
2.64558e-12
3.8556e-12
4.68584e-12
3.17481e-12
3.33875e-12
4.216e-12
1.44344e-05
3.59655e-05
4.61825e-05
4.61825e-05
4.61825e-05
3.23858e-05
1.04233e-05
4.12737e-07
1.23473e-06
1.97175e-07
5.04476e-07
2.79645e-07
2.06713e-08
5.02196e-08
2.06992e-08
9.0197e-08
3.1706e-08
7.66752e-08
2.77694e-08
5.73379e-06
4.18092e-06
1.41706e-05
4.23751e-06
9.15967e-06
6.17908e-06
1.61606e-05
0.000508051
0.000870115
0.000924456
0.000508436
0.000522967
0.000488692
0.00113968
0.00101792
0.00084261
0.000511645
0.00051796
0.000510648
0.000746545
0.00120837
0.999934
0.999199
0.999796
2.05528e-10
1.50334e-10
1.23552e-10
2.11087e-10
3.24761e-10
2.76992e-10
2.66977e-10
9.33946e-10
1.1837e-09
7.71446e-10
2.00174e-09
1.08453e-09
5.7152e-10
1.38288e-09
1.75037e-10
3.15563e-10
1.52897e-10
2.78537e-09
4.36171e-09
1.78509e-09
6.13135e-10
4.17979e-09
1.24718e-09
2.30893e-08
2.23477e-09
2.09983e-10
1.33615e-09
2.40118e-09
8.74735e-10
2.0373e-07
3.72418e-07
3.90556e-07
2.37005e-06
6.79872e-06
1.93778e-06
4.58157e-06
6.09648e-06
7.30516e-07
6.82552e-05
9.76303e-06
3.05498e-05
6.62773e-06
7.6944e-07
0.997039
0.999354
0.999706
0.992266
0.95157
0.989691
0.99953
0.979775
0.999053
0.999182
0.999646
0.994698
0.999158
0.950752
0.99176
0.999902
0.998953
0.989191
0.998327
0.999629
0.99634
0.999901
0.997056
0.981257
0.00342701
0.00213756
0.00112164
0.000622266
0.00132461
0.00146184
0.00544341
0.000195544
0.000235789
0.000379435
0.000290633
0.000200211
0.000165277
0.000276066
2.99007e-05
3.80904e-05
5.95335e-05
4.68799e-05
5.95333e-05
2.98614e-05
2.98376e-05
5.26622e-05
9.7938e-05
8.26269e-05
5.59074e-05
5.59128e-05
0.000133852
5.26624e-05
0.000102122
0.00010425
0.000144029
2.17354e-05
0.00010073
5.44436e-05
4.04315e-05
1.34654e-07
5.30791e-07
2.37469e-06
1.28529e-06
1.36615e-06
3.80282e-07
3.79088e-07
0.000604986
0.000731546
0.000604274
0.0007216
0.00152718
0.000746631
0.00060728
9.18182e-07
4.03552e-07
1.83221e-06
1.51229e-06
1.86036e-06
9.1392e-07
1.25099e-06
3.58561e-05
1.55276e-05
3.31333e-05
3.5649e-05
2.17502e-05
9.70624e-06
3.92437e-05
6.10202e-11
2.29924e-11
3.02998e-11
1.19465e-11
2.33951e-11
1.10022e-11
3.51811e-11
1.60158e-11
4.82598e-12
6.24534e-12
5.91838e-12
1.75367e-11
7.88962e-11
4.50433e-11
1.02054e-10
5.3098e-10
1.17571e-10
8.18598e-11
4.95304e-11
2.29316e-10
7.97549e-07
4.31613e-07
3.83494e-07
6.1188e-07
6.05438e-07
7.96528e-07
6.04585e-07
6.18147e-05
6.18147e-05
8.01795e-05
6.90832e-05
6.18147e-05
6.1879e-05
6.7945e-05
0.90132
0.831747
0.768537
0.937586
0.896041
0.935177
0.937421
3.03714e-05
1.08999e-05
1.64815e-05
1.45462e-05
1.08999e-05
2.31129e-05
1.44844e-05
0.000354843
0.000185489
0.000130638
0.000133429
0.000143741
0.000104797
0.000352222
0.000108074
0.000141954
0.000107994
0.000165679
0.000276132
0.000273868
0.00014624
0.999958
0.999935
0.99998
0.999829
0.998827
0.999897
0.999024
0.998347
0.998114
0.994707
0.997593
0.999601
0.991951
0.979133
0.999905
0.999775
0.99727
0.00622801
0.000613283
0.0022756
0.00386987
0.00316609
0.00258532
0.0116177
0.000772844
0.000772912
0.000772912
0.000645018
0.000770953
0.000384778
0.000521889
4.23105e-13
3.4093e-12
9.99513e-13
3.67451e-13
2.3411e-13
8.23202e-13
4.98498e-13
1.03914e-13
5.23582e-13
7.30183e-13
1.13142e-10
1.01829e-11
7.05958e-12
4.92972e-09
1.15008e-08
1.20602e-07
1.61978e-11
2.10311e-10
3.13353e-09
5.5399e-10
3.76449e-11
3.63888e-05
0.000175641
8.69121e-05
0.128281
0.0537889
0.0626457
0.446237
0.0992577
0.05507
0.144138
0.98468
0.990552
0.996584
0.960155
0.995288
0.981961
0.997994
0.999643
0.99993
0.99914
0.999085
0.998967
0.999086
0.995316
0.983291
0.996092
0.996872
0.999165
0.999893
0.996622
0.999602
0.00371331
0.00371526
0.00413497
0.00777435
0.00405213
0.00371555
0.00754284
0.000338886
0.00040241
0.000340169
0.000337089
0.000617632
0.000612687
0.000358238
1.22063e-06
8.87056e-07
2.7523e-06
8.98344e-07
2.11946e-06
1.97786e-06
7.84972e-07
3.40814e-07
1.0258e-07
1.6015e-07
5.37652e-08
5.39829e-08
8.9597e-08
5.3629e-08
0.000168601
0.000240498
0.000168332
0.000995245
0.00032835
0.000543533
0.000155871
0.000322352
0.000262938
0.000310362
0.000579761
0.000262978
0.000303904
0.000262938
1.86762e-08
4.0505e-08
3.98398e-08
1.86861e-08
3.35518e-08
7.40846e-08
2.97915e-08
1.98104e-07
6.67347e-07
2.33216e-07
1.98912e-07
3.38965e-07
8.30437e-07
2.23453e-07
2.52376e-08
1.37303e-08
6.35493e-08
3.7093e-08
7.3997e-08
2.16352e-08
1.21672e-07
1.24112e-06
1.24186e-06
1.24186e-06
1.25037e-06
1.32817e-06
2.21527e-06
1.46348e-06
4.79217e-06
2.1755e-06
2.20952e-06
3.71239e-06
6.09333e-06
2.413e-06
1.62317e-06
2.00408e-10
3.40157e-10
2.53567e-10
1.68196e-10
3.02001e-10
3.18246e-10
2.3255e-10
8.68932e-09
1.20255e-08
3.7589e-08
1.18281e-11
9.67473e-12
9.22812e-12
9.88069e-12
1.12982e-11
1.37498e-11
1.0286e-11
9.30496e-12
1.10441e-11
1.27374e-11
1.51479e-11
1.0006e-11
1.17103e-11
1.1807e-11
1.54494e-11
1.07298e-11
1.19213e-11
1.43834e-10
7.89767e-11
8.89871e-11
3.1901e-10
7.56942e-11
1
1
1
1
1
1
1
1
1
1.16133e-06
1.89024e-07
3.03934e-07
0.0171269
0.00577405
1.95779e-05
5.2962e-05
0.00103891
2.18192e-05
3.83053e-44
1.97927e-08
0.000133614
1
1
1
1
1
1
1
1
1
1
1
1
1
1
1
1
1
1
1
1
1
1
1
1
1
1
1
1
1
1
1
1
1
1
1
1
1
1
1
1
1
0.51719
0.235455
0.971021
0.993463
0.993224
0.923323
0.949762
1.40941e-42
1.43942e-43
7.94919e-44
2.05302e-44
3.7754e-44
1.49836e-43
2.68393e-44
2.10818e-44
1.63963e-43
0.997424
0.995496
0.997424
0.991339
0.994985
0.987021
0.990642
0.982722
0.976253
0.951247
0.995344
0.981627
0.962971
0.992931
0.996953
1.6935e-43
5.39199e-42
4.98228e-43
8.36636e-43
8.13517e-43
6.77491e-42
0.000352262
0.000110471
0.00015358
2.63037e-05
4.38353e-05
2.62805e-05
9.69709e-05
0.000125767
9.96178e-05
0.000139884
0.000715682
0.000595402
0.000927192
1.18954e-09
2.16098e-09
1.62323e-09
0.00011265
0.000148731
0.000199399
0.000592938
0.0012157
0.000802052
0.0014684
0.000719659
0.000604794
0.000723783
5.97747e-07
9.81256e-07
2.31718e-07
1.24534e-09
8.63925e-10
2.01755e-09
1.09634e-09
7.20459e-05
0.000282332
7.14293e-05
0.000124983
0.000126489
0.00011269
0.000199402
0.000119553
9.72285e-06
8.28293e-06
3.69648e-05
1.65353e-05
3.21042e-05
1.74196e-05
2.30275e-05
1.49939e-05
9.77192e-06
3.97269e-05
4.18996e-05
2.58388e-05
8.98254e-05
5.68611e-05
0.000199841
0.000198579
5.51278e-05
7.1896e-05
4.02936e-05
9.33481e-05
0.000119463
0.000187472
9.39597e-05
0.000198771
3.06335e-05
2.32726e-05
4.19442e-05
3.056e-05
3.10319e-05
1.57677e-05
0.000192504
0.000136899
0.000121426
0.00020223
9.9029e-05
0.000136096
0.000282897
8.1142e-05
1.77698e-06
1.28944e-06
1.22934e-06
6.83204e-07
0.0405455
0.0198591
0.0519023
0.0190973
7.83994e-10
1.81579e-09
8.01375e-10
1.37565e-19
4.07211e-20
1.18989e-18
2.94236e-19
0.0537959
0.294588
0.0791947
0.199061
0.000260996
0.000140516
0.000117308
7.25071e-05
5.00323e-35
2.82942e-34
6.84689e-34
0.000365585
0.000416322
0.000172641
0.000104443
0.000225677
0.000132788
0.0321647
0.0315609
0.0280281
0.0196456
4.38406e-06
1.53043e-06
8.06355e-39
3.71191e-39
2.39771e-37
4.86301e-38
0.999621
0.998149
0.999033
0.994755
6.72964e-12
8.55007e-12
6.88268e-12
1.05244e-11
3.57035e-05
1.77231e-05
6.50266e-05
4.10329e-06
2.46711e-05
2.74149e-05
1.78565e-05
1.37311e-05
5.09884e-06
5.99468e-06
3.84677e-06
3.84894e-06
1.15561e-05
2.89786e-05
0.00419287
0.00292087
0.0016671
0.00330174
0.000148718
0.00013113
0.000287789
0.000324927
0.000288314
9.14047e-05
0.000153919
4.82077e-05
5.81529e-05
2.98707e-05
0.999979
0.999999
3.91851e-07
1.50097e-07
1.41409e-06
1.23399e-06
0.000312513
0.000204844
0.000443815
0.0004435
5.03076e-05
0.000140889
5.20411e-05
9.8079e-05
4.77316e-06
2.84044e-06
3.11672e-20
4.42192e-20
8.35519e-20
1.85741e-19
4.11673e-05
5.55299e-05
1.45051e-05
2.32004e-05
1.33551e-05
5.06321e-06
1.5064e-09
1.91908e-09
0.00178183
0.00200958
4.59836e-11
1.32272e-10
5.79708e-12
3.07445e-11
0.878061
0.635914
0.887188
0.889412
0.810892
0.971142
0.954733
4.09355e-11
7.39984e-11
1.68682e-12
7.62943e-12
1.19288e-05
6.27025e-05
0.000157289
0.968175
0.993188
0.778767
0.661491
0.948198
0.97467
1.54765e-06
2.61993e-06
3.42334e-11
2.89584e-10
9.47256e-10
4.87307e-10
1.38894e-09
8.67387e-10
1.55673e-07
9.58778e-08
1.12852e-08
3.50626e-11
5.36512e-11
5.9454e-12
1.58726e-30
5.3192e-31
0.0085891
0.0108636
0.00696544