/*--------------------------------*- C++ -*----------------------------------*\
| =========                 |                                                 |
| \\      /  F ield         | OpenFOAM: The Open Source CFD Toolbox           |
|  \\    /   O peration     | Version:  v2012                                 |
|   \\  /    A nd           | Website:  www.openfoam.com                      |
|    \\/     M anipulation  |                                                 |
\*---------------------------------------------------------------------------*/
FoamFile
{
    version     2.0;
    format      ascii;
    class       volScalarField;
    location    "0.45";
    object      alpha.water;
}
// * * * * * * * * * * * * * * * * * * * * * * * * * * * * * * * * * * * * * //

dimensions      [0 0 0 0 0 0 0];


internalField   nonuniform List<scalar> 
24700
(
1
1
1
1
1
1
1
1
1
1
1
1
1
1
1
1
1
1
1
1
1
1
1
1
1
1
1
1
1
0.000633806
0.00113023
0.000638788
0.000532971
0.00115546
0.000709267
0.00120151
1.60301e-07
2.58002e-08
8.57636e-08
1.37192e-07
1.15883e-06
4.90906e-08
6.43175e-07
1.92693e-06
1.92678e-06
2.20264e-06
1.92699e-06
1.92673e-06
1.92634e-06
1.92699e-06
0.000828228
0.000340201
0.00174671
0.000339358
0.000450839
0.00064498
0.0012716
0.00182292
0.00180263
0.00631159
0.00698199
0.0130633
0.0119624
0.0166208
0.0011455
0.00074758
0.0011278
0.000316486
0.000772581
0.000508664
0.000501862
4.72292e-07
5.32369e-07
2.98912e-07
4.98305e-07
2.92838e-07
6.60953e-08
3.40554e-07
0.494744
0.0799784
0.967832
0.540905
0.0576618
0.764507
0.935786
2.66029e-09
8.24503e-10
8.24453e-11
7.74212e-12
3.92143e-10
2.43336e-10
3.1387e-11
0.000116448
0.000274316
0.000115096
0.000299935
0.000139623
0.000657758
0.000184569
0.0108193
0.0134146
0.0106652
0.0347336
0.036461
0.0239307
0.0243751
0.11334
0.167265
0.0346853
0.111223
0.0346677
0.483938
0.112262
0.70542
0.705417
0.705411
0.705349
0.705357
0.70542
0.705412
0.70542
0.705421
0.70542
0.0051011
0.00976413
0.0116768
0.0116768
0.0110663
0.00565415
0.00563292
0.00649853
0.00331038
0.00321083
0.00328958
0.00337675
0.000381033
0.000195115
0.000457232
0.000193837
0.000238998
0.000494675
0.000229849
0.00350173
0.00349172
0.00197436
0.00191048
0.00350769
0.00224798
0.000667148
1.9245e-06
1.92451e-06
1.92469e-06
1.92451e-06
1.9245e-06
1.9245e-06
1.9245e-06
0.107857
0.0843282
0.0517716
0.0505962
0.108102
0.426426
0.0174969
0.049257
0.0755725
0.0493659
0.0493659
0.049257
0.105845
0.0492584
0.168222
0.162431
0.166589
0.149261
0.218998
0.238114
0.0706064
0.000486284
0.000486258
0.00050217
0.000486486
0.000486315
0.000486135
0.000486296
0.00217001
0.00547922
0.00219477
0.00284087
0.00263374
0.00463417
0.00156624
0.00319691
0.00328014
0.00328014
0.00304067
0.0026645
0.00148834
0.00376591
1.83082e-05
1.0816e-05
2.71299e-05
1.23974e-05
1.08693e-05
8.39294e-06
3.09818e-05
0.892122
0.776965
0.968894
0.768748
0.900577
0.917539
0.912882
7.07406e-06
1.03613e-05
7.64151e-06
5.9182e-06
5.12267e-05
2.38743e-05
5.50434e-06
0.00106524
0.000608895
0.00106552
0.000616109
0.000609793
0.00101898
0.000934063
0.0151325
0.0120434
0.0120046
0.0216019
0.0468913
0.0170608
0.0261033
0.119348
0.147468
0.10003
0.645237
0.250377
0.282459
0.19975
0.0553544
0.0551771
0.0845203
0.595176
0.099384
0.185407
0.174909
0.385538
0.37973
0.380333
0.37973
0.37973
0.761777
0.827241
0.822637
0.528863
0.827241
0.827241
0.645824
0.0144057
0.00827515
0.0085234
0.0181705
0.00883369
0.00946834
0.0238868
0.0191921
0.0133007
0.0209917
0.0186325
0.0101828
0.0173334
0.00854695
0.00732191
0.00304661
0.00311569
0.00749696
0.00618037
0.00373188
0.0176148
0.0187392
0.0185528
0.0187392
0.0359621
0.0189007
0.0240054
0.0213526
0.0847645
0.046072
0.0850953
0.0272496
0.0105918
0.00994776
0.0839655
0.168583
0.112007
0.0120665
0.0959183
0.168901
0.119179
0.0283128
0.394207
0.34855
0.181584
0.1142
0.0471146
0.0468666
0.174868
0.000160591
0.0001599
0.000240772
0.0030028
0.00141157
0.000840928
0.00142228
1.75624e-05
1.90554e-05
1.75624e-05
1.94897e-05
5.89467e-05
3.79042e-05
3.62695e-05
0.000688937
0.00190277
0.00190284
0.00190284
0.00122265
0.00145317
0.000384892
0.00215211
0.00244545
0.00205916
0.00205916
0.00205921
0.00205921
0.0020592
0.704976
0.922276
0.966917
0.907031
0.951991
0.966902
0.966946
0.911756
0.66178
0.917787
0.881856
0.968203
0.965616
0.969199
0.788588
0.237605
0.119876
0.112554
0.111611
0.111972
0.289204
0.182565
0.111224
0.0357665
0.0348839
0.0752173
0.12176
0.40014
0.0188613
0.0189136
0.0192402
0.0479857
0.074344
0.0459586
0.0270777
0.0123431
0.0123438
0.0123438
0.00861503
0.0123394
0.0123437
0.0091311
0.000700742
0.00160574
0.00113029
0.000742386
0.00086248
0.00165449
0.000963665
0.00156888
0.00284798
0.00156149
0.00345361
0.00533104
0.00341721
0.00205965
0.00249635
0.00367905
0.00298979
0.00367058
0.00367143
0.00367971
0.0036754
3.85309e-06
1.43806e-05
3.52552e-05
6.12928e-06
3.81061e-06
8.00935e-06
2.39649e-05
0.984386
0.859641
0.705566
0.975028
0.98478
0.972662
0.913953
0.000869955
0.00127803
0.000873324
0.00192934
0.00288491
0.00170446
0.00194664
0.0470994
0.0477313
0.0148003
0.0318459
0.0477309
0.0178026
0.0361478
0.214903
0.214903
0.214903
0.215075
0.256685
0.404575
0.258705
0.719244
0.719244
0.718932
0.112257
0.620573
0.151499
0.178075
0.666434
0.506815
0.110423
0.240983
0.100993
0.444765
0.24411
0.161501
0.420236
0.150191
0.15389
0.174037
0.176871
0.161298
0.159898
0.158538
0.158538
0.0091448
0.00837512
0.00903479
0.0107126
0.0119106
0.0119106
0.0119106
0.129162
0.196904
0.28242
0.663063
0.123702
0.241068
0.79153
0.0138296
0.0208183
0.0276178
0.0138661
0.0139146
0.00946689
0.0183269
0.0306994
0.0320149
0.0333505
0.0171699
0.00531608
0.0156167
0.0260471
0.000213894
0.000204178
0.000215623
0.000732253
0.000521466
0.000474457
0.00106825
0.000603264
0.000470476
0.00107181
0.000464139
0.000523859
0.000461946
0.000473283
0.0188163
0.0184393
0.00934573
0.0168225
0.0187995
0.0122449
0.0109885
0.0594385
0.0337137
0.356293
0.0332388
0.0839241
0.0326834
0.0326834
0.806378
0.806541
0.806347
0.765135
0.706012
0.799737
0.806541
0.844105
0.709512
0.774714
0.877001
0.709512
0.884564
0.854943
5.23743e-07
7.89046e-07
5.67752e-07
2.50158e-06
1.07446e-06
1.517e-06
7.66654e-07
1.31588e-06
1.45003e-06
1.55257e-06
6.83154e-06
3.23774e-06
3.06603e-06
2.26057e-06
0.000555143
0.000729635
0.000741461
0.000634815
0.000557302
0.000515658
0.000813055
0.637333
0.0798544
0.178286
0.0357647
0.0740757
0.118143
0.127332
0.446846
0.213675
0.724215
0.742908
0.765831
0.765822
0.765796
0.395465
0.29138
0.508485
0.155519
0.163493
0.119319
0.120449
0.574171
0.0711056
0.233779
0.0711056
0.071198
0.0712053
0.223086
0.0846467
0.225861
0.081731
0.0817267
0.0817086
0.108556
0.0816835
0.0699158
0.0969995
0.0703108
0.0816658
0.0660579
0.0260969
0.0538369
0.0606112
0.0607343
0.0522332
0.0162202
0.051733
0.030734
0.0501617
0.0251629
0.047209
0.0303094
0.025177
0.0342352
0.00895371
0.0179403
0.00118186
0.00118146
0.00118146
0.00554793
0.00288353
0.00214449
0.00132098
0.892129
0.934858
0.934935
0.840281
0.532997
0.934041
0.920745
0.00149093
0.00143527
0.0011672
0.00176658
0.00176602
0.00176849
0.00154071
0.0004395
0.00121867
0.00232871
0.00182132
0.000765234
0.000892173
0.000826777
0.395499
0.207986
0.394586
0.0903611
0.395499
0.117238
0.395609
0.810405
0.810456
0.81036
0.81068
0.810486
0.810432
0.810455
0.810367
0.810991
0.810403
0.8123
0.812228
0.805347
0.804161
0.805757
0.763556
0.729405
0.729405
0.803555
0.805757
0.805759
0.797325
0.805757
0.800287
0.602367
0.588239
0.806541
0.655003
0.63471
3.66663e-07
1.9518e-06
8.47243e-07
3.31168e-07
5.67837e-07
1.04208e-06
5.01723e-07
3.94017e-07
9.49985e-08
2.14316e-07
1.71457e-08
3.75924e-07
1.07525e-08
2.14589e-07
0.00039201
0.000404676
0.000825471
0.000614064
0.000599557
0.000399988
0.000613182
0.000360557
0.000927885
0.000880344
0.000952909
0.000693654
0.00059383
0.000230484
3.33069e-05
6.79501e-05
9.88405e-06
6.69139e-06
8.66677e-05
2.49457e-06
3.53121e-05
0.00479835
0.00479594
0.0042475
0.0046649
0.00274258
0.00239459
0.00258353
0.00164581
0.00599366
0.00406185
0.00328816
0.00190068
0.00597752
0.00335334
0.0086124
0.0100966
0.00858602
0.0208549
0.0121067
0.0114527
0.00858932
0.478575
0.277432
0.478575
0.478575
0.393996
0.201802
0.226302
0.454823
0.201061
0.227313
0.226708
0.2019
0.0114175
0.0139689
0.0224688
0.140154
0.071594
0.0498525
0.119126
0.00112213
0.000610928
0.000628327
0.000806821
0.00153958
0.000775499
0.00168299
0.125485
0.125875
0.125875
0.0516097
0.124502
0.0574928
0.125771
0.763198
0.824166
0.763771
0.831256
0.830642
0.821404
0.737791
0.124969
0.123664
0.0801897
0.0888344
0.0965632
0.0826315
0.125036
0.0198781
0.0152883
0.0129191
0.0126893
0.0222603
0.010982
0.0168516
0.0362444
0.0267377
0.037646
0.0123379
0.0123083
0.00912968
0.0138127
2.44013e-05
2.44013e-05
2.44013e-05
2.44013e-05
2.44013e-05
2.44039e-05
2.44062e-05
0.000998943
0.00152383
0.00101057
0.00100089
0.000989422
0.00154368
0.00100991
0.789025
0.789025
0.789085
0.7638
0.714554
0.780733
0.789085
0.789025
0.728045
0.771651
0.788987
0.788879
0.486326
0.0334086
0.0973659
0.302847
0.0332306
0.0326707
0.0476543
0.0368475
0.055515
0.0630397
0.0388695
0.0398093
0.0387354
0.0785944
0.00241033
0.00849114
0.00483028
0.00396691
0.00236242
0.00638141
0.00482865
1.45326e-09
2.80535e-09
1.56737e-09
3.76233e-09
1.40342e-09
2.48478e-09
1.23194e-09
1.43816e-09
1.24087e-09
1.86574e-09
1.23039e-09
1.23039e-09
1.80009e-09
2.78539e-09
3.57434e-09
4.89595e-09
0.986144
0.992356
0.969414
0.991291
0.96845
0.992345
0.978023
8.04139e-05
4.59104e-05
4.43821e-05
4.44348e-05
4.43821e-05
4.44095e-05
5.92582e-05
0.000920219
0.000919111
0.000739011
7.49559e-05
0.000515719
0.000380553
0.000163091
1.74036e-06
5.48407e-05
4.83743e-05
2.95874e-05
2.33596e-05
4.54028e-05
8.41786e-07
1.49312e-07
7.49089e-08
4.07152e-07
5.90595e-08
4.65573e-08
3.55627e-08
3.08835e-08
8.35029e-05
1.33311e-06
2.0001e-05
9.66534e-05
4.37071e-05
1.36168e-06
3.94887e-05
0.00179221
0.00251688
0.00179239
0.0049585
0.00254598
0.00228404
0.00179239
0.120307
0.0461354
0.034955
0.0351428
0.0386993
0.0297519
0.0943733
0.371406
0.387241
0.705041
0.705041
0.405579
0.410957
0.369824
0.691604
0.416116
0.475282
0.618984
0.0681903
0.10926
0.439705
0.805334
0.718619
0.805498
0.877821
0.888307
0.727423
0.716297
0.82312
0.823313
0.823256
0.823736
0.823121
0.827203
0.823256
0.716901
0.805145
0.716297
0.191558
0.193922
0.194158
0.526893
0.417571
0.135105
0.152728
0.888415
0.65991
0.906641
0.906641
0.906639
0.582477
0.863401
0.901915
0.901915
0.901914
0.485932
0.0977735
0.43072
0.900359
0.00863666
0.00386725
0.0137633
0.00358357
0.00400495
0.00838155
0.00926878
0.00212793
0.0026304
0.00275229
0.00385728
0.00212793
0.00300184
0.00326791
0.793024
0.788978
0.78906
0.786826
0.791817
0.789172
0.345586
0.789176
0.789222
0.796307
0.00913638
0.00912983
0.00912983
0.0192433
0.0100264
0.0126075
0.00913052
1.25847e-11
6.20687e-10
1.4641e-09
9.89925e-14
8.53503e-13
3.23343e-14
4.6713e-13
4.90109e-10
1.1325e-09
1.56307e-20
2.57511e-14
2.98698e-13
2.22345e-14
8.4337e-14
5.23907e-11
1.05659e-10
1.65394e-12
1.92297e-09
0.00110585
0.000490029
0.000511507
0.00087532
0.00110612
0.00038133
0.000386194
0.000362267
0.000844618
0.000379197
0.000361584
0.00037159
0.00014474
7.03851e-05
0.000360241
0.00036688
0.00035316
7.96571e-05
0.000176471
5.9953e-08
1.92885e-08
8.79381e-08
8.47866e-08
5.22629e-08
2.09934e-08
4.82955e-08
0.000248145
0.000175313
0.000256319
1.17001e-05
0.000130917
1.72547e-05
7.57762e-05
0.030753
0.0565164
0.03072
0.0406542
0.0307037
0.0844026
0.0308619
0.132246
0.0550535
0.0719084
0.0633396
0.0588343
0.0572518
0.0572955
0.383721
0.55917
0.564057
0.0641443
0.0593019
0.501334
0.0551941
0.154717
0.874943
0.796869
0.222738
0.0277182
0.584672
0.071614
0.00736923
0.00915725
0.015353
0.00712168
0.00190874
0.00361711
0.00190636
0.82312
0.669573
0.794624
0.380946
0.538582
0.850388
0.84984
0.315467
0.847684
0.850833
0.834117
0.850373
0.850373
0.828204
0.84369
0.000859883
0.000642996
0.000324994
0.000322188
0.000382175
0.000320736
0.000322188
0.000158719
0.000165813
0.000163266
0.000222964
0.000422605
0.00035025
9.84769e-05
8.34093e-05
0.000327393
3.27828e-05
0.00180498
0.0032996
0.000347256
0.000421172
0.000536024
0.000534243
0.0010783
0.000874648
0.000933575
0.000533839
0.000533839
0.000930263
0.00179899
0.00194391
0.0019432
0.00176383
0.00149956
0.000781848
0.0331693
0.0181999
0.00706083
0.00909898
0.00618316
0.0171768
0.0214294
0.0749519
0.0517179
0.171352
0.0130082
0.0935647
0.0155223
0.0633443
0.152602
0.184934
0.0280321
0.0198849
0.0332114
0.175475
0.0698772
0.0327338
0.13469
0.689355
0.0327338
0.0328968
0.08809
0.216479
0.0534449
0.0532816
0.0414508
0.0530665
0.0509709
0.0535697
0.0535697
0.0288577
0.0429263
0.073318
0.0263028
0.0553389
0.0566697
0.0566632
0.00115553
0.000821749
0.00134501
0.00259176
0.0025954
0.00254845
0.00259609
2.8763e-05
4.34239e-05
2.42811e-05
0.000100661
0.000237527
0.000115406
5.42903e-05
0.000386149
0.00116897
0.00170797
0.000300058
0.000152167
0.00031813
0.000676963
0.000102798
0.00010213
0.00010213
0.000102527
0.000102111
0.000113782
0.000103086
0.000102529
0.00010271
0.000106066
3.56639e-05
4.95969e-05
4.6392e-05
0.000196516
0.000101556
7.93421e-05
7.30872e-05
1.11993e-07
7.51185e-08
1.49212e-07
7.86473e-07
1.3631e-07
7.92934e-08
5.18057e-07
0.282331
0.181976
0.209102
0.0532247
0.0531593
0.0677226
0.0535908
0.900617
0.939526
0.893778
0.927985
0.893627
0.933586
0.808792
0.335821
0.335835
0.783228
0.834566
0.72797
0.335822
0.830967
0.0013792
0.00134878
0.00160888
0.00142796
0.00148405
0.00108848
0.00263476
0.00466006
0.00940205
0.00469533
0.00467109
0.00661368
0.00524669
0.00551317
0.00126054
0.00173326
0.000651016
0.00190822
0.000811343
0.00122067
0.000635998
0.0223977
0.0184074
0.00924958
0.0166889
0.00855419
0.00968145
0.0126124
0.370409
0.49084
0.491012
0.204917
0.0137189
0.258048
0.0138361
0.000350173
0.000463869
0.000350173
0.000350173
0.000423187
0.000387751
0.000535509
3.24287e-05
3.2405e-05
3.2405e-05
3.24287e-05
3.24287e-05
3.29816e-05
3.24287e-05
8.64591e-05
5.06101e-05
8.61871e-05
8.63765e-05
6.6603e-05
4.376e-05
3.80936e-05
0.000242823
6.44011e-05
2.95736e-05
0.00021242
0.000241467
0.000163166
7.4904e-05
0.00178128
0.00345709
0.00314714
0.00150172
0.00347266
0.00170034
0.00142953
0.579715
0.579641
0.587109
0.58781
0.346365
0.58826
0.587955
0.0651004
0.0492062
0.0651845
0.0528834
0.0346471
0.0213688
0.0345354
0.0270117
0.0273584
0.0581876
0.0527296
0.03498
0.0308533
0.014559
0.0535658
0.0307767
0.0307767
0.0326379
0.0532162
0.0545837
0.057919
0.265284
0.110212
0.0943933
0.0629403
0.681393
0.628463
0.0339364
0.0346753
0.0136682
0.0162552
0.0179838
0.0627092
0.0135241
0.0961065
0.00431167
0.00207167
0.00130698
0.00174265
0.00129112
0.00160461
0.00455448
0.00135751
0.00267648
0.00539073
0.00135366
0.00135708
0.00178616
0.00528304
0.0785072
0.0381411
0.0184564
0.0727409
0.0604164
0.0262084
0.0129759
0.850813
0.850813
0.850813
0.826744
0.850675
0.713489
0.746443
0.848692
0.7915
0.840584
0.717713
0.738847
0.837108
0.846736
0.689318
0.867646
0.764424
0.713041
0.000679303
0.000684042
0.00161232
0.00113598
0.00251632
0.00260636
0.000917122
0.061532
0.0687864
0.0672537
0.0672647
0.238201
0.188308
0.0369828
0.0237754
0.0169547
0.00561088
0.00906755
0.00515688
0.0230781
0.0221483
0.000483771
0.00202007
0.000612232
0.000502225
0.00084929
0.0027549
0.000656599
0.112155
0.115237
0.520587
0.233828
0.499739
0.036316
0.0403052
0.68003
0.67999
0.680083
0.680072
0.680072
0.680072
0.680083
0.68003
0.664708
0.679804
0.000730626
0.00185769
0.00206949
0.00158311
0.002099
0.00344035
0.00094976
0.980277
0.980917
0.966521
0.478983
0.853658
0.97116
0.919513
0.00373324
0.00634703
0.00640649
0.00453596
0.00494098
0.00581928
0.00235772
6.32425e-05
0.000110687
0.000122098
6.32425e-05
6.33719e-05
6.33619e-05
8.07746e-05
0.000116554
6.60738e-05
3.5813e-05
3.98981e-05
2.56435e-05
4.02481e-05
0.000111622
3.93958e-05
2.51473e-05
2.57958e-05
2.68027e-05
2.94153e-05
4.49062e-05
8.48068e-05
8.64591e-05
3.61924e-05
3.14386e-05
0.000319221
0.000129204
0.000117648
0.000313925
0.000328601
0.000194922
5.77457e-09
4.42239e-08
8.68117e-11
1.14295e-11
2.72884e-12
3.08144e-11
2.35134e-10
5.57882e-28
2.87963e-11
9.96336e-10
7.88897e-19
1.58483e-09
5.97633e-15
4.30401e-15
1.52051e-20
1.10904e-19
1.21053e-27
2.40712e-21
1.45158e-19
5.00311e-20
2.24703e-13
3.66836e-13
3.21816e-12
3.48176e-11
7.56147e-11
2.22908e-11
6.40249e-11
4.03601e-05
5.27589e-05
3.3054e-05
3.3054e-05
3.3054e-05
4.74125e-05
8.83762e-05
0.143268
0.0261463
0.201192
0.180696
0.0267349
0.0956202
0.179387
0.220554
0.0646412
0.586636
0.588411
0.579641
0.00746349
0.00769491
0.00828214
0.00933167
0.00962854
0.00419675
0.00787744
0.0524696
0.0524696
0.0524615
0.0524696
0.0492167
0.022993
0.0355092
0.00256643
0.00549295
0.00250383
0.00311302
0.00249736
0.00536962
0.00250383
0.0148884
0.0233499
0.0430945
0.0157136
0.0148787
0.0148884
0.0148884
0.876905
0.876733
0.876905
0.876905
0.753849
0.538993
0.000678901
0.00126377
0.00114426
0.000602592
0.000622741
0.00062884
0.00119163
0.816047
0.816047
0.816047
0.362217
0.796321
0.81501
0.496167
0.685095
0.685152
0.685095
0.684779
0.685152
0.673054
0.648807
0.660349
0.654621
0.685152
0.0799759
0.0747517
0.0741982
0.149057
0.401108
0.740816
0.223452
0.000975814
0.000531243
0.000586661
0.00294845
0.0038148
0.00122905
0.0030605
0.000839245
0.00111121
0.00084284
0.00113392
0.00226679
0.0013254
0.00235992
0.927802
0.890709
0.744668
0.92729
0.929526
0.845668
0.909143
0.000114546
0.000219624
0.000111345
0.00015185
0.000212089
0.000243148
0.000113919
7.05634e-05
0.000118837
0.00031804
0.000107142
6.81352e-05
0.000107278
0.000199749
0.000302531
0.000194514
0.000288949
0.000304154
0.000200754
0.000322371
0.000158275
6.07519e-05
6.08626e-05
5.99582e-05
0.000129034
6.6714e-05
6.08482e-05
0.000140675
1.01835e-05
4.74039e-06
1.83982e-06
1.84095e-06
1.82325e-06
2.13501e-06
8.2004e-06
1.22811e-09
2.63606e-09
1.16713e-09
5.23502e-07
1.47656e-06
1.46685e-06
5.35795e-07
5.13539e-07
1.72075e-07
9.46616e-07
6.21195e-06
7.43797e-07
3.10602e-07
3.59184e-06
0.00030871
0.000753324
0.000453618
0.000133989
0.000216822
0.000514184
0.000336486
0.409749
0.139658
0.104871
0.0479273
0.409365
0.40938
0.145104
0.228983
0.410053
0.146874
0.410053
0.409778
0.409705
0.409963
0.298697
0.316921
0.235108
0.0850075
0.0592335
0.144246
0.154682
0.148714
0.032327
0.0617102
0.00212102
0.00209536
0.000895774
0.00154995
0.00153736
0.00230817
0.000612487
0.105651
0.105704
0.072699
0.105651
0.0984262
0.0901185
0.0214328
0.00235086
0.00243315
0.00235439
0.00439018
0.0193913
0.0084123
0.00387169
0.00355542
0.0012494
0.00408639
0.00115878
0.00108781
0.00250358
0.00279635
0.00032646
0.000405688
0.000340671
0.000318161
0.000498986
0.000853692
0.000430851
0.00166981
0.000688546
0.000645184
0.000750803
0.000644784
0.00112299
0.00103802
0.00854866
0.00234345
0.00284366
0.0326822
0.00845283
0.0030336
0.00425474
0.905132
0.905132
0.905129
0.214878
0.69661
0.873526
0.904983
0.852969
0.871546
0.85104
0.85455
0.857554
0.871544
0.871544
0.867097
0.871734
0.818664
0.871765
0.871734
0.705626
0.828777
0.871704
0.871625
0.871553
0.871548
0.871548
0.87165
0.871431
0.239303
0.869784
0.18374
0.826825
0.728704
0.0597345
0.0597345
0.0597158
0.0597285
0.0597158
0.0597341
0.059726
0.11674
0.11674
0.11674
0.13932
0.181085
0.116838
0.177792
0.702547
0.702547
0.702546
0.440769
0.0630888
0.060459
0.658659
0.00262425
0.00135441
0.00488307
0.000894081
0.000967131
0.000894052
0.00121332
0.0168549
0.0100626
0.00785063
0.00718845
0.0162859
0.0200187
0.0266927
0.00534142
0.0137368
0.0251857
0.0075108
0.00737938
0.0207223
0.00447218
6.47353e-05
7.81229e-05
6.47353e-05
6.47353e-05
0.000136092
7.50193e-05
0.00010475
0.000520117
0.000463469
0.000462728
0.000701643
0.00104505
0.000460839
0.000739919
0.000206281
0.000216848
0.000341273
0.000265566
0.000265423
0.000471005
0.000403605
0.0305883
0.0131569
0.014263
0.101987
0.200744
0.0185509
0.041694
0.00015695
0.000346807
0.000523019
0.000195785
0.000156543
0.000212724
0.000647722
2.31001e-07
4.38751e-07
8.45792e-07
1.15176e-07
2.87994e-07
3.04529e-07
3.57492e-07
1.45984e-09
1.59539e-08
3.32726e-10
6.25261e-12
1.74798e-11
9.14969e-11
1.08663e-11
0.0413629
0.0209318
0.179076
0.097207
0.0875412
0.000555898
0.000683484
0.000439627
0.000480192
0.000434963
0.00104585
0.000465817
0.000494732
0.000471595
0.000553019
0.000471595
0.000471593
0.000471587
0.000471595
0.00596659
0.0112051
0.011379
0.00927998
0.00464904
0.0135441
0.00882853
0.00583713
0.00408799
0.00764704
0.0076316
0.00582754
0.00747156
0.00407714
0.871765
0.871765
0.871765
0.713948
0.713947
0.713947
0.591179
0.601925
0.713942
0.713974
0.713067
0.713337
0.712656
0.71305
0.713142
0.670905
0.712188
0.713948
0.713942
0.713926
0.71339
0.713246
0.713334
0.536832
0.587516
0.536832
0.587423
0.678429
0.67412
0.678955
0.679025
0.679025
0.728373
0.356637
0.279113
0.684657
0.722695
0.243905
0.337867
0.728445
0.560904
0.728543
0.728482
0.727379
0.728426
0.713484
0.822822
0.67322
0.612417
0.822832
0.822824
0.798193
0.752156
0.612417
0.821896
0.61172
0.791408
0.796453
0.822865
0.822866
0.822865
0.822864
0.822864
0.822865
0.822863
0.822861
0.82286
0.822863
0.822863
0.80145
0.0324397
0.0378837
0.0323115
0.0343415
0.0621384
0.0435757
0.0337398
0.570783
0.364624
0.782227
0.834258
0.835967
0.832052
0.808704
0.000153235
0.000400228
0.000156235
0.000162147
0.000270008
0.000299351
0.000476224
0.000106558
0.000139077
9.60579e-05
9.60541e-05
9.26862e-05
0.000190683
0.000175032
0.00808651
0.00741077
0.00610374
0.0149377
0.00604659
0.00571624
0.016389
0.000106523
7.05068e-05
6.78398e-05
6.43663e-05
6.9706e-05
6.34502e-05
0.000106627
0.000165475
0.000387273
0.000455691
0.000263005
0.000100387
0.000134647
0.000100354
0.00045241
0.000477999
0.00045168
0.000912979
0.000904874
0.000998471
0.000637969
3.78543e-13
3.57202e-14
2.11332e-14
1.09266e-11
5.00503e-12
3.68777e-12
1.09108e-11
0.00696037
0.0287992
0.0089799
0.274649
0.06738
0.251537
0.054505
0.212088
0.274649
0.274649
0.274649
0.190315
0.301331
0.301331
0.30133
0.301331
0.301331
0.0673122
0.216838
0.111348
0.000298953
0.000103166
0.000289661
0.000101131
0.000112806
0.000218543
0.000175247
0.000584135
0.000483542
0.000553935
0.000483542
0.000672082
0.000490502
0.001256
0.874114
0.936783
0.642575
0.936948
0.936767
0.936948
0.9318
0.00861118
0.0079205
0.0095816
0.00786971
0.0136447
0.0152823
0.00793491
0.00559997
0.0113294
0.00434773
0.00779148
0.00429885
0.0105095
0.00618563
0.00395678
0.00702563
0.00870221
0.00581062
0.00383242
0.00482211
0.0112111
0.783722
0.77834
0.785584
0.785408
0.70256
0.784818
0.686201
0.80969
0.80969
0.811906
0.789192
0.802797
0.787135
0.81725
0.695871
0.782679
0.695384
0.0468053
0.0300846
0.0731526
0.0480135
0.0739611
0.0215225
0.0643929
0.0116457
0.0267673
0.0223686
0.0114744
0.0129134
0.0217994
0.020643
0.696598
0.69652
0.696586
0.696599
0.696598
0.696598
0.696633
0.696573
0.330365
0.686409
0.680921
0.682082
0.650927
0.679169
0.679025
0.679025
0.682212
0.681084
0.681084
0.520493
0.682119
0.72859
0.728619
0.379748
0.219034
0.192404
0.333329
0.874853
0.872356
0.543704
0.567001
0.822112
0.857837
0.857837
0.800518
0.856979
0.772619
0.819104
0.851514
0.881347
0.881366
0.832258
0.880057
0.880057
0.878201
0.87625
0.878426
0.787707
0.877698
0.809278
0.732951
0.721492
0.918043
0.913371
0.802698
0.944033
0.943908
0.940426
0.904492
0.293102
0.0978222
0.164
0.0608353
0.293918
0.0928306
0.0657836
0.037005
0.0326708
0.0321271
0.033448
0.0378472
0.0328882
0.0398893
0.00551432
0.00547746
0.00560407
0.0139626
0.00672624
0.0118856
0.00379928
0.000283909
0.000432052
0.000682645
0.00169285
0.000259728
0.000912858
0.000113367
2.09881e-05
2.10212e-05
2.10417e-05
3.08887e-05
2.12496e-05
1.58135e-05
2.39973e-05
0.000689021
0.000930457
0.00103878
0.00108017
0.000694613
0.000500589
0.00279675
3.87855e-09
4.17998e-09
3.9921e-09
3.5821e-09
7.34052e-09
8.86584e-09
3.56912e-09
1.5528e-08
1.15671e-08
1.28884e-08
1.88663e-08
5.91469e-08
1.34339e-08
4.51959e-08
7.9441e-07
3.01179e-06
8.40932e-07
1.45375e-06
3.01309e-06
5.36004e-07
1.33886e-06
1.72606e-05
1.70752e-05
4.06931e-05
9.12719e-05
6.79629e-05
3.88257e-05
0.000114401
0.0161923
0.0160676
0.0149591
0.0163157
0.00975012
0.00481411
0.00852351
0.000519866
0.00170882
0.000544018
0.0468316
0.128113
0.119415
0.240125
0.159518
0.23898
0.23898
0.23898
0.240125
0.188101
0.0589736
0.240125
0.212925
0.024091
0.0602509
0.0184164
0.0219709
0.0115741
0.0346265
0.0680193
0.0175221
0.0625073
1
1
1
1
1
1
1
1
1
0.00177006
0.000862463
0.00242075
0.035317
0.0132031
0.000136348
0.000506955
0.000331395
4.46824e-05
1.57665e-56
0.000362194
0.000313886
1
1
1
1
1
1
1
1
1
1
1
1
1
1
1
1
1
1
1
1
1
1
1
1
1
1
1
1
1
1
1
1
1
1
1
1
1
1
1
1
1
0.567314
0.237432
0.972861
0.993712
0.993909
0.935207
0.949784
0.705377
0.705327
0.705327
0.70528
0.218303
0.354474
0.704071
0.693649
0.259389
0.638711
0.700532
0.599187
0.644336
0.657184
0.589466
0.695187
0.738479
0.589466
0.665286
0.786142
0.751854
0.589974
0.700638
0.590409
0.542829
0.7054
0.342685
0.230465
0.06309
0.27405
0.000453408
0.000242732
0.000469144
0.000999059
0.00125289
0.00100114
0.000463606
0.000554024
0.000987159
0.000464392
0.000323173
0.000441633
0.000283818
1.00237e-06
8.83649e-07
4.56293e-07
0.00114433
0.00108852
0.00114426
0.000828968
0.00417703
0.00756551
0.000283505
0.000215825
0.000442093
0.000262845
5.28249e-12
3.41452e-11
1.07334e-11
1.73191e-07
9.62541e-08
2.19645e-06
2.15103e-06
0.000434747
0.000360134
0.000284015
0.00205153
0.000729081
0.00096428
0.000759421
0.00120385
0.0104636
0.00784704
0.011256
0.0117311
0.0148211
0.021498
0.0324135
0.0312481
0.0275413
0.0194399
0.00267503
0.00121461
0.00302145
0.00252687
0.000270531
0.000165349
0.0346116
0.0133227
0.0127672
0.00597771
0.00807314
0.00338397
0.00267163
0.000421041
0.0144673
0.00722276
0.00457422
0.00465011
0.00559593
0.0143584
0.000960695
0.00117975
0.000617377
0.000464343
0.00116874
0.000868246
0.00107258
0.000687482
0.000379691
0.000369872
0.0002692
0.000148415
0.0143186
0.00813645
0.0377765
0.0116943
6.19358e-05
2.90123e-05
1.77415e-05
0.0551253
0.0442307
0.132251
0.0558559
0.0691996
0.192129
0.0707774
0.561615
0.0042809
0.00192611
0.00142866
0.00145565
0.628774
0.63072
0.144986
0.0133651
0.0111583
0.488054
0.916847
0.721392
0.727548
0.904058
0.772749
0.745091
0.90378
0.000228616
0.000186856
0.00186403
0.000921721
0.00609208
0.00179381
0.887002
0.896261
0.71313
0.895786
0.237465
0.301294
0.206383
0.301245
0.00015401
0.000250265
0.00015401
0.000336271
0.331416
0.156708
0.106561
0.0865612
1.63082e-08
1.27747e-08
1.60269e-08
6.68219e-08
5.67056e-05
4.0083e-05
0.000633801
0.000384784
0.000264193
0.000265297
0.216675
0.0070602
0.127671
0.00777876
0.000814098
0.00141669
0.00033757
0.000823221
0.0583054
0.0595002
0.999981
0.999999
0.000135469
6.3442e-05
1.58063e-05
7.02662e-06
0.0213789
0.0537503
0.0850875
0.321144
0.286614
0.104047
0.400964
0.327293
0.000813055
0.000813055
1.47161e-05
1.15858e-05
2.19798e-05
9.08413e-06
0.950093
0.920234
0.950193
0.946378
7.95798e-07
8.84394e-07
0.00680253
0.00232699
0.00359673
0.00792235
0.487028
0.37811
0.487886
0.323765
0.709442
0.592399
0.590533
0.811046
0.565688
0.866954
0.866954
0.111527
0.041709
0.158008
0.696357
0.340694
0.0784308
0.192939
0.507974
0.843724
0.292371
0.166972
0.601899
0.822933
1.90099e-07
6.58822e-08
0.737894
0.509261
0.545766
0.345002
0.0328514
0.178317
0.000686167
0.00031128
0.0028358
8.39986e-05
2.47188e-05
3.21985e-05
0.90295
0.89948
0.0027605
0.00131469
0.0015006
0.000376838
0.000544783
0.000465034
0.000358113
0.00104778
0.0131739
0.0258839
0.0086739
0.0400076
0.000747111
0.000295837
0.00121061
0.000389398
0.0272809
0.0144755
0.273208
0.0887383
0.214927
0.627732
0.00430023
0.00372478
0.000813055
0.000567051
0.936754
0.734597
0.00158613
0.00371734
0.00158928
0.00159342
0.638786
0.935003
0.00164517
0.0210277
0.787571
0.961466
0.000454133
0.00067764
0.000682857
0.00153542
0.893815
0.893815
0.893815
0.481005
0.00315945
0.00156592
0.00147488
0.000375822
0.00100367
0.000191042
0.000148415
0.000174846
1
1
1
1
1.98772e-10
3.66769e-10
3.96349e-10
6.42115e-10
0.893786
0.132517
0.905989
0.692207
3.55731e-09
7.73741e-09
1.62786e-09
1.11571e-08
0.400893
0.665263
0.00363948
0.00197409
0.000999749
0.000314288
0.00100069
0.000814461
0.938172
0.758278
0.942777
0.932445
2.01249e-08
1.01251e-08
1.97574e-08
1.99983e-08
0.874453
0.969211
0.0282396
0.0225316
0.00597182
0.00399678
0.0378043
0.0242861
1
0.806535
0.336542
0.945358
0.337194
0.86964
0.854815
0.647511
0.863795
5.62075e-06
2.76705e-06
0.00510191
0.0069572
8.72687e-07
5.53911e-07
0.000345741
0.000445279
0.000328196
0.000315276
0.000386846
0.00015401
0.00496612
0.00525341
0.00487916
0.00629894
0.869749
0.792032
0.883561
0.0197248
0.00992216
0.00906653
0.0066571
0.00391371
0.00690663
0.00220865
0.00246339
5.44196e-07
2.54107e-07
3.83936e-07
3.09554e-07
0.000482275
0.00109885
1.19047e-06
1.15084e-06
1.18904e-06
1.31259e-06
0.000143186
0.000141508
8.95098e-05
0.000286361
5.10084e-05
0.000133263
0.00522276
0.00203804
0.00108296
0.00118213
0.00438649
0.00103447
0.000966254
0.000830884
0.000222267
0.000350709
0.0132282
0.0106425
0.0184135
0.0183109
0.0182863
0.0183109
0.55384
0.0452078
0.897235
0.745796
0.00201084
0.00349225
0.00201714
0.00201137
6.04653e-06
1.12904e-05
3.05549e-06
4.59982e-06
1.40554e-06
1.46538e-06
4.58799e-06
7.91192e-06
0.000878419
0.00112079
0.00224106
0.00297058
0.000316428
0.000288527
0.000130899
7.71452e-05
0.0001634
0.000238861
0.000165951
0.000114461
8.51355e-05
6.34871e-05
8.64562e-05
2.88951e-05
5.11095e-05
6.755e-05
2.93639e-05
2.9388e-05
0.00233257
0.00216742
0.00124913
0.00165967
0.00198494
0.00277533
0.00278829
0.274896
0.60276
0.966902
0.960888
0.0472099
0.568143
0.756973
0.843136
0.0139281
0.015366
0.00412648
0.0118176
0.000709185
0.000705757
0.000968243
0.000968496
0.942221
0.952418
0.695264
0.919949
0.966253
0.966438
0.038306
0.0200456
0.544769
0.77245
0.754312
0.75147
0.353426
0.801668
9.40713e-08
1.37383e-07
6.48836e-07
4.94151e-07
0.948895
0.977242
0.970003
0.984732
0.988223
0.999442
0.0372713
0.0420059
0.0465759
0.055938
0.484599
0.63239
0.0244659
0.00717206
0.0101251
0.0227983
0.00195287
0.00236808
0.00152295
0.00079859
0.000920242
0.000650218
0.999991