/*--------------------------------*- C++ -*----------------------------------*\
| =========                 |                                                 |
| \\      /  F ield         | OpenFOAM: The Open Source CFD Toolbox           |
|  \\    /   O peration     | Version:  v2012                                 |
|   \\  /    A nd           | Website:  www.openfoam.com                      |
|    \\/     M anipulation  |                                                 |
\*---------------------------------------------------------------------------*/
FoamFile
{
    version     2.0;
    format      ascii;
    class       surfaceScalarField;
    location    "0.45";
    object      phi;
}
// * * * * * * * * * * * * * * * * * * * * * * * * * * * * * * * * * * * * * //

dimensions      [0 3 -1 0 0 0 0];
oriented        oriented;


internalField   nonuniform List<scalar> 
49400
(
-5.66171e-06
7.07235e-09
5.61616e-06
3.84743e-08
1.30567e-05
3.59796e-06
-2.23164e-05
1.28611e-05
2.02688e-07
-3.42077e-06
1.73123e-05
-8.27539e-06
2.02233e-05
-2.00461e-05
-2.07655e-05
5.09389e-05
-3.39523e-07
8.08096e-06
1.95871e-05
-4.99844e-05
-1.55959e-07
-6.14919e-07
-1.22893e-05
2.36501e-07
1.21433e-05
-9.04769e-08
2.62929e-05
1.15564e-05
-5.01386e-05
2.59145e-05
-1.31232e-05
1.50683e-06
2.37597e-05
-1.32631e-05
4.9361e-08
2.9464e-05
-3.11707e-05
5.68854e-05
-2.68262e-05
4.51354e-07
2.64191e-05
-4.42032e-08
9.20204e-06
1.5622e-05
-5.16503e-05
4.98788e-07
9.15461e-06
4.11779e-05
2.27379e-05
-4.82937e-05
1.73349e-05
5.02621e-05
7.68203e-06
-7.39786e-06
2.14625e-07
-3.71115e-06
2.05478e-05
6.2346e-06
9.1054e-06
1.98583e-05
8.85542e-06
4.64613e-07
-2.00525e-05
4.94557e-05
2.70381e-07
-7.20085e-06
1.65093e-05
-4.0043e-07
-8.90806e-06
3.33436e-05
-5.15666e-06
-3.53878e-05
4.51259e-06
-3.17942e-05
-7.41422e-06
2.02844e-05
-1.32706e-05
1.58205e-05
-2.83914e-05
-3.67012e-05
6.14982e-05
-5.26749e-05
-3.4968e-06
-2.59611e-06
-3.38685e-06
9.47977e-06
-2.0975e-07
-4.96428e-06
1.67723e-06
-2.43189e-06
-3.73973e-07
1.92482e-06
3.43512e-06
-7.79183e-06
3.17434e-06
-1.6235e-06
1.06793e-06
-2.5971e-06
8.55421e-07
-2.92876e-06
6.3353e-07
3.87785e-06
-1.58263e-06
4.32553e-06
-1.04433e-06
-6.20996e-06
1.97493e-06
2.98414e-06
-6.78712e-06
-4.99657e-07
1.11646e-05
-9.50447e-07
-7.4193e-06
3.48154e-06
-5.47631e-06
4.95681e-06
-8.36181e-06
-9.81995e-06
-2.67756e-06
2.08593e-05
-1.89872e-06
2.05404e-06
-8.51713e-06
-3.79886e-06
-7.91982e-06
-1.50152e-05
7.85769e-06
9.2116e-06
5.81275e-07
-2.41137e-05
-8.98243e-06
1.41626e-05
-1.22e-05
6.34633e-06
2.59965e-06
2.52604e-06
-1.1472e-05
-4.9628e-06
-1.81586e-06
1.3125e-05
-6.06333e-06
3.70018e-06
-7.13603e-06
7.34642e-06
-2.02625e-06
5.53579e-06
4.53171e-07
-3.75164e-06
5.03473e-06
4.31019e-06
2.05458e-06
5.69857e-06
-2.15173e-06
-5.60142e-06
5.28002e-06
-7.61094e-06
4.3855e-06
-5.30717e-06
1.62858e-05
-4.38412e-06
6.6879e-06
-4.45551e-06
6.14338e-06
-1.61289e-05
4.17961e-06
-5.64717e-06
5.56034e-06
-1.18807e-06
-1.7492e-06
9.38066e-07
1.9992e-06
-1.5952e-06
1.46727e-06
-1.06014e-06
2.91283e-07
-3.63568e-06
-2.5466e-06
7.50735e-07
3.26313e-06
-2.07664e-06
-1.5301e-06
1.82829e-06
-3.61364e-06
3.51709e-06
-7.21318e-06
-1.18716e-05
-8.40296e-06
2.74877e-05
5.4522e-07
-6.0958e-06
-1.6626e-06
-1.39431e-05
2.61677e-06
7.47252e-06
3.83492e-06
-1.74032e-05
9.23122e-06
-3.4213e-06
-1.188e-05
1.27083e-05
-2.19882e-05
1.23352e-06
-1.91466e-07
-1.31548e-06
2.73428e-07
-3.35872e-06
-1.67798e-06
6.27022e-06
-3.67851e-06
1.28322e-07
3.30428e-06
1.87817e-06
-6.49793e-06
2.4195e-06
1.1582e-06
-2.71243e-06
3.45395e-06
-4.51277e-06
-4.08657e-07
4.40184e-06
7.96382e-06
-1.1957e-05
4.76051e-06
3.83012e-06
-8.99929e-06
3.12089e-06
6.04146e-06
2.66882e-06
-4.9474e-06
5.39946e-06
-7.26786e-06
1.59781e-05
1.06433e-06
-2.18161e-06
1.76029e-06
-7.84894e-07
2.94831e-06
7.95499e-07
-2.95892e-06
5.05312e-06
-4.81882e-06
-1.0192e-06
-2.60992e-06
1.06114e-05
-3.7362e-06
3.47234e-06
1.05936e-06
3.37765e-06
-1.00728e-05
1.65659e-06
-3.09775e-06
2.519e-06
-1.29203e-06
-1.133e-06
-2.93638e-06
5.36141e-06
-2.34137e-06
-3.72926e-07
1.42226e-06
-1.19296e-06
-2.28141e-06
-1.19543e-06
1.11238e-06
-1.10991e-06
2.06287e-06
-5.53971e-06
1.11323e-06
-3.73774e-07
2.3972e-07
3.67914e-06
1.98298e-07
-3.05107e-06
-8.26373e-07
-9.42757e-06
-2.46298e-06
1.55697e-05
-7.95819e-07
-8.43345e-06
-1.2252e-05
1.39634e-05
-2.50727e-06
1.07343e-05
-3.14197e-05
1.85896e-06
5.82424e-06
1.33594e-05
-1.29832e-06
6.29618e-06
1.65548e-05
-4.49377e-06
3.84207e-05
-3.07716e-06
-7.30516e-06
-7.62989e-06
1.80122e-05
-3.10425e-06
-1.07397e-05
1.07668e-05
-5.2858e-06
-5.12361e-06
-9.48149e-07
9.73695e-06
-1.40746e-05
1.39324e-05
-2.00041e-05
6.06143e-06
-7.06418e-06
1.23639e-05
-2.0615e-05
1.49839e-05
1.79449e-05
-1.23139e-05
3.65481e-05
-6.42273e-05
2.23715e-05
-1.56848e-05
5.60684e-05
1.46241e-05
4.43139e-06
5.7536e-06
4.03845e-06
-1.42234e-05
-1.63402e-08
4.03287e-06
4.14862e-07
5.40763e-06
3.29633e-07
-5.18886e-06
-3.4134e-06
1.26351e-05
-6.05462e-06
1.28062e-06
4.73191e-06
-6.74808e-06
6.72614e-06
8.44183e-07
-1.84828e-06
-2.01534e-06
3.01943e-06
-3.75585e-06
1.39047e-06
3.20956e-06
-1.77862e-06
-3.8255e-06
5.2201e-06
2.85475e-06
-1.00902e-05
7.20797e-07
7.51873e-06
-2.91419e-06
5.02546e-06
-1.83807e-06
-3.74044e-06
-8.1352e-07
1.73839e-06
2.81557e-06
2.67068e-06
-1.33252e-06
-5.0786e-06
-1.6067e-06
3.46386e-06
5.86475e-06
-7.13672e-07
-6.75778e-06
-4.12554e-07
9.74116e-06
3.00842e-06
-5.05461e-06
4.33425e-06
9.17553e-07
-4.75509e-06
-6.71537e-06
1.05529e-05
-3.2213e-06
-6.41955e-06
1.05584e-05
-3.00193e-06
-4.97446e-06
1.51077e-06
5.00765e-06
-9.52034e-06
6.30335e-06
-9.76704e-06
-3.38027e-06
3.26407e-06
-5.088e-06
-3.3702e-06
1.73335e-06
4.07752e-06
-2.44067e-06
8.77837e-06
-1.66958e-06
-1.0479e-05
1.67067e-06
8.84106e-06
-8.71453e-06
5.16957e-07
1.22751e-05
-1.68254e-06
-9.47266e-06
5.90156e-06
-9.25368e-06
8.08918e-06
3.63923e-06
7.1348e-06
-4.04081e-06
-6.73323e-06
2.81167e-06
-1.13408e-05
1.21684e-05
-1.25399e-05
2.24863e-05
-3.04257e-06
1.29859e-05
-1.39841e-05
1.0817e-05
-2.05928e-05
4.22683e-07
-9.46509e-07
8.68689e-07
-6.31598e-07
4.28765e-06
1.30339e-05
-1.66899e-05
9.56125e-06
1.39724e-05
-2.41653e-05
2.75452e-06
1.10944e-05
7.20094e-06
-1.63992e-05
1.19528e-05
-1.12798e-05
2.95752e-05
7.23996e-07
-3.1508e-06
2.47805e-06
-7.15203e-06
2.30476e-06
1.58294e-05
-1.09822e-05
8.96346e-06
1.29638e-05
-2.90793e-05
2.35943e-06
8.90879e-06
9.49506e-06
-2.02865e-05
1.31508e-05
-1.4907e-05
3.33109e-05
6.71391e-06
-1.40366e-05
7.63629e-06
2.46728e-06
-7.03271e-06
-2.2509e-05
2.70744e-05
-9.68073e-06
-2.0395e-05
3.2543e-05
-6.06928e-06
-1.06442e-05
4.69096e-07
1.15165e-05
-1.80548e-05
1.93334e-05
-2.95084e-05
8.18707e-06
-1.70656e-05
5.01144e-06
3.59484e-06
-5.28108e-07
4.89426e-06
-7.96099e-06
-3.33465e-06
4.78388e-06
2.1456e-06
8.28678e-06
-1.21495e-05
-2.17235e-06
-6.04027e-06
1.29965e-05
-5.5009e-06
5.47416e-06
4.84086e-07
-1.09073e-06
2.7306e-06
-1.22973e-05
-1.52813e-05
-9.42594e-06
3.70046e-05
6.03158e-08
-1.81169e-07
-1.21764e-05
-1.49941e-05
-2.26866e-07
-1.49535e-05
1.51775e-05
-4.05208e-07
9.2766e-06
-3.64065e-05
1.14879e-05
-1.72054e-05
1.72394e-05
7.22373e-06
1.05591e-06
-6.37462e-06
-1.90502e-06
-8.84379e-06
-8.00311e-06
2.40706e-05
-1.0777e-05
2.98907e-06
5.08129e-06
4.91759e-06
-1.63735e-05
9.44162e-06
-6.26535e-06
-6.41397e-06
7.85247e-06
-1.22733e-05
5.6518e-08
-2.37113e-06
6.17377e-07
1.69724e-06
-1.478e-06
2.67254e-08
1.50779e-06
7.22963e-08
-3.92143e-06
1.27129e-06
-8.48695e-08
-1.1597e-06
-6.75893e-09
2.78585e-06
1.47151e-06
-1.48408e-06
2.08213e-06
4.71691e-06
1.72936e-06
-2.85838e-06
-3.58789e-06
-2.41185e-06
-6.38696e-07
7.76745e-06
1.79348e-06
-2.47597e-06
-4.74033e-06
2.15142e-06
4.38239e-06
9.25734e-07
-8.14204e-06
-3.17858e-06
4.69131e-06
-5.11123e-06
4.94152e-06
-5.04265e-06
-3.17661e-06
3.27774e-06
-1.51184e-05
3.65741e-06
1.64025e-05
-7.83306e-07
-1.93777e-05
7.13319e-06
-3.12969e-06
-7.18011e-06
-4.20266e-08
1.0453e-05
-6.84069e-06
1.04561e-05
-1.07537e-05
4.31205e-06
-1.47895e-05
-3.70806e-06
1.41855e-05
-2.53805e-05
1.4552e-05
1.51406e-05
7.18232e-06
-4.73523e-05
2.16614e-05
-1.30926e-05
-1.22769e-05
-5.37168e-06
4.12186e-05
-1.6397e-05
2.55773e-05
-2.23073e-05
3.15892e-05
2.89634e-05
3.14262e-05
-9.19788e-05
3.01466e-06
-2.68551e-06
3.126e-05
2.94114e-05
2.56663e-06
3.2917e-05
-4.17634e-06
-2.88715e-05
9.30486e-05
-3.63643e-06
3.34229e-05
3.60525e-07
-8.4672e-07
-3.29367e-05
-4.27878e-05
-4.09443e-05
0.000117155
-4.02523e-05
-2.17496e-06
-4.07291e-05
-1.06187e-06
3.9864e-05
-0.00011353
-1.45015e-06
1.44065e-05
-8.82963e-07
-2.026e-05
6.73644e-06
-1.14419e-05
-1.63991e-05
4.22474e-05
-9.40736e-06
-2.91747e-06
7.05402e-06
1.42314e-05
-3.06928e-05
1.83946e-05
-1.42581e-05
-7.74772e-06
9.74329e-06
-1.37763e-05
-2.87e-05
-1.53291e-05
-6.03881e-06
5.00679e-05
5.49824e-06
-1.3625e-05
-2.05733e-05
-1.46893e-05
4.85846e-06
2.19108e-05
1.34231e-06
-3.79424e-05
1.25111e-05
2.04436e-05
-3.27263e-05
2.6916e-05
1.22617e-05
7.18509e-06
1.90356e-05
-3.84824e-05
-8.49532e-06
7.93213e-06
1.28249e-05
2.18463e-05
-2.31565e-05
7.12302e-06
-2.35619e-05
2.4371e-05
-2.12412e-05
4.11891e-05
-5.7628e-06
6.36792e-06
-1.02891e-05
2.86303e-06
1.48881e-05
-3.23338e-06
-1.45177e-05
1.66466e-05
-1.86352e-05
4.85164e-06
-1.17767e-05
4.33114e-05
-1.09618e-05
1.70995e-05
-9.37105e-06
1.32017e-05
-3.86812e-05
1.21667e-05
-1.76003e-05
1.74896e-05
-2.98442e-06
-4.7779e-06
-8.22622e-06
1.59885e-05
-2.95061e-06
-8.85476e-06
8.82095e-06
-1.89726e-06
-5.83125e-06
-4.02585e-06
6.29393e-06
-4.16534e-06
7.42194e-06
-1.7279e-05
7.92328e-07
-2.22515e-06
-1.13997e-06
7.97582e-06
-6.0223e-07
-8.28969e-06
9.161e-07
-7.71065e-06
-5.34995e-06
2.10364e-05
-8.06337e-06
-2.49504e-07
1.11833e-05
7.3075e-06
-2.67805e-05
8.71219e-06
3.38721e-06
-4.92933e-06
8.29157e-06
-5.68521e-06
-2.24148e-06
-8.67175e-06
3.56469e-06
7.34854e-06
-6.1602e-06
6.5203e-06
-2.60157e-06
6.54989e-07
-1.54869e-05
-8.71243e-06
-2.59458e-06
1.78273e-05
-6.07461e-06
-5.23939e-06
4.83338e-06
-1.0253e-05
5.80349e-06
-3.34392e-06
-7.90865e-06
1.26139e-06
9.99118e-06
-1.06728e-05
1.3534e-05
-6.20508e-06
8.26291e-06
-2.68444e-05
1.34474e-05
-1.21381e-05
-4.80023e-08
-3.98212e-06
2.74207e-05
-1.5412e-05
2.49639e-05
-1.92872e-05
-2.09437e-06
-1.7762e-06
-1.39551e-06
5.26609e-06
4.47436e-07
-2.86972e-06
3.27914e-07
-1.55413e-06
2.25365e-07
2.03086e-06
1.41109e-06
-4.99608e-06
2.26465e-06
-8.42319e-09
1.68842e-06
-3.14705e-06
2.55756e-06
2.90903e-06
2.90058e-06
2.16328e-06
-7.97289e-06
3.46028e-06
6.6545e-06
-7.20575e-06
3.96829e-06
2.39256e-06
-2.65379e-06
-6.78663e-06
1.34087e-05
-4.14802e-06
3.88679e-06
-2.94298e-06
2.81084e-06
-4.92771e-06
-3.7946e-06
-1.31342e-06
6.05506e-07
4.50252e-06
1.4124e-06
1.98641e-06
-7.19341e-06
-3.65708e-07
4.6469e-07
1.08616e-06
-1.85161e-06
3.99741e-07
9.78089e-07
5.72758e-07
1.65985e-06
-1.52504e-06
3.24344e-06
7.02076e-06
-3.93787e-06
4.02058e-06
-7.10346e-06
-1.41827e-05
-7.32516e-07
2.1936e-05
-5.91414e-06
-1.22064e-05
-1.28547e-05
5.37895e-06
1.14964e-05
2.34706e-07
-2.01929e-05
-1.00727e-05
1.47191e-05
-1.57521e-05
2.37449e-06
9.02725e-06
-6.33309e-06
-5.06865e-06
6.66921e-06
3.0373e-06
-7.33202e-06
-2.43899e-06
1.81354e-05
-1.3213e-05
6.5404e-06
9.70994e-06
3.78632e-06
-2.43314e-05
-6.72478e-06
1.08262e-05
-9.27154e-06
5.51853e-06
5.64667e-06
6.27493e-06
-1.74401e-05
1.47446e-06
8.9345e-06
-4.89043e-06
5.34562e-06
1.77551e-06
-3.47896e-06
-5.71382e-06
1.45384e-05
-5.4222e-06
3.71874e-06
-2.57887e-06
5.79955e-06
-1.72613e-06
4.30208e-06
2.57556e-06
-4.69826e-06
-2.17937e-06
-4.3e-06
-7.23829e-07
9.32591e-06
3.49095e-06
-5.2154e-06
-9.66233e-06
6.5156e-06
6.63769e-06
3.34964e-06
-1.82274e-05
-3.866e-06
9.65776e-06
-5.21462e-06
1.17911e-06
5.2321e-06
-5.93724e-06
-4.73964e-07
4.35109e-06
-3.88147e-06
7.09491e-07
-3.38766e-06
1.29708e-05
2.14713e-06
3.29731e-06
3.91221e-06
-1.05559e-06
-3.90533e-07
9.15084e-07
-3.03047e-06
-8.28992e-07
-1.31232e-06
1.0095e-06
1.13182e-06
-1.1632e-06
-7.96025e-07
1.13023e-06
1.74123e-06
-4.21675e-06
1.89145e-06
-1.85002e-06
-8.37453e-07
1.56836e-07
2.86484e-06
-6.32452e-07
1.79879e-06
-7.41242e-07
-2.70393e-06
1.31672e-07
-5.71536e-07
3.1438e-06
2.65148e-06
1.28746e-06
-6.64288e-06
2.75321e-06
2.99488e-08
4.48945e-06
-3.84365e-06
-1.21734e-06
-1.85624e-06
9.48949e-06
3.08808e-06
-5.64427e-06
3.98504e-06
-1.92537e-06
1.92945e-06
2.35407e-06
-2.35815e-06
3.08773e-06
-1.17755e-06
-3.83555e-06
9.42058e-07
4.07513e-06
-3.54881e-06
3.38771e-07
5.56411e-06
-1.27943e-06
-4.62753e-06
2.48102e-06
-4.93799e-06
3.76185e-06
-1.31345e-06
1.68068e-06
2.20429e-06
-2.57152e-06
2.60963e-06
-3.88466e-06
-3.84184e-08
-8.39439e-07
5.12975e-06
-4.64674e-06
2.88204e-06
3.96899e-06
1.50958e-06
-8.72784e-06
3.20502e-06
-5.58011e-06
5.24762e-06
2.92954e-06
-8.31032e-08
-3.10793e-06
2.61491e-07
-3.35179e-06
-2.33411e-06
8.61544e-06
-3.87733e-06
4.42435e-07
2.62444e-06
3.08587e-06
-8.81824e-06
3.49045e-06
-6.04523e-07
-1.41421e-06
2.57055e-06
-2.20566e-06
1.16815e-05
-2.13004e-07
-1.14323e-05
-3.61567e-08
-1.42661e-05
-9.47431e-06
3.54219e-05
-1.36069e-05
-8.72176e-07
1.32084e-05
9.32774e-06
-3.39684e-05
1.33876e-05
-2.15389e-07
-8.12389e-06
1.20372e-05
-1.24031e-05
-2.92037e-06
-6.72066e-07
8.43939e-07
2.74849e-06
1.5648e-06
7.59787e-08
-4.56114e-06
2.08963e-06
-1.1969e-06
-5.46548e-06
6.57722e-07
6.89739e-06
4.54534e-07
-7.11691e-06
2.65719e-06
-2.12668e-06
4.15885e-06
-5.15991e-06
-6.92255e-06
-1.16758e-06
1.325e-05
-1.36432e-06
-5.16838e-06
1.37279e-06
-3.79624e-06
-4.49064e-06
8.27667e-06
2.15927e-06
-1.56043e-05
5.6362e-06
4.01327e-06
5.68597e-06
-7.32294e-06
1.01546e-05
-1.94325e-05
-3.64412e-06
1.37088e-05
9.36779e-06
1.12531e-05
3.97003e-06
-3.46556e-05
-2.77984e-06
1.03888e-05
1.71223e-05
-1.58862e-05
-4.01594e-06
-5.03176e-06
3.25429e-05
1.80475e-05
-2.99637e-05
2.67246e-05
1.12999e-05
3.85005e-05
2.14909e-05
-7.12914e-05
1.18905e-06
-7.37208e-07
1.08481e-05
3.48341e-05
4.85552e-06
1.23755e-05
-1.32345e-05
1.2181e-07
-4.66131e-06
2.78849e-05
1.07009e-05
-3.77738e-05
1.38384e-05
-2.52327e-05
3.12723e-05
-6.35775e-05
7.31789e-05
-7.98605e-05
1.3432e-05
5.28224e-07
-2.87388e-05
7.00556e-05
3.06174e-06
1.30045e-05
-5.39384e-07
-1.34649e-05
9.99751e-07
-1.40333e-05
-8.73871e-06
3.57765e-05
-1.49329e-05
3.60207e-07
1.901e-05
1.29931e-05
-4.54679e-05
1.76445e-05
2.36526e-06
-1.11238e-05
2.00296e-05
-1.30637e-05
-2.00604e-05
-7.52069e-07
2.02424e-05
5.70113e-07
1.98571e-05
-5.29811e-05
1.94652e-05
-2.46187e-05
1.56532e-05
-1.74631e-05
-1.44103e-06
4.71458e-06
1.41896e-05
9.00834e-06
-2.36256e-06
-2.41089e-05
-2.27454e-06
9.84185e-06
1.16185e-05
-2.64604e-06
-1.1247e-05
6.16282e-08
2.13987e-05
1.09716e-05
-1.59802e-05
1.57478e-05
8.38426e-06
2.10582e-06
-7.92753e-06
-2.56255e-06
-6.56633e-06
-8.78791e-06
2.37385e-05
-9.74091e-06
5.28041e-06
7.10189e-06
5.04687e-06
-2.00763e-05
8.99571e-06
-4.45637e-06
-6.02372e-06
6.23151e-06
-1.07178e-05
-9.27995e-06
5.03097e-06
9.4893e-06
-5.24032e-06
1.6738e-05
-1.98791e-06
-2.403e-05
5.99814e-06
1.57708e-05
-1.61574e-05
-1.28781e-06
2.69345e-05
-9.29091e-06
-1.21068e-05
1.29284e-05
-2.42073e-05
1.76388e-05
-1.02078e-05
5.6108e-07
9.50841e-06
1.38304e-07
1.0527e-05
3.27481e-06
-2.40096e-05
6.75513e-06
4.33291e-06
-1.01237e-05
-4.20176e-06
2.38339e-05
-3.35679e-06
-6.62863e-06
4.03716e-06
-4.11914e-06
6.59053e-06
-3.3804e-08
-7.53185e-07
-9.56218e-08
8.82611e-07
1.9117e-07
1.6495e-06
-1.87447e-06
2.46303e-06
-3.02505e-06
7.63367e-07
-3.11012e-06
2.25113e-06
-1.50936e-06
3.15534e-06
-7.93668e-07
9.33806e-07
-1.44076e-06
-3.88938e-06
-1.10551e-06
3.41958e-06
1.5753e-06
3.23411e-06
2.86512e-06
-9.98861e-06
-9.82876e-07
3.11149e-06
3.3602e-06
-6.08401e-06
1.74094e-06
-3.30245e-06
9.77414e-06
1.24495e-06
-4.46384e-06
1.36207e-06
-2.6871e-07
-2.57323e-06
9.40488e-07
1.90145e-06
-2.25655e-06
1.88182e-06
1.06019e-07
3.50103e-06
-8.33081e-06
1.59439e-07
-2.89902e-06
3.68007e-06
-4.92632e-07
2.55352e-06
-3.17513e-08
1.42094e-06
5.70261e-07
-1.21856e-05
-6.07977e-06
-5.62333e-07
1.88277e-05
4.23846e-06
-7.57304e-06
-8.85101e-06
-6.06589e-06
4.22457e-06
1.16805e-05
1.87849e-06
-1.96249e-05
5.57975e-06
1.03253e-05
9.37172e-06
-1.50663e-05
1.43891e-05
-1.14725e-05
-1.64519e-05
-8.274e-06
3.61984e-05
5.93025e-07
-1.20217e-05
-4.37982e-08
-1.69325e-05
1.07362e-06
3.14703e-05
2.93048e-05
-7.77077e-05
2.85933e-05
3.95066e-06
-5.27993e-06
2.55992e-05
1.20032e-05
-1.77639e-06
5.48814e-06
-9.1561e-06
5.44434e-06
5.90111e-06
-6.32315e-06
-1.35436e-06
-4.63963e-06
1.60289e-05
7.73662e-06
6.56999e-06
-2.06298e-05
1.04784e-05
-4.09616e-06
8.69715e-06
-1.12833e-05
1.45359e-05
-3.34992e-06
-2.54699e-06
-1.2069e-06
7.10381e-06
5.98389e-07
-2.53889e-06
-1.40942e-06
-2.6717e-06
7.23096e-07
4.45458e-06
1.64088e-06
-8.76716e-06
2.85284e-06
2.32484e-06
2.53454e-06
-3.43255e-06
4.18048e-06
-4.88259e-06
-2.55708e-06
-1.11469e-06
8.55436e-06
1.16948e-06
-2.65701e-06
-3.39505e-06
-2.6857e-06
1.29809e-06
4.12779e-06
5.68334e-07
-7.38182e-06
2.00585e-06
3.42004e-06
2.78125e-06
-4.86993e-06
3.6724e-06
-8.35254e-06
-4.25054e-06
9.03121e-06
3.57187e-06
2.76916e-06
1.41441e-05
-2.52658e-05
1.11229e-05
-1.26043e-05
-3.29995e-06
-1.16352e-05
2.39664e-05
-8.24238e-06
8.51431e-06
-6.28873e-06
1.21905e-05
-6.80107e-06
3.19441e-06
4.51133e-06
2.41403e-06
-1.01198e-05
-2.05308e-07
-4.73919e-07
3.87364e-06
4.94665e-06
-6.40626e-07
5.85945e-06
-4.04525e-06
-2.28811e-06
-3.03535e-06
1.27684e-05
3.19332e-06
-4.82455e-06
5.10463e-06
-9.2024e-06
-4.14084e-06
1.05457e-06
1.22887e-05
3.39233e-06
-3.84044e-06
-8.75429e-06
-4.41361e-06
3.6651e-06
1.14514e-05
-1.2402e-08
-1.58526e-05
2.85154e-06
1.22649e-05
7.37485e-06
-1.12277e-05
1.1281e-05
1.27273e-06
-3.82858e-06
-8.44972e-06
1.10056e-05
-5.20067e-06
-7.20358e-06
1.3677e-05
-4.47793e-06
-4.55133e-06
7.55229e-07
8.68833e-06
-1.39215e-05
1.11835e-05
-1.49796e-05
-2.5049e-06
6.48486e-06
-2.26629e-06
-5.76633e-08
1.71374e-05
-1.42341e-05
-2.84556e-06
1.40647e-05
-1.47812e-05
6.58777e-07
-6.15903e-06
3.73611e-05
2.04186e-05
8.32322e-06
-4.3523e-05
1.70506e-05
4.02679e-06
-1.91104e-05
3.0002e-05
-2.50213e-05
-1.70182e-05
-1.43351e-05
-8.86148e-06
4.02147e-05
2.6106e-06
-1.45674e-05
-5.0614e-06
3.69379e-06
-1.54182e-05
-2.3245e-05
1.6936e-05
1.00028e-05
1.20189e-05
-5.06822e-05
1.03524e-05
-1.29008e-05
1.84269e-05
-6.76578e-06
1.28646e-05
6.56644e-06
-1.26653e-05
1.91002e-05
-1.37714e-05
-1.20945e-05
-1.97631e-06
3.39411e-05
-2.27902e-05
9.31883e-06
2.00378e-05
1.8726e-06
-3.73281e-05
1.55625e-05
-2.74614e-05
2.2905e-05
2.96467e-06
-1.23755e-05
-4.55723e-06
1.39681e-05
-1.91891e-05
1.19566e-05
1.01971e-05
-2.99815e-08
-3.15346e-05
2.4543e-05
-1.33708e-05
-1.57294e-05
-4.04913e-06
4.25602e-05
-2.0873e-05
2.87805e-05
-3.42738e-05
-3.0794e-06
1.68405e-06
3.86149e-06
-2.46613e-06
4.41142e-06
-3.20138e-06
-4.28944e-06
-1.17706e-06
7.27252e-06
-4.40489e-06
1.96061e-06
6.30578e-06
-1.51216e-07
-6.71981e-06
1.84832e-06
-5.20092e-06
2.63186e-06
-1.31028e-05
-4.78973e-06
7.43032e-06
1.04622e-05
6.72768e-06
6.76568e-06
-2.65961e-05
-2.89654e-06
4.83449e-06
1.2013e-05
-1.52733e-05
3.6376e-07
-6.50709e-06
2.33546e-05
1.08584e-05
-1.93661e-05
1.17817e-05
-1.45448e-07
-1.93101e-05
1.92547e-05
2.00915e-07
-1.52786e-05
1.54263e-05
-2.93147e-07
1.10307e-05
-4.56193e-05
-1.95223e-05
-1.12758e-05
4.62244e-05
-1.92224e-05
-5.93046e-07
-1.59332e-05
2.39121e-05
-2.4125e-05
-1.88597e-06
-2.17183e-06
-1.29018e-06
5.34799e-06
-1.738e-07
-2.18237e-06
4.70196e-07
-2.45888e-06
1.13249e-07
3.09313e-06
2.03667e-06
-7.58868e-06
2.27762e-06
9.28756e-07
1.62235e-06
-1.76805e-06
2.60978e-06
-3.18672e-07
5.59227e-08
1.14815e-06
-8.85405e-07
1.04124e-06
1.88654e-07
-1.54857e-06
2.39615e-06
-1.29898e-06
-5.51759e-06
1.10086e-06
6.81288e-06
-1.23362e-06
-5.58295e-06
4.17984e-06
-5.22481e-06
6.42886e-06
-1.59083e-06
7.08784e-07
3.38511e-06
-2.50306e-06
3.57653e-06
2.84456e-06
-8.01192e-06
7.24582e-07
3.56073e-06
2.29887e-06
-4.41505e-06
2.84077e-06
-3.90842e-06
9.76802e-06
-2.8917e-08
-1.54158e-06
-5.52221e-07
-1.76399e-05
2.53067e-07
1.69574e-05
4.29445e-07
1.53548e-05
9.17164e-06
-4.21664e-05
1.51762e-05
4.31598e-07
-2.76905e-05
-2.2422e-05
6.70699e-05
-2.76837e-05
4.22671e-07
1.20174e-05
-3.05295e-05
4.7716e-06
5.60862e-07
2.36066e-05
-2.37359e-05
1.81335e-05
-1.87448e-05
1.17215e-06
4.65118e-05
2.68006e-05
-9.27028e-05
-2.24737e-05
1.77582e-05
8.18498e-07
-1.84545e-05
-1.22199e-07
-1.55333e-05
-6.50271e-06
3.97942e-05
-1.72197e-05
2.50491e-06
3.93713e-05
3.80122e-05
-9.58381e-05
3.83822e-05
8.66903e-07
-1.78138e-05
4.96933e-05
2.97871e-06
2.06349e-05
2.50642e-06
-2.06365e-05
-1.72785e-05
-2.36305e-05
2.23002e-05
3.83679e-06
-4.12883e-05
5.4715e-05
-3.06754e-05
-1.17265e-05
-2.40615e-05
6.64633e-05
-2.32875e-07
-3.87476e-05
8.30512e-06
5.9761e-05
-7.29094e-05
7.18979e-05
-2.19394e-06
1.36718e-06
2.11457e-06
-1.28781e-06
3.63829e-06
1.05611e-07
-5.93784e-06
1.27068e-06
3.7348e-06
-4.47678e-06
-5.05731e-07
7.09708e-06
-1.81796e-06
-3.94664e-06
2.33406e-06
-4.04641e-06
3.09901e-06
-1.05381e-06
1.96556e-06
-1.97369e-06
1.06194e-06
4.0437e-06
-2.80457e-06
-2.29294e-06
-5.23018e-07
6.53228e-06
3.19113e-06
2.00367e-06
-7.16848e-06
2.20005e-06
2.05302e-06
2.19507e-06
-2.99597e-06
3.8721e-06
-1.26608e-05
-2.10422e-07
1.33522e-05
-4.80927e-07
1.22251e-05
7.57416e-06
-3.24601e-05
1.64775e-05
-4.46283e-06
-1.65709e-05
-1.34304e-05
4.33535e-05
-2.20149e-05
4.96309e-06
1.29396e-05
-2.73803e-05
1.59867e-05
1.35863e-05
1.69699e-05
3.43712e-06
-3.39933e-05
2.08284e-06
-3.57425e-06
1.50777e-05
1.45899e-05
2.50313e-05
-1.49108e-05
-1.36947e-05
-7.96474e-06
4.80737e-05
-1.78163e-05
2.44415e-05
-2.929e-05
-1.59874e-05
-1.53947e-05
-1.09447e-05
4.23268e-05
2.31894e-06
-1.54393e-05
-2.86705e-06
-1.55544e-05
2.47861e-06
1.9613e-05
1.26951e-05
-4.77474e-05
2.33304e-05
-6.5844e-06
1.52271e-05
-1.80864e-05
2.76128e-05
4.69116e-06
3.5089e-06
5.13267e-06
-1.33327e-05
-1.17167e-06
4.62613e-06
1.23671e-06
7.45349e-06
-5.11627e-06
-4.37927e-06
-6.10795e-06
1.51134e-05
-8.73644e-06
5.59388e-06
-4.11922e-06
5.46476e-06
-7.723e-06
1.22687e-07
4.48902e-06
-3.68753e-07
-4.24296e-06
5.19018e-06
-4.14871e-06
-9.18789e-07
-3.4187e-06
1.30979e-05
-2.87088e-07
3.58235e-06
-3.66401e-06
3.93806e-06
-8.46811e-06
2.51111e-06
-2.72175e-06
2.67475e-06
-9.67178e-06
-4.73827e-06
-2.17624e-06
1.65863e-05
5.07953e-06
-7.55934e-06
-7.19197e-06
-5.72739e-06
6.06865e-06
1.11399e-05
-1.06782e-06
-1.57994e-05
2.31198e-06
1.48965e-05
6.64294e-06
-1.52701e-05
6.77868e-06
1.186e-06
-7.837e-06
-3.10293e-07
6.9613e-06
-1.31768e-05
9.80724e-06
4.55559e-06
5.93326e-06
-2.69471e-05
6.79747e-06
-6.19383e-06
-9.1393e-07
-3.60692e-06
1.73657e-05
-8.25565e-06
1.4456e-05
-8.51622e-06
3.83976e-06
-4.96179e-06
2.08101e-07
-8.33494e-06
2.95404e-05
9.29635e-06
-2.27744e-05
8.53891e-06
9.65545e-07
1.46599e-05
2.39808e-05
1.5018e-05
6.85909e-06
-4.58579e-05
-6.88003e-06
1.5962e-05
1.48988e-05
-5.94235e-06
1.40803e-05
2.30539e-05
-1.64748e-05
-1.25215e-05
-7.51172e-06
4.46459e-05
-1.61696e-05
2.46199e-05
-2.57853e-05
9.78254e-06
9.75576e-06
1.5613e-05
-3.51513e-05
-1.01334e-06
1.38134e-05
-3.01754e-06
9.85993e-06
-1.11751e-06
-1.1127e-05
-7.0018e-06
2.79887e-05
-1.3632e-05
1.38752e-06
-2.90266e-06
9.71429e-06
-9.21622e-07
-9.22304e-06
-7.99764e-06
-8.3083e-06
2.5529e-05
8.41547e-07
-1.29949e-05
2.93033e-06
-6.34366e-06
-8.12435e-07
5.47003e-06
4.31255e-06
-1.61262e-05
9.41581e-06
-4.75821e-06
7.28688e-06
-1.59693e-05
8.39439e-06
3.25245e-06
1.64379e-06
6.00016e-07
-5.49625e-06
-5.00953e-07
2.73057e-08
3.7261e-06
7.9003e-07
3.52804e-07
-9.11234e-06
-3.83372e-06
1.35461e-05
-8.79813e-06
-5.81046e-06
-3.77423e-06
-3.21845e-08
-1.17823e-05
5.02433e-06
-5.01519e-07
-5.55855e-06
1.03574e-06
-7.12267e-06
-4.91994e-06
1.70669e-05
-1.377e-06
-6.2472e-06
-3.3138e-06
6.71117e-06
-4.77436e-06
4.63386e-06
-1.41949e-05
-2.49832e-07
2.04106e-06
-1.17453e-06
9.97219e-06
5.8156e-06
-9.67249e-06
-6.11531e-06
-5.11025e-06
-2.10711e-06
1.71896e-05
2.61319e-06
-1.90784e-06
1.74529e-06
1.12741e-05
-1.04062e-05
6.94472e-06
-7.10728e-06
-2.82189e-06
1.19888e-05
-5.54965e-06
1.43579e-05
-8.29919e-08
-1.46055e-05
3.30547e-07
-1.6377e-05
-1.10275e-05
4.17624e-05
-1.73674e-05
9.0747e-07
1.77449e-05
1.35033e-05
-4.58536e-05
1.67608e-05
1.31464e-06
-1.02745e-05
1.60079e-05
-1.41387e-05
6.90064e-06
3.388e-06
-1.3652e-06
-8.92344e-06
-3.18958e-06
7.30537e-07
9.35969e-06
2.78499e-06
-2.58657e-06
-6.06546e-06
9.9229e-07
7.85816e-06
-2.74831e-06
-5.90373e-06
-3.74632e-06
5.46915e-06
-7.85984e-06
-4.34399e-06
-1.89035e-06
4.83095e-06
1.40339e-06
2.60179e-06
5.28989e-06
-1.22357e-05
7.41553e-06
-6.70409e-06
-4.53847e-06
-4.58493e-06
1.39544e-05
-6.58039e-06
3.44531e-06
3.90424e-06
-5.19474e-06
6.73485e-06
-1.70772e-05
1.43223e-07
1.64995e-05
4.34477e-07
1.59195e-05
1.03413e-05
-4.3338e-05
1.58782e-05
1.84485e-07
-2.6677e-05
-2.17346e-05
6.49111e-05
-2.65935e-05
3.50956e-07
1.15223e-05
-2.77745e-05
5.66597e-06
2.05076e-07
2.44819e-05
-2.45025e-05
1.83369e-05
-1.86486e-05
5.16836e-07
4.84847e-05
2.98359e-05
-9.76764e-05
-1.65873e-05
-3.67497e-06
5.87246e-06
4.12591e-06
-6.32341e-06
1.22925e-05
-8.11152e-06
-7.85594e-06
-6.14755e-07
1.87797e-05
-1.23718e-05
5.83285e-06
1.06649e-05
3.32021e-06
-2.20154e-05
9.94408e-06
-1.47354e-05
1.51622e-05
-2.40467e-06
-4.0681e-06
2.28882e-06
4.18396e-06
-2.38869e-06
5.04729e-06
-5.06328e-06
4.19714e-06
-1.06539e-05
2.93198e-06
-6.14593e-06
5.50276e-06
-4.75003e-06
1.1866e-05
-2.79688e-06
3.09415e-06
-4.74567e-06
-3.74389e-06
-3.95966e-07
4.31599e-06
-1.76133e-07
3.0246e-06
2.29089e-06
-9.05938e-06
4.21416e-06
-1.58552e-06
-4.56039e-06
-3.33346e-06
1.22098e-05
-4.66902e-06
-6.7508e-08
2.28246e-06
-4.66058e-06
3.16316e-06
-1.21659e-06
4.35363e-06
-4.39417e-06
1.25713e-06
7.74714e-06
-5.14832e-06
-3.81541e-06
-5.02722e-06
-8.42877e-06
3.57625e-06
-1.31187e-05
-7.82214e-06
4.05206e-06
-1.26747e-05
-1.20237e-06
-2.80664e-06
-8.30704e-07
4.83971e-06
-8.60578e-07
-1.95239e-06
1.6106e-06
-8.89214e-07
-2.77801e-06
2.04535e-06
-5.78226e-06
1.78453e-06
-6.71309e-06
7.92773e-06
-3.55025e-06
-1.21105e-05
-3.8136e-06
-6.99333e-06
-6.53871e-06
4.33571e-06
-1.17475e-05
-1.24193e-05
-1.0179e-05
-1.04122e-05
3.30105e-05
-3.04123e-07
-1.29415e-05
8.26319e-07
-9.99466e-06
-4.88424e-07
9.77952e-06
7.58593e-06
-2.73601e-05
1.05929e-05
-1.30177e-06
5.53313e-06
-1.08887e-05
5.71376e-06
-2.53798e-05
3.93301e-06
2.85872e-05
-7.14038e-06
2.45034e-05
1.89443e-05
-6.88276e-05
3.98944e-06
2.4447e-05
2.63497e-05
-2.85635e-05
6.20328e-06
-2.21928e-05
7.29896e-05
1.85227e-05
-2.8142e-05
2.49171e-05
4.36928e-06
-1.41544e-05
-6.96773e-06
1.67528e-05
-2.49795e-05
1.3187e-05
1.61618e-05
6.45257e-07
-3.97791e-05
2.98487e-05
-8.26453e-06
-2.85519e-05
-1.86135e-06
4.84628e-05
-2.13061e-05
3.26317e-05
-2.89254e-05
6.97508e-06
4.98858e-06
5.49254e-06
-1.74562e-05
-5.26191e-06
8.04999e-06
4.18699e-06
1.23782e-05
-1.26515e-05
-5.08258e-06
-1.06807e-05
2.38133e-05
-8.77688e-06
7.8813e-06
-4.61879e-06
6.31628e-06
-7.90313e-06
-5.15632e-06
-7.24754e-06
-8.2693e-06
2.06732e-05
-1.24538e-06
-1.05074e-05
6.59649e-06
-6.20796e-06
-2.28496e-06
1.82044e-06
1.17066e-05
-1.9735e-05
1.07972e-05
-1.12617e-05
-6.81338e-07
1.88054e-06
1.84656e-06
-4.79208e-06
2.80397e-06
2.28309e-06
-2.94984e-07
9.63176e-06
2.86785e-06
-1.72917e-05
3.22145e-06
9.21428e-06
-1.94871e-06
-2.29829e-06
6.53009e-06
-5.87007e-06
3.62638e-06
3.4651e-06
-6.46733e-06
4.38826e-06
-2.83272e-06
-1.85786e-06
2.66852e-06
2.02207e-06
1.65016e-06
2.16466e-07
-4.69935e-06
-1.83707e-06
1.62937e-06
2.96733e-06
-6.93729e-07
-4.11068e-06
6.0005e-07
3.99665e-06
2.10179e-06
-2.57905e-06
5.37035e-06
-4.06845e-06
2.07213e-06
6.7326e-06
-4.73628e-06
5.46128e-06
4.48662e-06
-1.40164e-05
2.07252e-06
5.4609e-06
3.8433e-06
-5.88621e-06
4.11544e-06
-5.48886e-06
1.47931e-05
2.56911e-06
-3.9687e-06
3.81285e-06
-6.81374e-06
-1.44071e-06
3.81038e-06
4.44408e-06
3.33263e-06
2.94571e-06
-1.30921e-05
-3.14167e-07
2.20608e-06
3.60946e-06
-4.03516e-06
1.11534e-07
-2.06571e-06
7.88125e-06
3.3311e-06
-4.42055e-06
5.07576e-06
1.18177e-06
1.56054e-06
6.67281e-07
-3.40958e-06
3.58399e-06
-1.11466e-06
-1.28757e-06
-8.6126e-07
6.00579e-06
-6.28413e-06
1.03422e-07
6.84799e-06
4.13185e-06
-1.38256e-05
4.79491e-07
2.5377e-06
-2.78347e-07
-1.00419e-05
-2.76006e-07
9.70351e-06
6.1443e-07
2.07198e-05
6.29216e-06
-3.70539e-05
2.06215e-05
-1.77627e-07
-3.42583e-05
-3.13181e-05
8.61978e-05
-3.41181e-05
-3.17765e-07
-5.71597e-06
-1.58986e-05
-3.35419e-05
9.68223e-06
-5.73904e-07
-9.7324e-06
6.24075e-07
-1.69014e-05
-6.00334e-06
3.25869e-05
-1.70835e-05
-3.91737e-07
6.96838e-06
-3.64736e-05
1.97728e-05
-3.4664e-05
3.5629e-05
3.60757e-05
-8.96328e-05
1.02003e-06
1.50607e-05
3.40348e-05
-8.61494e-05
-2.23504e-07
2.69377e-07
1.75721e-06
3.47342e-06
-1.33921e-06
-3.89142e-06
2.25946e-06
-4.36404e-06
3.8618e-06
-1.96085e-06
7.69373e-06
-2.88139e-08
3.52993e-06
-4.84032e-06
6.28859e-06
-1.02088e-05
-1.00814e-06
2.93269e-06
5.60932e-07
-1.34632e-05
-1.33473e-05
-8.25011e-06
3.50606e-05
2.79542e-07
-1.33487e-05
-3.94007e-07
-1.33317e-05
2.63912e-07
1.84366e-05
1.30556e-05
-4.48238e-05
1.81145e-05
5.86007e-07
1.00123e-05
-1.03055e-05
1.98767e-05
1.65092e-05
1.9805e-05
1.28089e-05
-4.91231e-05
6.56523e-08
1.6674e-05
-2.30515e-07
1.99572e-05
-8.66023e-08
-1.97537e-05
-1.29957e-05
4.94233e-05
-1.96923e-05
-2.91925e-07
1.37565e-05
-2.06399e-05
2.07181e-05
1.32332e-05
1.6299e-05
9.1698e-06
-3.8702e-05
6.231e-07
-9.61783e-07
1.35719e-05
1.63619e-05
5.60204e-07
1.68509e-05
-1.60838e-05
-1.72896e-06
-9.56346e-06
3.99862e-05
-1.19968e-05
1.87953e-05
-1.89108e-05
-2.0868e-06
-4.20763e-06
1.03891e-06
5.25551e-06
-3.28531e-06
5.40035e-06
-4.20184e-06
3.34766e-06
-1.08406e-05
4.93743e-06
-3.39934e-06
-4.99176e-07
-4.97829e-06
1.51712e-05
-1.77301e-06
2.19507e-06
-1.82469e-06
-1.04658e-05
-2.32653e-05
-6.60235e-06
4.03334e-05
4.38492e-07
-1.0691e-05
-2.13208e-07
-2.30347e-05
2.07955e-07
-6.97392e-06
-3.90544e-05
3.94259e-05
-3.70897e-05
1.94247e-05
3.96571e-05
-9.97815e-05
8.10724e-07
1.84781e-05
7.33394e-07
-3.88649e-05
1.29445e-06
2.71759e-06
-1.35144e-06
-5.2865e-06
3.92036e-06
-3.4282e-06
-4.66321e-06
1.0809e-05
-1.59541e-06
-3.18423e-06