/*--------------------------------*- C++ -*----------------------------------*\
| =========                 |                                                 |
| \\      /  F ield         | OpenFOAM: The Open Source CFD Toolbox           |
|  \\    /   O peration     | Version:  v2012                                 |
|   \\  /    A nd           | Website:  www.openfoam.com                      |
|    \\/     M anipulation  |                                                 |
\*---------------------------------------------------------------------------*/
FoamFile
{
    version     2.0;
    format      ascii;
    class       surfaceScalarField;
    location    "0.4";
    object      alphaPhi0.water;
}
// * * * * * * * * * * * * * * * * * * * * * * * * * * * * * * * * * * * * * //

dimensions      [0 3 -1 0 0 0 0];
oriented        oriented;


internalField   nonuniform List<scalar> 
13152
(
9.97883e-07
2.02954e-05
-1.65252e-06
-1.96407e-05
1.87193e-05
-1.70948e-05
-6.26607e-07
-3.46819e-06
4.24829e-05
-3.46511e-05
3.5412e-05
-2.41337e-06
2.12039e-05
-7.54958e-05
2.85202e-05
-2.4411e-05
6.04639e-05
-1.6097e-05
-2.95661e-05
-2.84486e-05
7.41117e-05
3.83274e-07
-1.6775e-05
2.94697e-07
-2.99231e-05
7.40244e-07
7.84006e-06
5.1558e-06
-2.97709e-05
7.80931e-06
3.25447e-07
-5.0849e-06
-1.55543e-05
-2.98522e-05
-8.65749e-06
-1.46428e-05
-5.13823e-06
2.84385e-05
-7.38765e-08
-8.66858e-06
8.49647e-08
-1.41619e-05
-5.54823e-07
5.66389e-06
-3.05745e-05
1.6242e-05
-2.93367e-05
2.98624e-05
2.93753e-05
-5.16229e-07
3.46501e-08
-1.52636e-05
-2.99183e-05
1.0073e-07
-7.49527e-05
3.20969e-07
1.6006e-05
3.02508e-05
-6.74049e-08
7.46953e-05
3.5787e-05
1.26651e-05
2.53999e-05
-7.3852e-05
3.71496e-07
-7.22669e-07
3.61382e-05
1.241e-05
2.66223e-07
-1.87438e-05
7.36367e-05
7.78583e-05
2.91365e-05
-7.41898e-07
-2.93815e-05
9.86942e-07
-1.64016e-05
-2.68637e-05
7.24018e-05
1.69629e-07
-1.73131e-05
-8.07674e-06
8.00916e-06
2.37209e-07
5.30525e-06
-3.06951e-05
-4.96128e-06
-1.38933e-05
-2.90375e-05
-1.37879e-05
1.31799e-07
2.91537e-05
2.47951e-07
6.00527e-05
4.9696e-07
-8.8825e-06
-4.94809e-05
-3.42452e-05
1.06703e-05
8.31869e-05
-1.55413e-05
-1.69663e-05
-3.8059e-05
-1.62153e-05
6.38468e-05
2.45066e-07
-4.66172e-05
6.77385e-06
-1.84502e-06
-2.01388e-05
3.57479e-06
-1.35604e-05
-1.17671e-05
-6.73921e-07
-1.31344e-05
-3.58834e-10
3.66379e-09
-4.26677e-10
-1.91066e-09
4.29671e-09
-7.22481e-10
-5.19137e-10
-3.93779e-10
-7.73756e-09
1.07533e-09
2.5964e-09
-3.58602e-09
2.0142e-09
-9.6023e-10
-5.95514e-09
1.11447e-08
-7.55323e-09
-1.89453e-35
-2.87108e-35
-5.2253e-36
4.84841e-37
-2.51246e-12
1.713e-12
5.1808e-12
5.07759e-11
9.68123e-12
-9.15646e-12
-2.61813e-11
8.56931e-11
2.99885e-35
4.00865e-14
-1.23379e-35
7.39996e-37
7.27223e-13
9.14737e-15
-3.54114e-13
-8.62657e-15
3.93575e-13
-4.86155e-14
-5.18856e-16
2.26395e-14
-3.32974e-16
1.51969e-14
-1.36493e-15
-3.92869e-16
1.54344e-15
-1.86939e-14
9.01512e-15
6.02063e-16
-8.78856e-16
-2.57803e-15
1.41968e-08
8.28635e-09
6.04442e-09
-4.06389e-08
3.40616e-09
1.62825e-08
-2.23809e-08
1.97216e-08
2.93682e-08
-1.41971e-08
5.46996e-09
2.05952e-08
1.53181e-08
-2.78852e-08
5.52331e-09
1.49437e-07
3.39854e-08
-2.10517e-07
-2.71192e-08
1.19658e-07
2.67508e-08
2.62625e-07
8.6395e-08
-5.57552e-07
1.35196e-07
-8.80094e-08
-1.10437e-07
-3.09915e-08
1.95186e-07
-1.08287e-07
1.41618e-08
5.83536e-08
-1.12862e-07
1.0174e-07
-4.29612e-07
-1.85253e-07
-2.97559e-06
1.94817e-06
3.76757e-07
-1.76644e-05
1.21196e-05
4.29596e-08
-1.0575e-07
6.34948e-07
8.49541e-07
-1.57935e-06
3.12825e-06
-1.24743e-06
1.68773e-05
-3.32771e-05
1.19969e-05
-1.36219e-05
-2.01057e-05
-7.98604e-06
4.04604e-05
2.5892e-06
-4.48383e-06
-1.17272e-05
-1.46448e-05
4.96124e-08
-1.28207e-05
2.08412e-05
-1.25043e-05
7.31357e-06
-3.18614e-05
2.03249e-05
-2.84665e-05
3.31344e-05
8.49492e-06
-1.17051e-07
-8.33852e-06
5.03177e-07
-1.65804e-05
-4.50471e-06
2.9781e-05
7.07192e-07
-1.67011e-05
-5.19458e-06
-2.72589e-05
2.80347e-05
-2.76088e-05
1.40014e-05
-3.00521e-05
3.7686e-06
-8.65465e-05
1.5015e-05
1.40619e-05
2.16864e-05
-4.28551e-05
-9.1411e-07
6.57767e-06
7.95594e-06
4.11294e-06
7.52987e-06
8.33927e-06
1.99212e-05
-6.31593e-06
1.87772e-05
8.05264e-06
4.55175e-111
2.80119e-36
5.98559e-39
-3.72773e-36
-6.8995e-111
-4.07451e-111
-6.4311e-111
2.1707e-39
2.79903e-36
-1.54325e-111
-5.52779e-111
-8.24151e-111
-5.39346e-111
-1.10644e-110
-5.87119e-39
8.04132e-39
1.95986e-40
1.96497e-05
5.80478e-07
-2.1e-05
-2.74104e-08
-2.44842e-05
-2.81271e-05
7.13309e-05
4.55953e-07
-2.50328e-05
-2.7891e-05
2.79617e-05
3.3373e-08
2.31976e-05
-7.60538e-05
-2.15343e-06
1.99001e-06
3.98041e-08
6.57811e-180
1.42934e-180
-1.89108e-107
-3.71353e-107
9.13943e-181
-2.62216e-179
-3.92666e-179
-1.04872e-180
-1.56453e-180
9.58311e-60
1.17992e-61
-9.31711e-60
-9.41443e-15
6.98984e-15
1.93194e-13
1.61652e-14
2.18107e-13
1.00667e-12
-1.83485e-13
-1.15098e-12
4.76014e-13
-8.87227e-13
-3.11169e-13
1.85965e-12
-3.26671e-13
-8.00529e-13
2.31234e-12
-1.02876e-13
-3.24939e-12
8.27652e-13
2.04107e-12
-6.13375e-13
9.32207e-13
-1.0994e-12
3.98865e-13
3.08563e-12
-2.68306e-15
-2.04514e-12
1.40198e-12
-7.39274e-15
1.69175e-12
3.41189e-13
8.32151e-12
9.04692e-14
-3.4125e-15
-8.52256e-14
2.30377e-13
1.63598e-12
-2.93985e-14
1.55227e-12
-2.93245e-14
6.23871e-14
1.98776e-14
9.41643e-14
-3.87526e-14
-2.35647e-14
1.29561e-12
1.00641e-12
5.88914e-14
-6.69627e-15
1.16223e-13
-1.18106e-13
1.23232e-12
-5.57164e-14
1.26044e-12
-2.21697e-14
3.34673e-14
-3.99723e-14
-1.64509e-14
-1.48769e-14
1.35415e-14
2.84172e-14
1.29896e-15
-3.4066e-17
-1.48945e-14
-4.7407e-17
1.17145e-14
-5.32655e-17
4.61217e-16
1.55877e-14
6.10615e-18
-7.71806e-17
8.62362e-16
-4.5518e-17
-7.42925e-16
3.18821e-16
1.58992e-14
1.05408e-16
-1.29365e-16
1.62614e-15
-3.25385e-16
-1.78184e-15
6.58071e-15
3.90346e-15
2.63424e-16
5.78347e-16
-9.71344e-16
3.05539e-15
-2.30733e-15
-9.71656e-17
-3.09781e-15
-8.81837e-16
7.57537e-15
-1.06053e-15
8.88781e-16
-3.11876e-16
-7.84334e-18
-6.91983e-17
3.72924e-17
6.12002e-17
9.26038e-19
9.97673e-19
-8.37124e-18
2.35093e-17
-1.49957e-17
-1.51343e-17
1.99335e-17
7.98165e-17
5.02203e-18
-1.69099e-17
-2.8877e-17
-5.28176e-18
7.28225e-17
-2.58341e-17
-4.05073e-19
3.70901e-17
-5.35336e-17
8.64321e-17
-7.4166e-19
-4.71683e-19
1.17401e-18
4.08447e-20
9.75668e-19
-6.45753e-19
-1.94571e-18
-2.36189e-17
2.41146e-17
-2.59306e-18
1.1114e-18
3.27206e-18
3.23926e-18
-5.65232e-18
1.16124e-16
-2.34844e-17
1.11032e-16
-1.03124e-19
3.45492e-16
-4.37079e-18
3.83493e-18
-3.03133e-17
1.37295e-22
-1.85042e-22
4.73597e-20
-4.72111e-20
-2.56784e-22
2.61339e-23
5.69606e-22
4.30156e-22
-7.21309e-22
7.89789e-20
-1.87611e-19
7.63918e-21
-2.04647e-18
-6.85572e-19
1.32739e-19
-2.89963e-18
2.79684e-18
-1.08019e-17
-1.1337e-17
2.18624e-17
-1.24639e-17
1.01724e-17
3.0774e-18
1.44004e-17
-4.21691e-17
1.34283e-16
-8.65559e-17
-5.84817e-17
-1.00973e-17
1.65894e-16
-3.15102e-18
1.99613e-18
-7.54925e-17
-5.62918e-17
-9.73603e-18
3.01767e-17
9.30192e-18
1.70643e-16
2.9904e-17
-2.57453e-16
4.51881e-16
-3.13047e-16
-1.21705e-17
-1.06426e-17
-2.84211e-18
1.65692e-21
4.15534e-17
-1.5612e-17
4.78055e-16
2.0901e-14
1.3297e-14
1.36962e-14
-8.02132e-14
-4.66369e-16
8.06451e-15
1.18831e-14
8.0009e-15
-2.27434e-16
-8.31711e-15
-5.39127e-15
2.02512e-14
-8.01909e-15
-6.78954e-16
1.89083e-15
-4.85815e-16
3.40427e-15
-7.57128e-29
-2.11199e-29
6.50411e-28
6.79431e-30
1.05035e-28
1.21427e-27
-1.24211e-27
5.97299e-26
-5.92396e-26
-3.93896e-23
-7.49575e-24
5.66604e-23
-2.46586e-23
2.0164e-23
2.62071e-23
-4.13571e-23
2.49699e-23
-4.91752e-23
-1.30129e-22
2.92553e-23
1.8012e-22
3.07198e-23
2.21858e-23
3.20412e-22
-9.74581e-24
1.18498e-23
2.66937e-23
-7.48348e-24
2.18752e-23
3.02455e-23
-7.03784e-23
5.5422e-22
-4.45353e-23
9.32857e-21
3.90639e-21
-3.9567e-22
-1.00283e-21
-2.57101e-21
-1.68349e-21
1.35152e-20
-3.56392e-21
5.75e-21
1.45054e-21
3.42062e-22
-2.48235e-21
3.60395e-21
-2.67701e-21
5.7448e-21
-5.55959e-21
-2.83988e-18
2.1967e-19
-2.01864e-18
4.03593e-18
6.17039e-18
-1.02405e-18
-5.76535e-18
-1.24924e-18
9.0046e-18
-1.18641e-18
1.62113e-18
-6.56501e-20
6.37312e-18
-1.25911e-17
9.35373e-19
-4.83019e-19
4.72017e-18
3.25869e-16
1.54902e-16
-1.23484e-16
-5.27955e-17
-4.7896e-17
-3.99109e-16
-1.18463e-16
3.13025e-16
5.25008e-17
7.71465e-17
-1.54907e-16
9.83492e-17
-1.19141e-17
2.97403e-17
8.64564e-17
2.22949e-17
9.55532e-17
7.64717e-17
-4.58842e-17
-1.52018e-16
-5.34704e-17
2.51929e-15
2.0429e-15
-3.03939e-15
-1.65975e-15
-6.12791e-16
-3.80062e-15
-2.2522e-15
3.32577e-15
-1.18449e-15
1.02578e-14
1.56591e-15
-4.62183e-15
-2.13836e-15
1.04853e-14
-3.06234e-15
8.18774e-09
-5.64077e-10
-1.99009e-09
1.15401e-09
-2.54249e-09
-2.97682e-11
2.01812e-08
-8.03809e-10
-1.72012e-09
3.50561e-09
-3.3132e-11
-5.07508e-09
4.7843e-09
2.50855e-09
-2.68889e-09
8.99972e-09
-3.26144e-09
-8.23537e-06
3.17238e-06
6.48693e-06
-1.40361e-06
1.53158e-05
8.91737e-07
-2.46392e-05
2.70501e-06
8.84256e-06
-4.10039e-06
7.95565e-06
1.58084e-06
9.82401e-06
-1.29321e-05
6.28745e-06
-2.88884e-05
2.86069e-05
-1.3879e-05
2.90243e-05
5.93451e-06
-2.4875e-05
-2.49779e-08
-2.87766e-06
1.16259e-08
4.57601e-06
-1.41592e-06
8.82949e-06
2.35923e-07
-1.19869e-05
-6.72894e-07
1.08863e-05
2.96572e-06
1.13177e-05
-1.60526e-05
1.81109e-05
-1.01708e-05
1.89066e-05
-8.87339e-06
4.67479e-05
-3.80989e-05
-1.53185e-05
-2.69592e-05
8.04316e-05
1.21898e-07
-4.44795e-05
9.13835e-07
-1.56612e-05
5.09444e-07
1.53281e-05
7.94842e-06
-3.89143e-05
1.46119e-05
1.24729e-06
6.98968e-05
-2.93364e-05
-8.49312e-05
-3.79699e-05
8.22972e-05
5.65915e-06
-2.70153e-05
-1.79983e-05
6.78427e-06
6.71393e-06
-2.54894e-05
-3.6235e-06
-7.51236e-06
8.78525e-07
3.21935e-05
-2.90059e-05
-4.26082e-06
1.26145e-05
-1.23491e-05
3.70043e-07
-2.6697e-05
8.32137e-05
5.03955e-06
2.75427e-06
-2.02678e-05
6.16765e-06
-2.33446e-07
-4.30159e-06
-1.44605e-05
-2.8931e-05
-2.08977e-08
-4.55917e-09
3.6025e-09
1.92125e-08
1.15419e-08
1.05371e-08
-3.79516e-08
4.1709e-09
3.33188e-11
1.45944e-09
6.01105e-09
1.84481e-10
7.67948e-10
2.25375e-09
-3.53399e-10
2.24228e-09
1.48056e-09
4.93154e-06
1.29142e-07
-3.21048e-06
-8.17299e-08
-1.37273e-07
-2.90302e-07
6.11088e-06
-5.99114e-09
6.00996e-10
3.01803e-07
-6.50824e-08
-3.3732e-06
-8.74399e-09
2.64211e-08
6.19174e-09
4.22357e-09
-1.88056e-08
7.83475e-09
8.71464e-10
-3.94264e-09
3.20772e-09
-6.45419e-08
-8.43138e-09
-5.3219e-09
4.78783e-09
6.57403e-09
9.27996e-09
7.79485e-09
-2.52959e-08
1.79317e-08
-1.36565e-08
7.67126e-09
-1.0406e-08
7.83795e-09
-3.28627e-09
1.63793e-08
9.84731e-09
-1.22482e-08
1.55765e-08
-1.05265e-08
-4.3369e-09
2.31249e-08
-6.10812e-09
-4.55948e-09
4.49047e-09
-7.4395e-09
2.34433e-08
-1.93669e-08
-1.80948e-08
-6.25779e-08
8.78269e-08
-3.93567e-08
1.56544e-08
-2.46337e-08
8.75414e-09
-6.40884e-08
3.41141e-08
6.29982e-08
8.33975e-09
-1.05455e-07
-9.18762e-09
9.834e-09
3.34649e-08
4.76997e-08
4.74236e-07
-2.0846e-08
7.9517e-08
-8.84283e-09
7.23939e-07
2.80307e-08
-5.26776e-08
3.79844e-09
-3.34126e-08
5.25988e-08
-1.1573e-07
1.30016e-07
-1.60071e-07
-2.24922e-07
7.0727e-09
3.21715e-07
-1.03824e-07
1.51657e-06
1.54463e-06
-3.48629e-06
1.43684e-06
8.83951e-08
-5.751e-08
2.2533e-07
1.53916e-07
1.38834e-06
9.90234e-08
-1.3853e-05
-1.75096e-06
1.163e-05
-2.46184e-05
9.60803e-06
1.95783e-06
-2.38582e-05
3.01283e-07
5.13366e-06
-3.27542e-07
-3.1305e-06
7.89989e-07
-6.13581e-06
-2.06881e-06
1.46104e-05
3.72751e-07
-2.38249e-06
-3.1595e-07
-7.2594e-06
7.26123e-06
-9.49942e-06
4.41969e-06
-9.68676e-06
5.0196e-06
-2.64897e-05
-4.52751e-06
-4.21285e-06
9.5192e-06
-1.71373e-06
-7.3278e-06
4.5823e-06
-7.27363e-06
2.0899e-05
-4.44649e-05
-3.43441e-06
-4.13247e-05
-1.16692e-05
2.82944e-05
1.67619e-05
-6.13454e-05
9.90913e-06
1.92752e-05
-5.37894e-07
-1.71434e-06
-8.34667e-07
3.13899e-06
-3.77313e-07
-3.50505e-07
3.49185e-08
-7.98101e-07
-1.81217e-06
3.21756e-06
3.11515e-07
-4.42803e-06
9.03396e-06
-1.57176e-05
5.49417e-07
-6.97081e-07
8.97597e-06
-3.38243e-08
-1.65572e-07
3.16353e-10
2.10807e-07
8.07818e-10
1.58116e-08
-5.00948e-08
-1.89673e-07
-8.66509e-09
3.42942e-07
-2.50462e-08
-4.64694e-07
2.03733e-07
1.96933e-07
1.88359e-07
-1.63887e-07
4.19245e-07
1.55869e-09
3.11603e-08
-2.79911e-08
1.04777e-09
2.90472e-08
-1.4748e-08
-5.61011e-09
-2.49672e-08
9.06293e-08
-2.1762e-09
1.79463e-08
-3.08254e-08
3.0685e-08
-1.39943e-08
2.18111e-08
5.3564e-09
-6.4863e-09
1.38474e-08
5.48994e-08
-5.27967e-09
-2.48698e-09
-2.3673e-08
-7.09476e-09
-5.41185e-09
-1.24291e-09
8.43114e-09
-1.49345e-09
-3.51657e-09
-1.6797e-09
-4.22816e-09
-2.52139e-09
5.09226e-09
1.22587e-09
-1.21387e-08
7.88718e-10
-4.19876e-09
9.20724e-09
-1.12237e-08
7.02146e-09
4.7275e-10
4.83122e-10
4.91846e-11
-6.76151e-10
2.61895e-10
-2.1001e-10
3.97975e-10
3.27182e-10
4.02368e-10
7.41679e-10
-1.10415e-09
1.19519e-09
-2.49463e-10
2.42412e-09
2.66062e-10
-1.50249e-10
-1.26886e-09
-1.17256e-10
2.25719e-10
-6.30101e-11
3.32209e-10
-6.76546e-11
2.92136e-08
1.31326e-07
-4.18843e-07
-4.3796e-08
-4.49496e-08
2.08871e-09
1.70479e-08
-4.54749e-07
-9.94694e-07
6.22763e-07
3.31232e-06
-1.06233e-05
3.49805e-08
5.10809e-08
-3.72796e-08
1.69824e-08
2.86909e-07
2.14659e-06
-3.90648e-05
-2.7904e-06
3.97092e-05
-4.12772e-05
3.82628e-05
5.16132e-06
3.66925e-05
-0.000117034
4.43668e-05
-4.01603e-05
-7.34659e-06
-3.70373e-05
0.000121107
-3.95925e-06
5.07185e-06
-7.42679e-06
-1.41002e-12
-4.23689e-13
4.95663e-12
1.68218e-11
-1.55535e-15
2.59826e-12
-4.47186e-13
2.11041e-12
-5.69089e-13
7.19303e-12
-4.26729e-12
6.58925e-14
-7.38108e-12
5.96685e-11
-5.45929e-12
6.16182e-12
-2.10857e-12
1.6101e-11
1.82562e-11
4.59614e-11
-1.50898e-11
7.52865e-12
1.3233e-11
-3.81161e-12
1.5734e-11
1.24237e-11
-2.72301e-11
1.16213e-11
2.97503e-11
3.05383e-11
-1.01801e-11
9.7775e-12
3.97336e-11
3.53511e-11
-4.33854e-11
1.89836e-10
4.36225e-11
-2.27231e-10
3.65389e-10
-3.26265e-10
-1.75208e-10
-3.28983e-11
5.03104e-10
-1.50687e-10
3.70596e-11
1.29381e-10
6.61606e-11
-4.701e-10
6.17854e-10
-8.0474e-10
4.9701e-10
2.64693e-09
1.20077e-10
-1.95846e-09
-5.51107e-10
-1.29834e-08
5.29763e-11
1.64472e-08
1.38917e-09
-1.86839e-09
9.8303e-10
-3.98289e-10
-2.65753e-09
-4.53028e-09
4.97164e-09
-8.33796e-09
2.26899e-08
1.69121e-09
1.64667e-10
-1.02926e-08
-1.67309e-09
2.00498e-08
-2.00595e-09
3.17197e-08
1.06369e-09
-2.69699e-08
-4.15934e-09
-5.49894e-09
-3.80723e-09
4.22118e-08
3.06017e-10
-7.25501e-09
-1.19188e-08
-5.44214e-10
1.08837e-08
3.75819e-09
-2.41868e-08
-3.53703e-08
3.15441e-08
-5.74472e-08
-9.78256e-07
-7.62662e-08
1.27996e-08
9.11511e-07
3.13638e-06
2.93476e-06
-7.69223e-06
3.50991e-06
-2.07639e-07
8.85983e-07
-7.06353e-07
-5.33294e-09
-2.6671e-07
1.96389e-06
3.12766e-07
1.38794e-06
3.20804e-06
-2.2517e-07
4.71252e-06
5.58395e-07
-3.70258e-06
4.22061e-06
-3.75678e-06
-2.08362e-09
-7.66919e-06
1.63214e-05
-7.9669e-06
8.54404e-06
2.99239e-06
-1.59833e-05
3.22472e-07
-1.96215e-08
1.42548e-06
-6.52211e-07
-6.21177e-06
2.28457e-07
4.85503e-06
-1.04139e-05
1.10202e-05
-1.24195e-06
9.26385e-06
-2.58583e-05
2.07924e-06
-2.21018e-06
-2.85205e-08
-1.92913e-06
8.35145e-06
-1.7529e-06
1.08473e-05
5.23477e-06
3.99562e-06
7.34184e-06
1.86065e-06
-1.37493e-05
-2.10053e-07
3.46785e-06
2.64417e-07
5.64428e-06
-3.43156e-07
1.31432e-06
1.00499e-05
-9.5151e-06
8.60378e-06
-4.25893e-06
-1.09127e-05
-1.14221e-06
-3.74201e-06
-1.19659e-05
2.55578e-05
-8.74497e-08
-1.19472e-06
1.43532e-07
-8.54396e-06
-1.29782e-06
-3.43568e-06
-9.8469e-06
-8.56105e-10
-7.51356e-08
1.41255e-09
2.94072e-08
-4.41048e-08
-6.37304e-08
3.17861e-08
4.65096e-08
-2.19519e-07
-5.80466e-10
-2.12255e-07
4.56563e-08
3.36002e-09
-1.96657e-08
-5.04456e-07
4.51199e-07
-1.29604e-06
7.90737e-08
3.89102e-07
-6.72893e-07
-6.01368e-08
5.44532e-08
-6.17175e-08
5.89617e-08
-3.95973e-09
2.13741e-07
1.11977e-06
7.5351e-07
-1.95346e-06
1.23814e-07
2.9448e-07
-3.78855e-08
5.73197e-07
-2.08654e-08
-8.52877e-08
1.19045e-07
3.08961e-07
-2.97579e-08
-1.25717e-07
3.82361e-07
4.09073e-08
3.66435e-08
1.99732e-08
-7.95414e-08
7.49293e-07
-1.11785e-06
-4.43099e-08
-1.73866e-10
6.62104e-07
-8.51627e-09
2.4738e-08
-3.11099e-09
-1.36655e-07
1.88406e-07
-1.28331e-08
1.88979e-09
7.19018e-09
1.42974e-09
6.8374e-07
-1.2204e-06
-1.11188e-06
-4.77322e-08
2.94837e-07
-1.21412e-06
-3.37697e-08
-4.87023e-07
-4.05512e-08
3.21507e-08
-7.12825e-08
-1.96341e-08
1.15713e-07
-2.58963e-07
4.58471e-08
-6.07996e-08
8.94831e-08
-2.20097e-08
3.48356e-07
-9.25188e-08
-2.08013e-07
3.70966e-07
-1.32128e-07
-2.44267e-07
-3.29251e-07
-2.43012e-07
-8.81017e-08
1.17853e-07
-8.78503e-08
8.8435e-08
-2.7431e-07
1.31339e-07
-3.64176e-07
1.26601e-08
3.43481e-12
-1.28355e-10
-7.23044e-11
2.14176e-10
-1.9419e-10
1.37124e-10
6.99258e-11
-2.27315e-11
-1.90004e-10
1.97528e-10
1.85327e-11
-2.23835e-10
9.57853e-12
4.85578e-10
1.2687e-10
2.79543e-11
-1.44449e-10
-1.32667e-11
1.41429e-10
-2.76913e-11
1.70143e-10
-1.36547e-11
-2.9333e-12
-4.51361e-12
-2.01814e-12
7.42403e-12
-4.52883e-13
-5.6519e-12
3.08763e-12
-2.97303e-12
7.63452e-13
-1.58641e-12
9.48548e-13
-6.15339e-12
1.56094e-11
-6.6122e-11
-2.93561e-12
-3.80527e-12
3.87536e-12
-1.45635e-11
2.51406e-12
5.73216e-12
-1.29439e-12
2.22389e-11
7.7484e-12
-9.01262e-11
3.46754e-12
-8.2083e-12
-3.54943e-13
9.74971e-12
-9.14057e-12
-3.10056e-18
1.51295e-11
-2.71949e-11
1.21915e-11
-6.33036e-14
-3.94553e-15
-1.50285e-14
1.16924e-13
9.88006e-14
-3.84035e-14
-6.83171e-14
-1.29041e-13
2.00493e-13
-5.356e-14
1.82391e-14
-1.8328e-17
1.83232e-13
-7.5523e-13
2.11627e-14
2.37324e-14
1.75522e-14
1.00717e-15
-2.87123e-18
-3.38641e-17
6.53842e-16
-8.21697e-17
1.73935e-15
-6.61982e-18
1.15256e-16
-8.68953e-17
7.55977e-16
-3.02212e-19
-2.04513e-19
-2.5225e-18
3.69251e-18
-3.27518e-19
-1.07244e-17
1.2419e-17
-1.63487e-19
-2.06941e-19
9.1518e-20
5.39521e-19
-7.13725e-19
5.13319e-19
-5.08038e-19
8.12261e-18
-1.46128e-17
6.2362e-18
9.41235e-18
-4.65956e-18
-7.77455e-18
4.93441e-17
-7.89025e-18
-3.75339e-18
4.81677e-17
-6.95257e-19
-5.93896e-20
5.61457e-19
7.87058e-19
-3.22542e-18
1.02666e-18
-2.29694e-18
-2.62715e-18
1.04856e-17
-1.07963e-17
4.27213e-13
-2.00446e-13
-2.93755e-13
2.39951e-15
-5.77274e-13
-2.5711e-13
1.06392e-12
-1.50149e-12
-1.2205e-13
1.69267e-12
9.39733e-13
-4.96143e-12
9.92402e-13
3.51687e-13
-5.79048e-13
1.15639e-12
-8.67193e-14
5.75705e-12
2.10589e-13
7.74628e-12
-3.37193e-11
-1.45241e-13
1.51125e-12
2.96292e-12
1.39091e-11
-6.19541e-11
2.35321e-12
-9.46157e-12
3.58433e-12
-3.61619e-12
2.0531e-11
-7.21174e-12
1.54022e-11
-2.7788e-11
3.11245e-10
-3.62823e-12
-1.97323e-10
2.85769e-10
-7.43854e-12
2.47147e-10
2.06804e-10
-1.74601e-12
-9.3227e-12
4.923e-10
-1.9424e-10
-7.61986e-10
9.32704e-11
7.64332e-10
8.75555e-11
-7.26291e-13
-2.41524e-10
-2.91233e-12
2.0548e-10
-2.56581e-12
2.68335e-10
-5.03854e-12
1.9464e-10
1.09571e-10
6.88087e-11
-2.78783e-10
1.2232e-10
6.62343e-10
-3.51017e-10
1.04403e-09
3.31937e-10
2.17511e-10
1.31322e-09
-2.03688e-10
3.08595e-10
1.16759e-10
1.52334e-11
3.33597e-09
1.22635e-09
4.49071e-13
9.58993e-12
-4.38159e-10
1.16163e-09
-1.30506e-11
-6.6678e-11
5.6594e-11
-2.43058e-11
1.30146e-11
3.96999e-11
1.12972e-10
-1.80893e-10
-6.80426e-11
-5.81324e-11
-5.01658e-11
1.10064e-10
2.51161e-10
-1.06729e-12
1.07022e-12
-2.28364e-13
6.10606e-13
-1.71868e-12
-1.53945e-13
6.14876e-13
-5.36052e-13
6.23185e-13
-1.04093e-11
-3.89618e-14
1.05938e-11
-1.97017e-13
-3.03891e-11
-2.39967e-12
2.37392e-12
-1.60733e-12
-1.9059e-07
8.074e-08
-8.08155e-10
-1.13846e-06
1.10076e-07
-2.62115e-07
-6.7259e-07
4.54856e-08
5.38817e-08
-2.9534e-08
-2.92802e-08
5.98699e-08
-3.71745e-09
8.68086e-09
4.78255e-08
-1.14865e-08
-3.05335e-07
1.64356e-05
7.48961e-06
-1.68788e-06
-2.22324e-05
-3.45919e-06
6.732e-06
1.31712e-05
-4.37488e-06
8.36229e-06
1.42114e-05
6.96636e-06
-2.28593e-05
2.00429e-07
2.07493e-05
1.8482e-05
-1.58832e-05
2.70153e-05
-4.02971e-05
-8.64206e-06
8.40055e-06
4.05574e-05
8.78898e-06
-3.88881e-06
-4.51723e-05
-6.69002e-06
7.03904e-06
3.15293e-05
-2.43757e-05
-1.73053e-05
-3.61733e-06
4.07495e-05
3.85533e-05
1.85635e-05
-6.09893e-05
7.83235e-06
3.91275e-05
1.4686e-05
-1.88281e-05
1.87148e-05
-2.20127e-05
-2.06491e-05
-8.51647e-06
5.08874e-05
-2.97434e-06
-4.17772e-05
-2.29261e-05
-4.8215e-07
7.87006e-06
-2.82895e-06
-2.79315e-05
7.73515e-06
-3.11012e-07
8.83733e-06
1.28379e-05
-2.44659e-05
2.36759e-05
-7.03906e-06
3.84803e-05
-6.7335e-05
5.08071e-05
-3.6876e-05
-1.48845e-06
3.17783e-05
1.44575e-05
6.99026e-06
1.02338e-05
-3.45237e-05
-8.89137e-07
1.2501e-05
1.50581e-05
-8.93329e-06
-2.59788e-06
-2.79568e-06
3.234e-05
-1.33077e-05
2.26167e-05
2.46555e-05
1.52458e-05
-4.32509e-06
-1.73653e-05
3.93312e-05
-1.13525e-05
-8.57546e-06
-1.30516e-05
6.02494e-05
-6.09913e-06
-6.32998e-07
8.09207e-06
3.48744e-06
-1.72691e-05
9.58057e-06
-8.60646e-08
3.72921e-06
-1.19585e-05
2.52081e-05
-9.60151e-06
5.59954e-05
-2.99905e-05
-6.11434e-07
2.69329e-05
3.7629e-06
2.32403e-05
2.92072e-05
1.07756e-06
2.17392e-05
2.70429e-05
3.42969e-06
-2.13594e-05
4.05815e-05
1.35956e-06
1.53044e-05
1.91405e-05
4.49965e-06
-3.91023e-05
-1.67977e-06
1.50267e-05
1.68139e-06
-2.6028e-05
1.40598e-05
-5.98959e-05
4.21831e-06
6.47798e-06
2.84347e-06
-1.66856e-05
5.53719e-07
1.94855e-06
3.64796e-07
1.73223e-06
1.98028e-06
6.14943e-06
1.26408e-06
1.49001e-06
1.17796e-06
9.93954e-07
5.5225e-06
3.20223e-05
1.25443e-05
3.12961e-05
1.0295e-06
-3.94852e-05
-3.05041e-05
-7.69399e-05
-9.95962e-06
-1.37217e-06
1.5924e-05
-5.14836e-06
-7.07282e-08
-6.15311e-08
-2.78134e-08
-3.49827e-09
-3.68799e-08
-3.03729e-08
-4.71522e-08
-1.7816e-08
1.30748e-08
-4.53845e-08
4.52567e-09
-1.27652e-07
-1.58543e-08
-1.58852e-07
-7.24319e-08
-3.23447e-05
-4.24152e-06
1.71341e-05
1.48231e-05
-5.09915e-05
-2.71314e-09
1.64591e-05
1.20785e-07
-1.67458e-05
1.17739e-05
3.78344e-05
1.72822e-05
2.03491e-05
-5.41139e-05
1.20371e-05
1.75455e-05
5.72482e-06
-1.74643e-05
2.40399e-05
-2.76749e-05
1.6735e-05
-2.38122e-05
3.50798e-05
2.69809e-06
9.86867e-06
9.42041e-06
7.22251e-06
4.46888e-05
3.75237e-07
-4.24654e-05
6.4553e-08
-2.45028e-05
-2.19875e-05
9.2741e-05
9.41565e-07
-2.27426e-05
-2.01424e-05
1.83752e-05
1.82285e-06
3.97289e-06
-4.59209e-05
-3.65769e-05
3.40561e-05
-7.42714e-05
-5.91589e-06
-1.59676e-05
4.79381e-06
1.47928e-05
8.3816e-07
-1.22859e-05
3.45282e-07
-2.74008e-05
2.48449e-06
-1.95635e-05
-1.2804e-05
3.2997e-05
-4.78546e-05
1.60731e-05
4.88362e-05
1.24773e-05
-8.85855e-05
4.72585e-05
7.42577e-07
6.92999e-05
-0.000104499
8.50824e-05
-9.1123e-06
-1.73325e-05
1.27422e-06
1.23557e-05
5.90757e-06
1.2162e-06
-6.30036e-06
-8.65005e-07
-3.39746e-05
-1.22261e-06
4.02779e-05
1.72016e-06
-3.44146e-05
6.51148e-06
-2.27004e-05
9.83213e-06
-3.78194e-05
4.24075e-05
-3.5481e-05
3.60515e-05
1.21455e-06
1.31535e-06
-7.11878e-05
3.07766e-05
-5.20499e-05
2.96944e-05
-1.83403e-05
-1.77956e-05
-7.23184e-06
4.35161e-05
-6.70773e-07
-1.72168e-05
-3.05913e-07
-1.63198e-05
1.28915e-05
-5.33278e-05
2.34063e-05
3.92219e-05
3.73672e-05
-9.70159e-05
-8.96547e-05
-2.35336e-05
-3.71494e-05
-5.95024e-08
5.03749e-07
1.2715e-05
-2.56831e-07
-1.26061e-05
2.11852e-07
-2.76183e-05
-9.70933e-06
5.01893e-05
-6.46763e-07
-2.67977e-05
7.81041e-06
-4.48024e-05
2.4471e-05
-5.10804e-05
4.93302e-05
-3.03125e-05
-3.29496e-07
-8.03993e-05
-1.59831e-05
-2.763e-05
-2.79542e-05
-9.13492e-07
-1.47143e-05
1.97307e-09
-2.73133e-05
2.7175e-05
-0.000125659
1.19633e-05
-1.84794e-05
6.54716e-07
-3.08627e-08
5.37135e-07
6.58626e-08
1.77796e-07
7.93725e-08
-3.26249e-07
-4.86526e-08
1.18769e-07
4.84562e-07
2.63714e-07
-2.89905e-07
7.78876e-07
-2.08143e-07
-1.55228e-07
1.42347e-06
-2.45222e-07
3.60302e-07
-3.74994e-07
-1.13258e-07
-1.61407e-07
-1.41227e-08
2.85042e-07
1.04631e-08
-1.18379e-07
-9.03628e-08
-1.7726e-07
4.53887e-09
1.30847e-07
1.55047e-07
-6.68424e-07
9.85423e-08
-4.38905e-09
3.0458e-07
-3.43286e-07
3.81807e-07
-4.53452e-06
-3.73661e-06
-1.11749e-05
1.65298e-05
-3.53003e-07
-6.73562e-06
2.97347e-06
-3.77935e-07
-6.17781e-06
4.02254e-07
-6.5647e-06
-4.15963e-06
-3.52044e-06
-2.65536e-06
-3.84205e-06
3.39555e-07
-3.21149e-05
-1.13025e-07
-2.99192e-07
5.45818e-08
4.00096e-07
-5.94794e-08
6.83102e-08
-3.96922e-08
-9.34339e-08
-2.34237e-07
-1.01067e-07
-3.04824e-09
2.5982e-07
-5.84399e-08
-6.78648e-08
3.37575e-07
-4.42051e-07
4.47806e-07
-6.13245e-06
8.02717e-06
2.18896e-05
-1.0754e-05
1.17814e-05
1.60681e-05
-3.37448e-05
1.24449e-05
7.85062e-06
2.28219e-05
2.42924e-05
-2.86145e-05
1.30838e-05
3.17689e-05
-1.27235e-05
3.84528e-05
1.24812e-05
9.49667e-07
-1.40072e-06
6.30099e-07
-2.21723e-06
-2.88838e-06
2.76765e-07
2.53573e-06
1.21129e-05
-2.27385e-05
5.61732e-07
-2.91526e-07
4.63162e-08
-4.97284e-07
2.3573e-06
1.18462e-08
-1.98783e-07
-2.1321e-07
-6.40248e-07
-2.2398e-07
3.99889e-07
3.66425e-06
2.48509e-07
-3.75987e-08
-3.29824e-10
-9.6234e-08
3.71728e-08
-1.04558e-07
2.05195e-08
-7.58786e-08
1.51856e-06
-3.37865e-06
-1.10387e-05
1.67618e-06
-8.13742e-08
-2.87405e-05
-8.78934e-07
9.30388e-08
1.15943e-06
7.25015e-08
-1.48566e-06
-1.52161e-08
7.35336e-08
-6.74395e-08
-2.99005e-08
3.80053e-08
3.17416e-08
-4.65573e-08
1.08613e-07
4.01161e-07
-7.19131e-07
6.47024e-08
5.68277e-08
1.03695e-08
4.08513e-08
-2.00279e-08
1.52737e-07
1.36894e-07
-1.76735e-09
8.35254e-08
1.572e-07
8.25207e-14
1.78507e-13
-2.09362e-14
-1.86683e-13
6.05993e-14
-1.1294e-14
3.25636e-14
1.22599e-14
2.37264e-13
1.19008e-14
-1.12018e-14
-9.48051e-15
5.94489e-15
3.26725e-14
-6.35878e-14
-9.2074e-14
-1.59267e-15
-1.97972e-15
-6.00393e-16
3.99549e-15
-1.5251e-15
-8.60598e-16
1.7698e-15
-1.45792e-15
-6.9676e-16
-2.13042e-15
-1.53312e-15
2.89726e-15
-6.89045e-16
-2.47464e-15
1.6748e-15
-3.74947e-15
-8.00484e-16
-2.02755e-17
8.03748e-16
-6.93805e-17
9.6023e-17
-1.38018e-16
2.9536e-15
2.89873e-15
-2.40094e-15
2.36223e-14
7.09171e-12
4.71765e-10
5.02866e-11
-4.72079e-10
5.64322e-11
-1.90859e-11
-1.99102e-11
-4.17654e-11
6.03514e-10
-2.32068e-10
1.45121e-10
1.31326e-10
5.94509e-11
-6.51322e-10
4.37635e-11
-3.20856e-12
5.69519e-11
-2.78203e-09
-4.12289e-09
-8.81144e-10
4.90049e-09
-5.53568e-10
6.2155e-10
-6.7031e-09
-7.42905e-09
-1.87255e-09
-1.14325e-08
4.4041e-09
3.58012e-09
1.72512e-09
-1.98868e-08
1.15923e-08
-1.73197e-08
8.59164e-09
-7.2973e-10
-3.04473e-10
4.01109e-10
6.80589e-10
4.1091e-10
4.33371e-10
-1.51533e-09
3.12092e-09
-4.38293e-11
4.29723e-10
9.07821e-10
-3.20304e-10
-1.00564e-09
1.93526e-09
-2.28911e-09
5.27399e-09
-1.1403e-09
-6.46773e-06
-1.27126e-06
1.04138e-06
6.48347e-06
9.2757e-06
1.14974e-05
-2.74049e-05
6.22597e-06
-2.50557e-06
3.38522e-06
-2.90181e-06
5.12637e-07
-1.65484e-06
1.14631e-05
2.54596e-06
5.98922e-06
5.47129e-06
3.75166e-08
2.35578e-06
-3.57833e-06
-6.06185e-08
9.30408e-07
-1.16275e-06
-4.45936e-10
-1.53722e-06
2.79029e-06
6.73544e-06
3.22226e-06
-1.42525e-05
1.41654e-06
7.243e-07
-2.37091e-09
2.92146e-07
-2.77038e-06
-5.67495e-07
-5.20592e-06
1.26719e-05
-3.99617e-08
4.6963e-07
-1.83574e-06
-6.98443e-07
-4.42664e-07
-3.13419e-06
4.49131e-06
-8.12578e-08
1.12092e-06
-5.95841e-06
1.47295e-06
-1.15864e-06
4.11943e-06
2.30853e-06
-6.82001e-08
4.03454e-06
1.29652e-06
-1.97095e-05
6.35291e-06
-2.93427e-09
-1.11948e-06
7.41877e-06
-1.10659e-06
-2.638e-09
6.35923e-06
-1.66934e-08
-3.08296e-07
-5.30463e-06
-2.1705e-06
-4.83265e-06
-1.56229e-08
-9.71072e-07
-4.49354e-06
5.46289e-06
2.24265e-09
5.80389e-06
-4.92506e-06
-4.64086e-06
-2.47529e-07
1.68479e-05
2.04028e-05
3.86725e-07
5.49099e-06
2.47415e-06
1.14598e-10
-1.07907e-08
1.12549e-08
3.83239e-10
-1.13737e-08
7.6131e-09
3.03308e-10
1.85447e-09
-3.12974e-08
-5.70951e-09
-3.97853e-09
2.06375e-08
-1.91665e-09
7.52513e-11
-4.82886e-10
-3.65019e-11
-3.80907e-10
-8.23801e-09
-1.29415e-08
-5.30677e-08
-9.19825e-09
-1.79868e-08
2.85765e-08
-2.16059e-09
-8.0279e-09
-6.81387e-09
9.39674e-09
-4.53087e-09
9.55239e-09
-2.08306e-08
-1.37684e-08
5.15866e-09
-5.7236e-08
-2.22505e-09
2.62936e-08
9.45402e-09
-3.26755e-09
1.40497e-08
-5.40177e-09
-1.02053e-08
-3.11371e-09
4.25993e-08
-1.39504e-08
1.35017e-08
1.80379e-08
1.85045e-09
-1.77992e-08
6.56628e-09
-9.59667e-09
1.72652e-08
-2.0378e-08
-1.72227e-07
-1.91196e-07
-5.34475e-07
3.50586e-10
-7.79471e-10
3.26796e-09
-2.77253e-09
-7.51367e-10
9.98181e-10
2.36871e-10
-7.2112e-11
-1.29401e-09
-1.42251e-09
-7.52153e-09
1.21425e-08
-1.71284e-09
1.13361e-09
-2.03728e-09
9.6453e-10
-1.28024e-09
-9.57926e-09
1.16015e-08
-2.02928e-08
4.10412e-09
3.62258e-08
-2.42758e-08
-7.19951e-09
-6.19638e-09
1.36579e-09
-4.85298e-08
-3.12978e-09
1.08055e-10
-8.03615e-09
7.15557e-11
1.41045e-10
-1.39613e-10
-4.70296e-11
-2.54582e-10
-2.15717e-10
-2.20434e-10
3.27549e-11
-4.98874e-12
-1.58666e-10
-4.58788e-12
-1.43491e-10
-3.935e-10
2.3877e-19
8.4261e-43
8.42464e-19
1.23085e-18
1.32948e-42
8.28025e-21
2.30489e-19
-1.3741e-42
-9.00447e-43
4.21925e-16
-9.09235e-19
-4.05275e-20
-4.17687e-19
2.11351e-16
-2.0719e-16
2.08365e-16
-4.66345e-18
-5.40043e-80
-6.71097e-80
-1.72134e-80
4.77549e-80
-2.6154e-25
9.71702e-13
1.30282e-12
2.27888e-25
-4.89428e-25
-5.23314e-80
-9.3503e-80
6.55839e-80
3.73277e-13
9.39355e-13
-4.56269e-22
5.64366e-13
-4.56758e-22
8.06855e-11
-2.59955e-17
-1.937e-11
-4.94455e-12
-1.63645e-13
-1.57343e-11
1.74969e-10
-1.93655e-16
-1.45057e-13
-4.08395e-13
4.0841e-13
-2.05818e-16
3.49779e-12
-1.04672e-12
-1.61663e-11
-3.1168e-11
2.37674e-11
-1.4821e-11
-1.12759e-11
-4.71974e-11
3.93612e-11
-3.26283e-11
2.97799e-20
2.11536e-19
-9.42955e-20
-1.04009e-19
9.99409e-18
-2.28366e-21
3.21795e-18
1.64456e-18
1.34374e-17
3.28813e-21
1.50984e-21
-7.8908e-21
1.20138e-19
-1.0161e-19
1.88672e-18
-1.55666e-19
-3.71008e-21
-6.34074e-22
-6.77008e-22
4.32532e-22
-7.65866e-22
-8.38309e-23
-2.09179e-22
4.91248e-23
-1.4781e-22
2.09438e-21
4.59031e-23
-2.15568e-22
-7.30328e-22
4.52901e-18
2.0395e-17
-7.29581e-18
-5.34719e-18
7.65869e-18
4.29172e-19
4.157e-17
9.35326e-18
-1.8007e-17
-1.63465e-17
7.67491e-16
-6.26895e-16
-1.5023e-16
-4.24702e-15
-7.40113e-15
1.14427e-14
-2.12293e-15
-2.76993e-15
-4.15405e-14
1.36888e-13
-9.86258e-14
1.61873e-15
-4.59743e-14
-1.62955e-15
1.3107e-13
1.50343e-12
-1.51244e-12
2.14301e-15
5.8987e-15
-5.6888e-12
-2.19105e-13
-2.5875e-12
-9.69635e-12
6.08497e-15
7.10954e-16
-5.29464e-15
6.53383e-15
1.45434e-15
1.79417e-15
2.04711e-14
-2.17846e-14
4.71018e-15
3.28817e-15
-2.56248e-13
4.59146e-14
-2.82349e-12
4.10607e-11
-1.85775e-11
-2.44139e-10