/*--------------------------------*- C++ -*----------------------------------*\
| =========                 |                                                 |
| \\      /  F ield         | OpenFOAM: The Open Source CFD Toolbox           |
|  \\    /   O peration     | Version:  v2012                                 |
|   \\  /    A nd           | Website:  www.openfoam.com                      |
|    \\/     M anipulation  |                                                 |
\*---------------------------------------------------------------------------*/
FoamFile
{
    version     2.0;
    format      ascii;
    class       volScalarField;
    location    "0.4";
    object      alpha.water;
}
// * * * * * * * * * * * * * * * * * * * * * * * * * * * * * * * * * * * * * //

dimensions      [0 0 0 0 0 0 0];


internalField   nonuniform List<scalar> 
6576
(
1
1
1
1
1
1
1
1
1
1
1
1
1
1
1
1
1
1
1
1
1
1
1
1
1
1
1
1
1
1
1
1
1
1
1
1
1
1
1
1
1
1
1
0.691598
0.773131
0.849128
0.57585
0.548037
0.810054
0.849128
0.833157
0.548561
6.15409e-05
0.000119685
9.79343e-05
0.000168779
5.9031e-05
5.14702e-05
4.85486e-05
-1.66974e-30
1.22328e-06
3.49362e-06
1.04801e-07
1.02014e-07
-8.22396e-31
8.71309e-07
1.1297e-09
1.35848e-10
5.11272e-09
4.47178e-12
5.55194e-12
4.37332e-12
4.56808e-12
0.000501598
0.000483615
0.00193435
0.00039152
0.00039152
0.00130144
0.000783867
0.00550289
0.0113722
0.00965474
0.00485193
0.00378136
0.009901
0.00729205
0.0929617
0.404199
0.071054
0.0711358
0.0794155
0.883208
0.572775
0.843494
0.992704
0.623625
0.992704
0.992704
0.727248
0.889418
0.590664
0.600486
0.600486
0.515665
0.513239
0.515074
0.575694
0.563758
0.749371
0.749603
0.507678
0.508098
0.750248
4.1567e-32
-6.71698e-107
-9.73476e-37
-2.52433e-106
-1.61577e-106
-5.68298e-38
-8.17361e-36
0.313001
0.857571
0.96132
0.961843
0.948645
0.999408
0.998618
-2.03158e-103
-4.32385e-175
-5.4835e-177
3.30809e-57
6.13455e-11
1.0333e-09
4.93618e-10
5.46318e-08
2.57421e-08
2.45528e-08
5.46294e-08
5.46084e-08
3.85128e-08
2.45528e-08
2.34616e-08
1.16333e-07
9.81876e-08
6.17195e-10
5.76413e-08
2.71791e-08
5.91502e-10
5.45964e-09
1.01864e-07
2.15833e-09
3.77538e-08
1.88554e-08
6.60932e-10
5.8365e-10
7.3942e-10
6.93215e-11
1.07333e-09
5.57593e-10
3.54409e-12
4.41292e-12
2.07268e-10
3.57716e-12
8.3118e-11
3.72359e-10
1.72916e-11
1.92631e-10
2.99019e-10
2.31134e-10
1.73894e-11
4.65907e-11
2.79885e-12
2.2492e-13
1.08189e-11
3.48086e-12
8.78373e-13
3.35305e-12
3.36119e-12
1.16843e-12
3.45485e-12
2.06277e-16
5.42585e-14
1.30484e-15
1.17658e-13
3.61894e-13
4.47188e-12
1.63442e-12
2.3462e-13
4.21036e-13
1.31542e-17
1.31542e-17
1.30848e-17
1.79436e-15
3.10589e-14
2.90678e-14
1.45539e-13
3.43065e-13
2.24177e-13
2.29381e-13
3.1085e-13
2.25924e-13
2.24678e-13
2.25924e-13
5.28278e-13
1.36278e-13
6.15403e-13
2.91754e-13
1.18277e-15
2.52402e-14
1.40976e-13
1.51972e-10
4.83866e-11
6.86967e-11
4.54791e-11
4.80492e-11
6.33254e-11
4.69246e-11
5.52877e-24
3.81002e-24
5.51234e-24
1.20387e-18
2.64943e-18
1.16661e-18
7.08617e-19
2.72185e-18
2.72465e-18
3.09786e-17
2.95929e-18
2.93647e-18
2.05601e-17
2.96604e-18
9.56527e-16
2.37744e-16
3.73757e-16
3.41078e-17
2.75588e-16
1.9256e-16
1.57209e-16
1.02128e-13
3.3051e-13
2.05358e-13
1.38856e-13
2.9731e-13
2.05387e-14
9.94072e-14
1.65981e-11
1.65243e-11
3.42479e-12
4.02792e-12
3.18904e-12
7.19828e-12
3.16979e-12
2.13321e-11
3.34284e-12
1.76278e-10
7.45847e-11
7.42002e-11
2.81425e-10
7.44115e-11
2.11341e-10
7.42002e-11
5.17729e-05
5.41451e-05
6.3496e-06
6.35803e-06
4.57997e-05
1.50945e-05
6.15753e-06
0.560964
0.401027
0.547796
0.442503
0.396499
0.45369
0.415644
0.563588
0.417456
0.481231
0.421143
0.481231
0.433639
0.480974
0.424722
0.431733
0.707636
0.568275
0.707637
0.707637
0.707624
0.706168
0.638026
0.70725
0.603126
0.412383
0.481073
0.427718
0.698304
0.653736
0.574983
0.433389
0.529891
0.524227
0.527275
0.000708247
0.00112428
0.000402853
0.000701555
0.000227203
0.0002008
0.000275211
0.186148
0.0643224
9.26003e-05
0.062381
0.00384237
0.000141494
9.19703e-05
2.82077e-05
4.94387e-05
0.000306864
0.000462088
0.000462135
0.000462088
0.000276499
0.000462088
0.000404472
0.00116541
0.00223315
0.00133963
0.00180359
0.00219834
0.00110203
0.00110103
0.0011011
0.00110113
0.00110107
0.0222581
0.00565793
0.00110103
0.00110103
0.00110103
0.00110104
0.00120987
0.0177874
0.00186504
0.00113323
0.00136964
0.319475
0.607172
0.272509
0.0960706
0.371544
0.444228
0.444213
0.210923
0.157289
0.441975
0.152441
0.560828
0.565403
0.563318
0.364493
0.450125
0.565403
0.565403
0.565403
0.418337
0.0206623
0.00414862
0.0144359
0.00426089
0.359315
0.0041941
0.0760711
0.00308901
0.00114382
0.00480334
0.0100139
0.00998314
0.00217782
0.00679719
0.000951655
0.00383481
0.00382438
0.00331986
0.00366263
0.00174724
0.00375089
0.0015168
0.00133094
0.000169812
0.00025764
0.000257067
0.000148379
0.000188639
0.00025807
0.000215664
1.48681e-05
0.000184251
5.45065e-05
0.000195856
0.000195189
6.65206e-05
0.000101252
2.09549e-05
1.5155e-05
0.00301716
0.000555371
0.00927757
0.158221
0.00722718
0.000624703
0.0616458
0.981939
0.981939
0.981939
0.918566
0.975988
0.952561
0.981939
2.07989e-06
2.04272e-07
1.23059e-07
9.48586e-08
7.72928e-07
3.0251e-07
3.11553e-07
3.62322e-06
8.13081e-08
9.5297e-07
7.83184e-07
2.33006e-06
7.97488e-07
7.90195e-07
7.62398e-06
8.1549e-06
8.64606e-06
7.62398e-06
8.03869e-06
1.09041e-05
8.67383e-06
9.13343e-06
6.28753e-05
0.000124048
1.13704e-05
4.23548e-05
9.18956e-05
1.68137e-05
0.000174048
1.24497e-05
0.000236961
0.000154366
6.37619e-05
6.37619e-05
6.49569e-05
0.000104791
0.000236682
0.0612027
0.0612027
0.151863
0.131575
0.0612027
0.0632345
0.0615453
0.0608595
0.0521679
0.153602
0.277645
0.18137
0.223816
0.277645
0.195642
0.293277
0.293001
0.194503
0.195541
0.293344
0.272314
0.292117
0.251133
0.250271
0.292535
0.252369
0.280038
0.292653
0.235356
0.194503
0.29341
0.292117
0.28916
0.18052
0.00273812
0.00272563
0.00439769
0.00998547
0.000918651
0.00760314
0.029519
0.0150636
0.00861832
0.0128863
0.0996412
0.0380756
0.027673
0.0118084
0.00136215
0.00123494
0.00595614
0.00514892
0.000131984
0.0212485
0.00434014
0.000174009
0.0029265
0.000147678
0.000144212
0.0114557
0.00721368
0.0128475
0.00737441
0.000200684
0.000154636
0.00265466
0.000140649
0.00104307
0.0128475
0.00375199
0.0008113
0.00282767
0.00375199
0.0022519
0.000670124
0.000608359
4.02578e-06
3.97667e-06
6.10721e-06
1.84829e-05
1.08091e-05
1.48115e-05
1.4723e-05
3.27318e-06
8.02379e-07
4.79448e-07
3.31004e-07
6.99508e-07
9.54328e-08
7.26745e-06
8.28857e-08
5.29577e-07
2.06699e-07
2.65659e-06
4.12023e-07
2.29928e-07
1.38926e-07
8.96047e-07
4.57177e-07
1.71894e-09
5.80488e-09
7.46903e-10
1.00105e-10
4.87693e-09
4.34164e-10
2.96697e-10
5.77646e-11
3.82878e-11
2.38201e-13
1.71328e-12
1.73608e-12
1.60921e-13
2.25549e-13
2.05969e-14
2.05969e-14
2.05387e-14
6.53854e-13
2.84604e-13
3.26915e-12
3.35083e-12
1.29441e-12
8.69284e-14
8.69284e-14
7.06455e-13
8.69284e-14
3.80372e-10
9.29959e-09
2.58705e-08
2.48343e-08
5.01603e-09
4.65932e-09
4.4459e-09
2.00672e-06
2.91188e-06
3.63736e-06
2.5869e-07
7.64315e-07
6.30129e-07
1.12329e-06
1.70353e-05
9.55332e-06
2.31179e-07
9.49026e-06
4.75926e-06
6.84067e-06
4.56039e-06
4.47532e-06
2.31168e-07
2.10989e-06
1.66328e-05
3.51796e-05
3.17103e-05
9.88592e-06
3.2187e-05
3.52069e-05
1.57484e-05
8.2344e-06
6.44096e-06
6.44096e-06
1.75145e-05
3.34326e-05
6.89949e-05
4.74826e-07
4.81943e-07
4.75748e-07
4.75414e-07
1.36109e-06
4.75848e-07
4.75848e-07
0.0956598
0.0558754
0.00376052
0.00445642
0.0028505
0.0067049
0.0120491
0.995934
0.995942
0.99226
0.99594
0.99594
0.995934
0.992804
0.990381
0.990152
0.978988
0.842332
0.8725
0.990381
0.990544
0.903794
0.978881
0.816691
0.848261
0.865614
0.865615
0.865662
0.865616
0.865538
0.86555
0.864887
0.863396
0.25977
0.859262
0.49299
0.841014
0.90648
0.639481
0.523159
0.329457
0.609912
0.633829
0.369042
0.633829
0.329457
0.632559
0.533266
0.698339
0.698339
0.698339
0.698339
0.461186
0.412159
0.601437
0.601437
0.601437
0.699358
0.701194
0.232887
0.0749068
0.216078
0.187811
0.0610062
0.183687
0.11268
0.698282
0.688545
0.704586
0.455634
0.701044
0.564533
0.433613
0.44299
0.0011013
0.00110074
0.00110695
0.00110464
0.00110781
0.0011317
0.00165042
0.518437
0.385743
0.518437
0.00111116
0.245455
0.542527
0.558449
0.558449
0.558449
0.551659
0.220147
0.453653
0.402588
0.206651
0.351747
0.440251
0.451832
0.451832
0.639961
0.663651
0.596463
0.67974
0.20948
0.456379
0.203902
0.453373
0.696388
0.696352
0.124008
0.697608
0.508661
0.21604
0.227264
0.510793
0.292408
0.763926
0.780993
0.292295
0.621734
0.780781
0.780977
0.292638
0.48804
0.704274
0.704441
0.704274
0.704441
0.561902
0.697995
0.699134
0.700185
0.704441
0.558737
0.778833
0.777936
0.777912
0.778833
0.777607
0.548868
0.635692
0.255031
0.0335408
0.781132
0.781132
0.303789
0.37216
0.616706
0.00302686
0.00303445
0.00940405
0.0339093
0.0113489
0.00321996
0.0030296
0.00303096
0.00345778
0.00305955
0.0103629
0.00441132
0.0120301
0.00303411
0.452411
0.467812
0.273719
0.32276
0.324095
0.310556
0.449791
0.00484175
0.00871207
0.00502128
0.00468626
0.00135551
0.00837575
0.00470923
0.582808
0.90204
0.904555
0.840754
0.90339
0.90404
0.874017
0.065816
0.16885
0.903916
0.0629321
0.126842
0.0947733
0.0939821
0.475565
0.0663867
0.00550156
0.0161746
0.0679346
0.183565
0.742128
0.0990497
0.0319304
0.00649072
0.00545549
0.00104677
0.015893
0.00135629
0.000519462
0.00813383
0.00140328
0.00198087
8.96616e-09
6.85834e-09
5.92483e-09
2.47525e-10
1.11579e-09
2.39725e-09
4.17641e-09
1.00956e-10
2.1073e-10
2.58211e-10
9.99512e-11
1.00421e-10
2.20546e-10
9.99112e-11
1.27759e-11
3.50509e-12
3.20901e-10
2.46622e-10
6.79139e-10
1.84698e-05
1.15792e-06
6.58796e-06
1.42872e-05
1.66947e-05
1.71491e-06
4.14178e-06
3.75986e-05
3.4734e-05
4.33802e-05
7.87995e-05
7.90794e-05
7.91128e-05
7.6796e-05
8.4521e-06
8.38142e-06
6.56918e-05
1.00116e-05
8.83256e-06
3.00075e-05
1.47144e-05
0.516509
0.516909
0.218127
0.51632
0.5163
0.51632
0.270553
0.0807802
0.0117051
0.0615259
0.326013
0.190666
0.135845
0.0681879
0.124893
0.299824
0.0194456
0.299901
0.20326
0.0194456
0.15495
0.19747
0.205713
0.299745
0.156659
0.00016632
0.0301412
0.204058
0.14758
0.0309779
0.0044339
0.149894
0.204058
0.182225
0.166569
0.239458
0.234564
0.0623052
0.000168232
0.000164438
8.60406e-05
8.57369e-05
1.71997e-05
1.98927e-05
0.000143779
8.61088e-05
0.000210334
9.89459e-05
4.85282e-05
0.000208452
7.80019e-05
5.26816e-05
0.00032033
5.61066e-05
7.13533e-05
0.000303619
4.10138e-05
5.53509e-05
9.39161e-05
0.00375199
0.000649634
0.00375199
1.19532e-05
1.19532e-05
1.29221e-05
2.58938e-05
2.18154e-05
2.6065e-05
0.00011086
0.000346409
0.000591413
0.000111503
2.64865e-05
5.51226e-06
1.16226e-05
5.57522e-06
4.19566e-06
5.24342e-06
1.60905e-06
1.85467e-06
7.63113e-06
1.17438e-13
-7.4303e-32
-4.27637e-38
4.85684e-11
7.67399e-13
6.9357e-14
6.77646e-12
-1.01533e-74
5.0951e-07
0
-7.14674e-75
7.50721e-08
1.42726e-08
-7.25624e-35
7.10789e-06
3.56439e-06
1.8806e-10
1.24271e-13
2.18295e-08
2.2029e-06
8.40172e-07
8.36214e-07
1.60273e-06
3.51536e-15
3.37535e-13
1.53639e-13
7.39493e-17
7.39493e-17
1.8762e-15
3.35131e-15
2.10609e-16
3.37935e-16
3.65096e-18
3.92379e-15
6.48548e-18
1.28703e-17
1.26034e-17
1.68198e-12
2.31791e-14
7.7764e-13
2.73004e-13
1.72889e-12
1.2235e-12
2.4145e-11
2.13673e-12
3.35063e-11
2.05289e-12
2.05289e-12
4.35562e-13
5.12723e-11
6.11423e-08
1.71757e-07
4.76041e-11
8.93348e-11
3.57109e-11
2.82835e-11
2.3791e-10
8.38593e-11
2.60339e-06
2.60339e-06
2.60229e-06
7.66901e-06
4.38218e-06
2.6015e-06
7.80783e-06
2.57267e-06
2.62867e-06
2.54688e-05
2.5562e-05
7.67177e-05
1.75086e-05
4.07866e-06
7.72139e-05
7.66265e-05
3.95867e-06
1.3668e-05
3.40874e-06
3.40874e-06
4.30149e-06
1.54887e-05
6.06385e-05
6.5908e-08
8.48519e-08
4.97255e-08
4.64752e-08
6.87105e-08
4.61334e-08
4.53458e-08
8.80782e-08
4.60321e-08
5.25916e-07
1.42474e-08
2.44616e-06
1.05733e-08
1.42474e-08
3.59861e-08
3.72768e-08
0.968432
0.968092
0.968169
0.959291
0.87121
0.929004
0.840423
0.969807
0.986504
0.99383
0.970808
0.970069
0.993905
0.993906
0.993909
0.993905
0.979556
0.91246
0.989567
0.912413
0.993794
0.912413
0.980346
0.817682
0.894739
0.882643
0.814676
0.817823
0.814626
0.814676
0.848534
0.909724
0.90539
0.865662
0.785312
0.865545
0.633246
0.330106
0.329478
0.00114308
0.00180746
0.00111249
0.00110614
0.00305768
0.00114985
0.00216624
0.397713
0.292296
0.623876
0.531
0.0349065
0.0122157
0.105318
0.0460208
0.0063742
0.0077487
0.779763
0.780913
0.742106
0.722088
0.722928
0.721632
0.192446
0.721888
0.202552
0.458846
0.347819
0.722928
0.184928
0.687324
0.68721
0.68721
0.641688
0.366939
0.405129
0.687324
0.59165
0.59165
0.591639
0.578418
0.461959
0.468007
0.129815
0.361482
0.11029
0.109394
0.264647
0.454888
0.201228
0.430726
0.188297
0.257816
0.395769
0.264514
0.444655
0.288761
0.0205973
0.0205976
0.0359079
0.228438
0.0663471
0.043953
0.144294
0.06509
0.00506446
0.0347236
0.0118185
0.0345141
0.0393885
0.0719355
0.70866
0.0125956
0.775107
0.775107
0.77525
0.278135
0.482028
0.00130719
0.494217
0.906284
0.906284
0.906932
0.383886
0.694926
0.00484649
0.00151162
0.000771195
0.000755629
0.00153334
0.00397138
0.000663267
0.000777737
0.00120494
0.00229675
0.00067709
0.000677408
0.000841233
0.00174319
0.000520817
0.00401762
0.000304986
0.000228306
0.0002177
3.75441e-05
0.00079176
2.58333e-08
3.85101e-08
5.82067e-08
2.87617e-08
2.46571e-08
2.45528e-08
5.68834e-08
4.57951e-05
2.1635e-07
2.03727e-05
4.57951e-05
4.56249e-05
1.96283e-07
1.05441e-05
1.99592e-05
5.6297e-05
7.4132e-05
7.70003e-05
4.20912e-05
7.8054e-05
7.70003e-05
3.08338e-05
4.85961e-06
7.28146e-05
5.9787e-06
4.79051e-06
4.84149e-06
5.52272e-06
8.29374e-06
2.18943e-05
7.36376e-06
7.7065e-06
1.13326e-05
7.36067e-06
7.51424e-06
7.43527e-06
7.32294e-06
2.31078e-05
7.32294e-06
7.31863e-06
2.89706e-05
9.5932e-06
7.32294e-06
7.45972e-06
0.297837
0.297837
0.451082
0.297837
0.297837
0.297964
0.363722
0.148962
0.0527492
0.287475
0.53671
0.436385
0.448573
0.536586
0.452443
0.519661
0.389524
0.521895
0.362861
0.3871
0.522047
0.519833
0.519828
0.519833
0.519778
0.481616
0.519833
0.519816
0.361515
0.520494
0.359309
0.517788
0.519833
0.325081
0.49645
0.0698861
0.51632
0.000184437
0.000186375
0.000185241
0.00010085
5.97506e-05
2.04811e-05
5.84581e-05
1.80475e-05
0.000184797
8.54303e-05
1.76959e-05
2.18506e-05
0.000145973
6.48253e-05
6.48824e-05
0.000235843
9.55519e-05
7.46082e-05
0.000237014
3.44708e-06
3.66578e-06
6.32223e-06
3.84514e-06
3.11954e-06
8.78539e-06
6.22248e-06
7.2215e-06
8.30243e-06
2.85955e-05
1.28162e-05
1.24901e-05
6.49821e-06
6.32316e-06
3.23898e-06
4.41078e-06
7.84581e-06
7.53001e-06
4.53732e-07
7.05329e-06
3.22081e-06
4.13095e-06
1.31199e-05
1.32698e-05
1.67437e-05
4.30717e-06
4.15899e-06
1.07325e-05
6.2311e-06
1.95678e-05
1.46509e-05
1.95678e-05
1.38572e-05
6.77648e-07
3.03575e-07
1.95867e-06
6.77057e-07
1.53936e-06
1.23475e-06
9.24566e-07
1.1743e-13
2.54203e-10
1.32825e-07
4.29715e-08
1.55837e-07
1.16471e-07
1.53238e-06
5.49938e-07
1.94104e-07
7.86143e-07
4.87019e-27
-3.50522e-75
1.53704e-06
2.54775e-61
1.29408e-29
3.2193e-45
0
7.39657e-31
5.22901e-31
2.43706e-29
-4.01096e-174
0
0
1.40999e-31
4.74524e-21
1.6708e-30
7.17408e-31
1.32011e-15
2.19163e-28
1.15137e-22
-6.155e-98
1.31835e-72
0
0
0
6.55692e-28
0
7.17408e-31
2.89202e-26
8.37801e-31
1.67214e-30
9.22043e-31
1.19304e-30
2.71744e-24
7.70134e-251
1.02596e-22
1.03416e-22
0
2.90109e-23
4.46199e-23
3.70827e-35
7.80141e-22
8.65247e-23
1.67225e-21
4.44828e-25
9.33103e-22
1.56363e-22
3.85509e-22
1.46082e-07
1.07691e-07
2.43472e-06
7.12627e-07
1.16974e-06
1.57579e-06
1.57893e-05
0.000100157
6.46027e-08
3.08022e-05
2.06108e-06
2.87233e-08
4.29582e-05
2.17337e-05
3.4554e-05
6.75557e-06
4.24705e-05
1.20498e-05
2.49075e-06
1.52661e-05
2.49131e-06
6.46222e-05
6.54139e-05
0.000119605
0.00013315
0.000133247
0.000107893
0.000134275
0.000134275
0.000134271
1.41306e-05
1.94314e-05
3.70476e-05
4.66167e-05
1.36968e-05
2.97519e-05
7.71373e-05
3.0652e-05
0.000169752
9.14399e-05
0.00035728
0.000307389
0.000225071
0.0001854
7.74544e-05
0.000118724
7.5763e-05
7.04718e-05
0.000109923
0.00025237
0.000176482
0.000324803
0.000327714
1.38283e-06
4.94713e-06
3.04134e-05
1.46969e-06
1.46647e-06
1.24342e-06
1.22954e-06
4.53993e-06
3.35328e-05
1.12908e-06
1.49211e-06
1.04375e-06
1.00045e-06
1.01218e-06
1.10663e-06
1.02617e-06
3.88359e-10
3.11923e-10
2.78024e-09
2.33584e-10
2.01474e-10
2.01154e-10
7.1593e-10
5.40717e-10
1.1907e-07
9.49093e-10
6.07182e-10
3.18072e-08
1.76576e-08
5.42318e-10
1.99014e-08
2.01454e-08
1.99121e-08
1.99121e-08
2.43726e-08
5.38584e-08
1.99051e-08
0.00343846
0.00410835
0.00340537
0.0160044
0.00537933
0.00343843
0.00343825
0.938619
0.648786
0.76068
0.805218
0.978955
0.69121
0.249409
0.931549
0.783253
0.86833
0.961834
0.809863
0.803407
0.846244
0.739628
0.845923
0.880091
0.823669
0.880781
0.738634
0.738626
0.933495
0.772507
0.773317
0.809077
0.961834
0.841044
0.973205
0.871317
0.962156
0.912499
0.980351
0.980356
0.94264
0.961722
0.885102
0.840423
0.951371
0.993811
0.912413
0.0190358
0.00696317
0.0108421
0.00610738
0.00725111
0.0190358
0.00923766
0.36523
0.469927
0.403535
0.440167
0.469927
0.355435
0.360462
0.687324
0.365188
0.514816
0.732503
0.732502
0.732503
0.732503
0.731007
0.583495
0.732502
0.73229
0.732503
0.51014
0.00428948
0.00428946
0.00429121
0.00429127
0.00672115
0.00429121
0.00428975
0.00822712
0.00723406
0.00735556
0.00693278
0.00698334
0.00706915
0.00735512
0.0243336
0.00802663
0.00807502
0.0287787
0.0199952
0.0115837
0.0133637
0.00709751
0.00705506
0.00887916
0.0125986
0.0237208
0.0273583
0.0127081
0.0273616
0.000435648
0.000629563
0.00294026
0.0126573
0.000629572
0.00840378
0.0609942
0.0378903
0.00300662
0.0476555
0.0538927
0.0030111
0.0129535
0.0539347
0.0539261
0.0486052
0.0351093
0.00876101
0.0151295
0.018718
0.00844728
0.00878678
0.00898565
0.0180678
0.0112513
0.00813281
0.011285
0.0047562
0.000200122
0.00228868
0.00112161
0.000200122
0.000196169
1.26134e-05
5.19662e-06
4.12063e-06
4.12063e-06
4.39589e-06
4.04064e-06
4.12063e-06
4.03481e-06
5.15994e-06
5.00439e-06
4.03513e-06
4.03076e-06
0.00143791
4.0376e-06
0.545477
0.402982
0.579894
0.402982
0.621449
0.752241
0.608337
0.331439
0.491081
0.292467
0.316414
0.292672
0.292467
0.292467
0.697741
0.913844
0.600435
0.863784
0.913924
0.510687
0.510456
0.510687
0.317308
0.373925
0.913926
0.876472
0.899542
0.207004
0.416856
0.400271
0.0193244
0.374845
0.0174199
0.115394
0.407206
0.437694
0.536716
7.31817e-06
7.32084e-06
7.32084e-06
7.31817e-06
7.32084e-06
4.13117e-06
4.14493e-06
5.30141e-06
7.34366e-06
4.40106e-05
4.1668e-06
4.31171e-06
6.22763e-05
7.94174e-05
4.85458e-05
2.23751e-05
3.65289e-05
7.91245e-05
2.62415e-05
7.76083e-05
7.84818e-05
7.10921e-05
7.90265e-05
7.92495e-05
7.87686e-05
7.82321e-05
7.1779e-06
1.04287e-05
7.22507e-06
2.74572e-05
8.21287e-06
9.33549e-06
8.90427e-06
7.07986e-07
5.7922e-07
7.69254e-07
7.86858e-08
7.78539e-08
2.32848e-07
7.3036e-09
4.27315e-15
3.80666e-22
6.65034e-16
3.7625e-22
1.8828e-22
2.08463e-15
1.42081e-15
2.47604e-29
6.44483e-50
1.64865e-29
2.72489e-22
1.98183e-39
3.79234e-22
4.04963e-23
1.92217e-23
1.93993e-23
1.67008e-22
4.39978e-23
0
6.9778e-24
-3.24616e-103
-1.00287e-102
-9.27462e-189
2.81184e-31
3.25366e-33
-1.6122e-50
5.96573e-33
1.71263e-30
1.63969e-30
6.86815e-33
6.89287e-48
0
0
4.85687e-36
4.28078e-51
1.43096e-51
0
0
1.19219e-11
3.20657e-10
6.0786e-09
8.08433e-11
8.30704e-11
8.21699e-11
8.08433e-11
8.18772e-11
0.132037
0.694956
0.999829
0.999839
0.999829
0.999685
0.985773
0.00126736
3.81784e-09
0.00172142
7.63449e-09
0.000555584
0.000891075
0.00254115
0.00581549
0.0244083
4.42275e-06
0.000607487
0.000603923
0.18714
0.00138739
8.30508e-24
3.11797e-20
1.51524e-17
4.99674e-22
8.5371e-14
8.42229e-22
-1.12822e-34
6.372e-06
2.63134e-06
7.41816e-05
3.59353e-06
2.63134e-06
4.40716e-05
0.000290046
2.41224e-05
1.77282e-05
4.84622e-06
1.00387e-05
1.3376e-05
5.97524e-06
4.81919e-06
2.92001e-08
2.65936e-08
3.21965e-08
2.21967e-08
4.47163e-08
2.15546e-08
1.40903e-08
1.32408e-08
1.28457e-08
4.16112e-05
8.0263e-07
4.76562e-05
2.47207e-05
1.63372e-05
7.41786e-07
4.81859e-06
8.12685e-07
8.69089e-07
2.37744e-06
1.43852e-06
5.15287e-06
1.61972e-06
6.80012e-07
9.85506e-08
3.04658e-06
4.13304e-06
6.11996e-06
3.2938e-06
5.03095e-05
0.000152189
3.27187e-08
6.51941e-07
3.40339e-08
3.94341e-08
3.93929e-08
2.71747e-09
1.19876e-07
1.14872e-06
2.2233e-06
1.22893e-05
2.78149e-06
3.85449e-06
1.14872e-06
1.16269e-06
0.432515
0.432402
0.432324
0.574775
0.432306
0.562505
0.575217
0.169384
0.747334
0.168705
0.952088
0.427365
6.16443e-06
0.0914407
0.221791
0.764782
0.470945
0.952434
0.952434
0.952434
0.900071
0.952433
0.476156
0.875217
0.899262
0.861327
0.798388
0.82616
0.798249
0.79831
0.899262
0.862893
0.79857
0.789168
0.805504
0.805489
0.798244
0.759835
0.798192
0.798435
0.248681
0.156826
0.0486126
0.0103608
0.866615
0.62663
9.21432e-08
0.805438
0.759897
0.759836
0.738626
0.738626
0.738626
0.987585
0.987585
0.987585
0.377004
0.867933
0.987585
0.987585
0.551804
0.521903
0.446864
0.900937
0.544966
0.90339
0.903397
0.0206611
0.0207466
0.0591928
0.0290801
0.0720998
0.0205976
0.0462664
0.0221032
0.0672327
0.13192
0.296388
0.22901
0.141964
0.296312
0.00725367
0.00715261
0.0270877
0.00741878
0.00719216
0.00706915
0.103051
0.704813
0.740608
0.749914
0.704426
0.750285
0.703501
0.751845
0.730072
0.742031
0.742031
0.742031
0.742031
0.742031
0.000150207
0.000530379
0.000744597
0.000125296
0.000551852
0.000118178
0.00875679
0.0115734
1.40953e-05
0.0449143
0.00140648
1.3862e-05
0.0161493
0.00891042
0.106589
0.0822202
0.11361
0.0822202
0.0822245
0.205214
0.203729
0.940581
0.0824722
0.645185
0.906388
0.94002
0.825869
0.906875
0.915847
0.915841
0.915847
0.915834
0.840207
0.915847
0.915841
0.915847
0.910759
0.673451
0.0201236
0.00995343
4.0268e-06
0.0225033
0.0772428
0.00813178
0.00485738
4.02512e-06
4.02512e-06
4.02512e-06
4.02719e-06
4.02512e-06
4.02669e-06
4.42631e-06
3.50575e-05
8.33768e-05
8.64617e-06
3.18909e-05
6.2245e-06
0.000160394
2.71238e-05
1.14257e-05
1.74125e-05
1.16724e-05
1.14257e-05
1.14645e-05
1.14645e-05
1.14355e-05
1.83549e-09
1.77903e-09
1.98703e-09
1.79769e-09
1.79769e-09
1.91595e-09
3.23268e-09
6.08104e-10
7.17305e-13
1.15583e-09
8.52345e-10
1.42351e-12
2.03922e-12
3.25899e-09
2.32608e-10
2.51143e-10
8.38593e-11
2.24172e-11
2.00407e-11
7.98362e-06
3.86779e-05
6.2934e-06
4.05507e-05
1.59675e-05
1.24502e-06
8.29819e-07
0.719785
0.724383
0.997144
0.815004
0.802043
0.226049
0.949519
6.0915e-06
4.43367e-06
0.000158626
1.54644e-05
4.9511e-06
4.41515e-06
1.86044e-05
2.16711e-05
1.9159e-06
6.94204e-06
6.61187e-06
1.40606e-06
7.04506e-08
2.70394e-05
6.16582e-40
-5.53608e-52
-4.58823e-40
2.17425e-30
-7.59631e-170
1.46982e-53
-4.98803e-106
1.7086e-30
3.71472e-53
9.96478e-32
2.16614e-30
-1.96362e-185
1.59561e-38
1.16062e-05
5.92152e-06
7.70527e-06
6.92363e-06
1.55431e-06
4.59381e-27
5.0053e-06
1.01085e-05
1.55082e-05
1.66111e-07
1.80866e-05
1.44181e-05
2.33695e-06
3.57978e-07
4.96528e-07
5.20224e-07
1.97771e-07
3.92229e-07
1.46095e-07
1.97713e-07
3.76342e-09
9.5611e-11
4.23949e-10
1.40685e-12
1.75683e-11
4.76466e-11
1.43003e-12
1.566e-11
1.26219e-11
4.22188e-10
4.56284e-12
7.31979e-12
9.50173e-12
5.35493e-12
7.00105e-12
4.44801e-12
1.07351e-11
4.6367e-12
4.41692e-12
4.41691e-12
8.91498e-12
4.41248e-11
5.22221e-11
4.48403e-11
2.66128e-11
5.79794e-10
2.47066e-11
1.16482e-10
2.47066e-11
3.55319e-11
7.75766e-06
8.49957e-06
8.5177e-06
3.14247e-06
8.51537e-06
1.00122e-06
2.00053e-06
0.178849
0.177983
0.377916
0.2353
0.399448
0.000248574
0.399412
0.134676
0.38352
0.0610316
0.311469
0.311374
0.311353
0.311388
0.399218
0.311975
0.399448
0.414158
0.40416
0.36845
0.373334
0.560781
0.403044
0.575058
0.432306
0.570003
0.160956
0.24985
0.250412
0.575217
0.574662
0.575106
0.575217
0.418471
0.952433
0.952093
2.66955e-06
2.65563e-06
2.68134e-06
2.72021e-06
4.85799e-06
2.0566e-06
1.16456e-06
1.26175e-07
1.24721e-07
1.17466e-07
2.39927e-07
1.17701e-07
2.56137e-06
3.64766e-07
0.0903985
0.00676561
0.00662046
0.0134577
0.0277227
0.648867
0.822644
0.583672
0.967347
0.756636
0.926035
0.967404
0.0140596
0.0557591
0.00428025
0.00228426
0.00210232
0.0258902
0.00434566
0.0829465
0.432599
0.0854051
0.0945909
0.0827078
0.00405936
0.0035368
0.00355452
0.017737
0.00834843
0.0104485
0.0042192
0.134394
0.0552911
0.0283529
0.00251169
0.0119413
0.00255016
0.00258456
0.0189887
0.0364461
0.0445072
0.0180622
0.0668391
0.109596
0.133323
0.733236
0.741419
0.470775
0.758544
0.735516
0.759928
0.760275
0.702086
0.702286
0.70621
0.701501
0.701708
0.701501
0.755255
0.701501
0.71622
0.815077
0.761964
0.814326
0.81443
0.81443
0.782702
0.388178
0.736413
0.756004
0.750491
0.953205
0.955824
0.953205
0.982834
0.969877
0.974145
0.982823
0.983612
0.983655
0.98022
0.0764603
0.0764603
0.0764603
0.101219
0.0767643
0.171977
0.0953457
1.17206e-05
9.63207e-06
7.30189e-06
0.000132273
5.90417e-05
2.4451e-05
5.52641e-05
2.25067e-05
9.34283e-05
7.14932e-05
2.15617e-05
2.59389e-05
0.000101337
6.36098e-05
0.00558768
0.00364716
0.00354856
0.00677021
0.00409533
0.0051644
0.00671075
5.34726e-05
9.67174e-08
0.00221978
6.41114e-05
4.06716e-07
0.00399705
4.93831e-07
0.00253706
0.00553654
0.00679777
4.76456e-05
0.0025842
0.00529965
3.5187e-06
3.34586e-06
1.1891e-05
5.27751e-06
3.06493e-06
1.30111e-05
3.07594e-06
3.10852e-06
1.8912e-06
2.7284e-07
2.92948e-06
2.83011e-07
2.41147e-07
3.83916e-07
5.78749e-07
3.58065e-06
7.04506e-08
7.21259e-06
1.12324e-06
3.41002e-07
4.52705e-05
2.72101e-05
3.63012e-06
9.93893e-06
3.09112e-10
1.54703e-10
2.55631e-06
4.55551e-07
4.85654e-08
5.85664e-07
6.96398e-07
1.56251e-07
7.3186e-07
5.57e-07
2.08704e-07
1.09723e-06
1.56251e-07
1.56251e-07
1.5552e-05
2.2966e-06
1.04091e-05
1.65074e-08
1.65074e-08
1.63849e-08
1.63849e-08
2.05174e-08
1.6303e-08
1.63849e-08
1.56353e-07
1.03597e-07
2.31895e-07
1.52969e-13
1.6379e-13
6.68263e-09
1.61673e-13
1.63573e-08
1.3984e-08
1.5297e-13
4.73958e-12
3.15939e-13
7.39939e-11
1.88585e-11
4.34709e-13
4.47121e-12
1.84948e-07
1.23446e-07
3.68779e-07
2.23719e-07
1.21476e-07
6.83554e-07
2.46905e-06
5.3549e-07
1.00569e-06
3.60113e-05
9.96572e-06
6.85416e-06
4.37884e-05
1.95078e-05
2.76918e-05
7.07449e-05
2.15794e-05
4.70713e-06
2.15754e-05
3.04115e-06
8.18319e-06
3.05231e-06
1.87843e-05
0.39164
0.391609
0.391593
0.39164
0.391665
0.343694
0.197327
0.406738
0.406718
0.406718
0.406738
0.406776
0.406715
0.406651
0.357732
0.406703
0.185006
0.40275
0.399462
0.40275
0.377485
0.0738982
0.266587
0.399241
0.31136
0.380172
8.92239e-08
4.58797e-06
6.65377e-12
3.40514e-07
2.32542e-07
6.65377e-12
6.65377e-12
0.000717959
0.000532239
0.000502015
0.00111371
0.00111369
0.00111339
0.00111256
2.9832e-05
0.000488472
6.12627e-05
0.000755677
0.00111019
0.000840261
0.000363738
0.000216682
0.000216682
0.000374322
0.000216682
0.000216682
0.000587804
0.00110837
0.000219124
0.000217407
0.000219124
0.000237128
0.000216743
0.000320983
0.000404046
0.000547586
0.00054152
0.00054152
0.00054899
0.00228285
0.00378901
0.00156677
0.00822821
0.00299975
0.0146272
0.00315854
0.00480333
0.0221332
0.00663264
0.00283195
0.00565469
0.00207852
0.00411535
0.0020556
0.00288798
0.00288754
0.00328866
0.00288754
0.00288754
0.0038882
0.00998249
0.0022483
0.00278592
0.0156645
0.0308905
0.0322532
0.0314727
0.013559
0.00196507
0.00196507
0.00196507
0.00813664
0.00310294
0.00196734
0.0037222
0.814847
0.81437
0.737431
0.846347
0.846277
0.846277
0.845747
0.589076
0.846347
0.845622
0.799669
0.799671
0.799671
0.799671
0.459776
0.689295
0.844008
0.844008
0.844008
0.84398
0.832212
0.683631
0.295829
0.707848
0.846347
0.365026
0.925139
0.992564
0.926275
0.992521
0.992572
0.997035
0.996986
0.973187
0.978112
0.973173
0.973187
0.980107
0.973187
0.973173
0.966123
0.966132
0.966131
0.981005
0.981144
0.967687
0.981146
0.973206
0.980281
0.980237
0.966478
0.981148
0.966123
0.968333
0.938659
0.99373
0.99373
0.99373
0.988999
0.990644
0.398038
0.990382
0.477411
0.977963
0.851937
0.9783
0.570048
0.990436
0.926532
1.62205e-06
1.52379e-06
4.13204e-06
3.76998e-06
1.93297e-07
1.51393e-05
1.25303e-06
2.04494e-06
2.85817e-05
2.63397e-06
2.1132e-05
5.00368e-05
4.72877e-05
0.000113142
2.83184e-09
5.76501e-11
5.27388e-09
2.46293e-08
1.16597e-08
7.76129e-09
7.08774e-09
4.79588e-13
1.5297e-13
1.5297e-13
1.26943e-13
2.64238e-13
1.26943e-13
1.90395e-13
1.92316e-13
8.73478e-12
1.71483e-12
5.75424e-10
2.93259e-09
2.74183e-09
6.44365e-08
1.69628e-11
6.5182e-10
1.83115e-08
6.44095e-08
1.00486e-08
5.72458e-10
2.39345e-09
1.46744e-09
6.89383e-07
1.48026e-07
2.65694e-07
1.14924e-06
1.12471e-06
1.07743e-06
1.13139e-06
8.53358e-08
9.40397e-08
3.09162e-07
5.34562e-09
9.06673e-07
1.74853e-07
1.18701e-06
7.41904e-07
1.18985e-06
4.40933e-28
4.46358e-09
1.05037e-08
0
2.57194e-10
3.7715e-09
1.71633e-13
5.49587e-06
2.97095e-05
9.20844e-06
2.52985e-05
4.40182e-06
4.34243e-06
3.6305e-05
0.366698
0.322011
0.366698
0.306024
0.177411
0.345696
0.373827
0.373831
0.373831
0.00674069
0.0962792
0.373831
0.178509
0.105612
0.39164
0.391609
0.391575
4.61727e-09
6.53322e-09
2.7909e-08
5.7301e-09
4.60503e-09
1.84e-09
1.10686e-09
4.01266e-08
1.06192e-07
4.4363e-07
3.11113e-07
4.65811e-07
1.87021e-07
4.56252e-07
7.0604e-07
2.23664e-06
7.0604e-07
4.96623e-06
2.28777e-05
2.04158e-05
9.50306e-05
5.5758e-09
1.08993e-09
1.3399e-09
6.69906e-12
2.3339e-09
1.02768e-09
2.56264e-11
7.3594e-09
6.53304e-09
6.48715e-09
1.00008e-08
2.52551e-08
4.89227e-08
6.48737e-09
4.36688e-10
7.13617e-11
4.49822e-10
1.83485e-09
3.27528e-10
1.70845e-11
9.09231e-08
1.04548e-10
1.04825e-10
1.04825e-10
1.05413e-10
1.04548e-10
1.04548e-10
1.05573e-10
4.71436e-08
7.17626e-06
2.96305e-07
6.17317e-07
3.04972e-07
9.71773e-08
7.81434e-07
4.44388e-08
2.64363e-09
8.7623e-10
8.22501e-10
1.59852e-08
8.22501e-10
6.66397e-10
8.76204e-08
1.34725e-06
4.79037e-08
5.15836e-08
4.61388e-08
0.000262299
0.000335271
0.000104813
0.000208819
0.000106191
0.000295123
0.000336899
4.72729e-05
0.000274686
0.000148258
0.000465878
7.52837e-05
0.000268754
7.25595e-05
0.000136284
0.000141717
8.45616e-05
3.25531e-05
0.000250084
0.000456867
7.95245e-05
0.000271779
8.03431e-05
0.000461376
0.000165475
6.38389e-05
0.000104581
9.31369e-05
9.81328e-05
0.000253819
6.2563e-05
6.28337e-05
0.000112751
0.00029225
0.000451668
0.000460887
0.000459251
0.000456193
0.000455615
0.00703423