/*--------------------------------*- C++ -*----------------------------------*\
| =========                 |                                                 |
| \\      /  F ield         | OpenFOAM: The Open Source CFD Toolbox           |
|  \\    /   O peration     | Version:  v2012                                 |
|   \\  /    A nd           | Website:  www.openfoam.com                      |
|    \\/     M anipulation  |                                                 |
\*---------------------------------------------------------------------------*/
FoamFile
{
    version     2.0;
    format      ascii;
    class       volScalarField;
    location    "0.4";
    object      p;
}
// * * * * * * * * * * * * * * * * * * * * * * * * * * * * * * * * * * * * * //

dimensions      [1 -1 -2 0 0 0 0];


internalField   nonuniform List<scalar> 
6576
(
-400.763
-424.66
-391.712
-400.021
-408.29
-387.496
-387.537
-374.987
-395.399
-392.904
-390.962
-382.848
-370.197
-385.32
-296.729
-313.526
-349.554
-344.354
-317.307
-309.516
-352.168
-379.513
-387.81
-459.358
-289.334
-246.791
-174.947
-429.335
-431.174
-427.277
-419.82
-409.503
-371.337
-272.162
-253.416
-270.165
-298.277
-295.721
-287.534
-291.059
-327.848
-373.305
-321.744
1218.61
247.787
2186.35
931.54
1007.94
1729.07
1270.03
823.461
1243.75
-3.83094
-4.58366
-3.81179
-4.45504
-6.09036
-7.25672
-4.62359
-3.18818
-3.82232
-3.46386
-3.2588
-3.06019
-2.97077
-3.2006
-1.63354
-2.87528
-2.34835
-3.16314
-2.54751
-2.89092
-2.54302
5.37018
5.41249
5.14668
5.36889
4.81692
4.34809
5.06357
8.02674
7.83297
6.83257
5.4309
6.10255
6.34387
5.17691
60.6938
-5.53704
17.5235
26.4681
27.4048
31.7786
41.1046
117.764
195.005
291.956
67.0817
169.597
174.787
106.743
504.265
634.74
444.429
550.936
592.948
473.722
513.868
1635.85
1658.12
1662.47
1552.49
1705.15
2149.18
-2.78664
-2.9086
-2.8811
-2.92315
-3.19041
-2.91638
-2.90262
-14.0128
-107.737
-196.235
-103.434
-66.2741
-41.7549
6.45065
-2.36334
-3.43607
-3.16415
-4.3789
-3.8187
-4.87056
-4.23454
-0.00570737
-0.302901
-0.205214
0.522673
0.721922
0.626288
0.439111
0.055002
0.246315
-0.00837279
0.446064
0.57498
0.424614
0.37167
-0.394607
-0.448833
-0.519493
-0.294456
-0.542471
-0.570772
-0.373046
-0.138936
-0.0630263
0.101853
0.00659904
0.00390816
0.270912
0.3828
0.194861
0.246974
-0.322274
-0.485862
-0.333669
-0.161139
-0.397796
-0.502927
-0.31763
-0.260241
-0.28401
-0.0871997
-0.143864
-0.194228
0.10821
-0.00509506
-0.0140168
0.072448
-0.692034
-0.793896
-0.45599
-0.595532
-0.606712
-0.176672
-0.308153
-0.351973
-0.385347
-1.00662
-1.01977
-1.25325
-1.07378
-0.926857
-1.1469
-0.968143
-1.69217
-1.11915
-1.24824
-1.1901
-1.42225
-0.973418
-1.00874
-0.880248
-1.41012
-1.46753
-1.29796
-1.33265
-1.90922
-1.643
-3.49243
-5.39376
-3.70012
-0.266855
-2.75361
-4.8958
-5.91865
-2.04617
-2.10225
-2.01184
-1.93021
-2.06734
-2.04081
-1.9155
-1.74384
-1.83961
-1.64626
-1.73635
-1.65521
-1.47716
-1.60259
-1.09466
-0.984593
-1.12655
-1.18443
-1.07861
-0.988297
-1.11795
-1.00355
-0.942314
-0.787743
-0.97172
-1.09423
-0.959087
-1.10139
-0.686344
-0.560035
-0.71905
-0.79615
-0.645169
-0.787247
-0.615799
-0.560172
-0.737664
-0.57551
-0.54188
-0.731228
-0.457469
-0.593014
-0.501692
-0.643426
0.594077
-0.00286593
-0.56185
0.936904
1.5447
0.840854
0.339425
883.456
779.359
664.044
1070.97
686.743
757.014
1335.87
666.141
1251.25
1175.53
1158.69
1098.98
1034.72
821.816
927.254
609.336
-19.2632
-71.5818
88.7384
81.6712
141.694
-4.30857
40.2041
43.03
48.1556
1112.74
1128.56
1128.19
341.156
445.919
78.8311
564.889
507.216
254.242
456.517
0.776244
0.953747
0.967099
0.818392
0.938493
1.16966
0.920922
-1.63251
-1.58531
-1.54844
0.307211
-0.407512
-0.838684
-1.44059
-1.00561
-1.12863
1.29737
1.36909
1.34874
1.42408
1.18998
1.20104
1.18581
-169.905
-169.754
-170.055
-168.887
-169.697
-169.623
-169.207
-167.622
-168.044
-168.469
-167.111
-167.788
-171.604
-169.399
-168.445
-168.505
-154.681
-138.991
-102.817
-147.854
-119.91
-110.25
-50.2912
-46.8909
-130.199
369.249
578.251
366.157
459.079
559.133
405.975
616.244
1229.38
986.68
1080.67
1059.4
865.575
372.08
786.695
975.65
1434.29
-169.278
-167.801
-160.647
-161.561
-137.905
-170.942
-161.627
-171.736
-170.489
-168.222
-168.498
-167.865
-170.103
-171.05
1.85324
1.52374
2.20942
1.05002
0.946001
1.41278
1.5642
2.41395
1.84827
2.61572
2.91062
3.31955
3.22512
3.19685
2.83636
2.66603
2.53311
2.75734
2.61874
2.78316
3.02592
2.72872
2.94038
2.7382
2.59153
14.7888
15.5716
12.6873
24.3813
10.5858
10.809
9.29509
21.1091
7.06183
-7.96979
20.6424
3.72435
12.973
15.3995
-1.38692
-1.43485
-1.53454
-1.30727
-1.39655
-1.46602
-1.56429
-1.47047
-1.7521
-1.73938
-1.69748
-1.45328
-1.61885
-1.83585
-0.510596
-0.847337
-1.1013
-0.668819
-0.726077
-0.957628
-1.17619
0.0658577
0.0521297
0.526846
0.233148
0.358367
1.29304
0.987594
0.925523
0.699184
1.72735
0.983703
1.9654
-0.280187
0.959669
1.10203
1.45077
10.0963
12.8223
3.05362
8.12863
19.8149
2.72478
10.743
7.11369
3.28232
15.9468
11.0484
-29.5369
1.72365
11.9196
-16.649
3.42128
5.13752
4.10516
-36.6035
5.21205
26.182
-2.55449
-2.90449
9.47294
-18.038
-16.8329
10.1079
5.91747
-47.0677
15.6994
-7.60265
-8.33805
-10.6108
34.316
-9.13581
-17.5118
-11.0179
-12.1643
-8.22948
-9.73656
-6.92517
-10.3977
-20.121
-9.14094
-3.5195
-10.3792
-14.708
-15.972
-18.3321
-7.91558
-15.2718
-7.87148
-3.02356
-8.46915
-9.52372
-7.79841
-9.41015
-6.66367
-4.50436
-7.39428
-13.1622
-16.4866
-7.55386
-8.21893
-7.46855
-6.74749
-2.94795
-6.21618
-13.3502
-11.024
-10.1343
-11.436
-6.19178
-8.32214
-7.31031
-5.94018
-3.63615
-3.57283
-3.32429
-3.86342
-4.44268
-3.55238
-4.23646
-3.82793
-3.38448
-2.44241
-2.33642
-2.52983
-2.67895
-2.69773
-2.45569
-2.62666
-2.44218
-2.67534
-2.68031
-2.41864
-2.4671
-2.61756
-2.55272
-1.71337
-1.73336
-1.98887
-1.73009
-1.96378
-2.17486
-1.87192
-0.643456
-0.453763
-0.534086
-0.844846
-0.823536
-0.452677
-0.33372
-0.482147
-0.463262
-0.632798
-0.391987
-0.50843
-0.0510512
0.0920177
0.104824
0.0368535
0.179857
0.113102
-0.0248338
1.22792
1.7135
3.13479
1.06909
2.56821
1.49659
0.702647
-2.50773
-2.37045
-2.48628
-2.3029
-2.29936
-2.42564
-2.36777
-1.30451
-1.8086
-1.73616
-0.987881
-1.04938
-1.16613
-1.2369
-1.69358
-1.55412
-0.324095
0.100815
-0.285443
0.0682376
-0.284208
-0.120255
-0.510232
1.33894
1.34934
1.28914
1.2773
1.32716
1.36002
1.31717
1.42838
1.50377
1.44397
1.53348
1.46925
1.44843
1.4316
1.36117
-1.61838
3.52778
1.48682
1.67528
2.73837
4.93969
302.763
285.573
256.024
291.386
273.252
303.978
245.808
162.93
260.246
350.063
281.205
412.605
285.107
296.462
235.051
322.664
431.6
216.744
307.36
318.677
151.118
245.39
282.32
402.801
522.918
28.7976
130.573
103.943
43.7493
155.807
128.277
122.869
217.606
210.42
264.884
171.384
196.052
121.255
204.922
175.31
278.748
-63.9046
75.37
-43.2157
-24.9371
106.075
-38.019
217.038
126.352
173.9
38.9853
47.5444
-104.893
-170.019
-104.783
-118.294
-144.077
-124.197
-132.783
61.3384
49.3271
-6.71451
-94.795
17.7689
442.438
513.805
520.186
-166.635
-158.417
-164.43
-165.102
-160.777
-160.489
-165.217
150.851
-123.779
-94.6613
-155.843
-147.87
671.68
354.58
407.187
676.538
-141.085
306.923
827.004
550.238
505.662
911.97
-132.697
-63.5833
-81.2776
14.7369
-123.623
-29.1008
-179.605
409.196
241.373
202.191
197.868
281.027
30.9098
-95.4669
83.6712
33.8831
602.888
398.175
322.55
-194.121
-259.161
-267.765
-157.23
-199.008
-124.802
-11.8309
-188.844
-196.734
-154.737
68.7422
53.7204
-37.9326
-20.7678
-14.3572
-199.25
-10.8446
-5.88539
-67.6086
-112.681
-288.503
-236.021
128.493
-113.715
-147.462
-13.6364
-150.874
-152.534
-20.5164
-97.6963
-147.204
-161.49
-107.87
-162.344
-161.927
-165.071
-159.696
-166.357
-166.073
-164.541
-161.032
-160.88
-160.368
-160.253
-161.237
-160.998
-161.592
-20.344
-72.6066
-48.9311
-26.6268
-72.8723
-20.2579
-44.5938
-158.971
-159.363
-158.057
-162.632
-161.197
-160.179
-160.578
-80.3732
-72.47
25.8753
-44.2378
-20.5631
4.91276
26.3999
5.07622
22.0298
39.6422
21.3084
24.4166
22.8455
29.2341
22.2663
15.4156
7.91219
11.3176
9.55279
-4.53388
30.8459
10.5801
8.25685
11.7219
7.93037
4.89734
4.5019
4.5667
3.7827
4.55713
3.07448
3.32704
0.671091
0.604445
0.759091
0.369666
0.351822
0.485765
0.474387
0.80451
0.988045
0.831149
0.685166
0.871909
0.800139
0.623285
0.160548
0.0445638
0.125272
0.260463
-0.0170305
-1.36532
-1.53689
-1.19431
-1.48143
-1.89427
-1.80066
-1.57615
-0.101595
0.847156
-0.602818
1.08113
0.855074
-0.222378
0.0155902
3.65259
3.54784
3.34023
4.01455
6.02459
3.68122
3.74142
33.831
25.7662
30.9062
38.0061
-2.62007
17.0697
12.0314
-0.297531
1.97113
1.50329
24.7353
22.7207
4.27837
9.65965
6.24279
10.0109
10.2109
0.20993
12.6134
4.76627
-3.23428
7.83649
6.85399
0.685142
-2.1936
1.66984
-0.559089
3.37604
-1.29452
5.58794
6.03362
-7.22152
0.201473
8.81622
22.0765
8.52091
7.92689
38.2809
0.119511
0.35609
0.231685
0.140738
-0.23294
0.174393
0.629528
-1.86982
-1.45985
-0.594934
1.079
0.238528
-0.11016
0.35305
-3.16927
-2.69914
-3.82348
-3.1884
-3.1047
-2.70052
-3.46426
-6.58261
-7.80946
-5.44824
-4.15232
-4.39797
-4.6195
-4.6526
-4.33435
-4.03206
-3.92372
-3.44716
-5.27322
-3.50861
-4.21448
-1.82914
-3.42055
-3.35301
-3.31817
-1.73148
-3.04481
-3.19469
-3.19062
-2.9489
-3.03363
-2.95011
-2.95988
-2.97051
-2.97521
-2.94308
-2.95126
-2.95653
-2.9361
-2.96991
-2.94158
-2.94359
-2.94636
-3.08954
-2.96075
-2.98626
-2.93825
-2.98545
-3.10484
-3.00865
-2.96637
-3.02419
-1.8864
-1.95753
-1.79713
-2.25143
-2.29967
-2.11929
-2.12168
-1.16614
-1.19177
-1.30022
-1.17557
-1.34187
-1.22719
-1.38031
-0.527043
-0.586155
-0.341347
-0.556833
-0.307048
-0.362886
0.211249
0.319204
-0.569155
-1.21825
-0.860082
-1.5753
-1.51147
0.383893
-0.565455
-0.520549
-0.754083
-0.692609
-0.355709
0.157377
-0.830457
-2.20248
-2.44772
-2.24097
-2.17659
-2.39251
-2.20084
-2.21167
-2.26
-2.18059
-0.447891
-0.621655
-0.682158
-0.28875
-0.172854
-0.374739
-0.441718
0.0493292
-0.210873
-0.0818535
-0.092311
0.0963046
0.112941
-0.085721
0.569459
0.707497
0.635985
0.554452
0.718634
0.531908
0.766843
0.73394
0.538046
1.23037
1.13568
1.21898
1.04957
1.09134
1.16761
1.17227
315.708
255.172
268.388
236.706
266.255
241.321
261.7
359.933
357.986
437.791
332.583
366.893
345.014
388.889
339.097
371.988
377.226
352.176
416.763
363.125
387.069
370.77
350.186
447.887
405.678
425.719
437.661
515.035
416.704
546.589
464.613
467.797
447.405
127.351
350.031
173.445
118.508
200.733
135.643
-169.548
-169.894
-169.548
-169.668
-170.815
-169.33
-169.679
-25.9383
-126.349
-110.443
-150.586
-131.913
-155.247
-161.324
-157.129
-161.389
-155.401
6.9296
-272.144
-147.249
-290.095
-189.224
-350.56
-160.462
-113.466
-214.128
-109.804
-22.8222
-78.1049
-97.5045
237.871
259.674
239.517
392.715
325.619
346.976
352.863
391.361
540.139
297.287
-52.5086
128.228
385.146
-46.0549
2.79534
19.7892
-99.7153
-24.7379
-73.6734
-125.473
130.697
85.6381
252.26
310.229
377.42
116.214
149.32
35.3749
42.6818
40.1837
45.5566
69.5588
30.3852
36.7186
14.8033
15.0555
15.2963
14.155
22.9818
15.7851
19.4291
25.2277
8.19984
20.7369
-15.8703
24.1805
-6.9829
-15.034
13.8455
-113.627
73.5017
2.62762
11.2994
-35.5824
-108.982
8.51923
7.89756
9.33436
9.10784
9.11559
9.62123
8.74764
5.35677
4.82564
6.14879
6.78987
6.02511
6.60847
7.32665
4.83118
4.56529
5.04629
5.19523
4.77566
5.1044
5.14969
-0.0221719
0.27838
0.229919
-0.529861
-0.749892
-0.284319
-0.241406
-2.11337
-3.10095
-2.65083
-1.50833
-1.20229
-2.22988
-2.10019
-0.593907
0.0199564
0.209718
1.78523
0.84801
0.572871
-0.0453975
2.63194
3.32208
2.74626
5.08097
3.70547
2.51924
3.50621
4.83196
4.64203
5.51705
5.27138
4.30303
4.84613
4.87172
4.35632
6.44068
5.55432
4.61513
5.57448
5.12217
4.96224
5.34084
4.99737
26.7689
15.793
15.5758
15.8208
12.4493
3.25675
5.61768
16.2178
5.59198
3.4299
21.1759
-7.86256
11.9547
7.33516
28.9641
20.6861
22.0982
29.4322
17.57
11.1177
28.5601
0.496145
18.5814
13.3924
23.414
16.9514
11.6825
-3.44291
26.7399
12.0735
18.7561
20.4725
10.5012
-3.82096
15.2211
11.2813
13.4477
0.989643
1.24369
1.73251
1.35634
1.12422
1.67342
1.72191
0.466768
0.995315
0.439093
0.178482
0.552504
0.284048
-0.0543006
0.336261
0.603695
0.314915
0.39183
1.1175
-0.0565921
0.0934859
0.136756
-0.144116
-0.468751
-0.233216
-0.0384843
-1.35822
-1.37813
-1.05128
-1.37889
-1.31121
-1.03155
-1.37491
-3.71387
-4.02103
-4.29795
-3.30032
-3.22036
-3.65188
-3.56165
-3.81104
-4.21597
-3.92812
-3.82298
-4.04979
-2.79119
-3.15926
-2.90229
-2.98174
-2.85413
-2.88416
-2.69934
-3.52686
-3.40588
-3.27014
-3.37821
-3.18087
-3.1434
-3.24264
-2.95724
-2.92822
-3.08625
-2.94174
-2.94312
-2.9511
-2.96403
-2.94981
-2.9525
-2.98275
-2.94101
-2.94839
-2.94747
-2.92634
-2.86462
-2.86844
-2.87218
-2.83349
-2.80025
-2.86798
-2.90957
-2.92863
-2.92694
-2.87546
-2.86247
-2.86749
-2.83228
-2.91865
-2.87134
-2.87007
-2.87957
-2.9133
-2.918
-2.81449
-2.81935
-2.82105
-2.83471
-2.79043
-2.69388
-2.77414
-2.67442
-2.76283
-2.79896
-2.74712
-2.86795
-2.78721
-2.78919
-2.87211
-2.80132
-2.75764
-2.8216
-2.53925
-2.61507
-2.50397
-2.55437
-2.45474
-2.60613
-2.52232
-1.35273
-1.38579
-1.43938
-1.3203
-1.15339
-1.29321
-1.41921
-1.35668
-1.37874
-1.44076
-1.41677
-1.45262
-1.39151
-1.44741
-1.19286
-1.19781
-1.17075
-1.22984
-1.20693
-1.23777
-1.2023
-1.65453
-1.59644
-1.64766
-1.51836
-1.51991
-1.56033
-1.55113
-1.63972
-1.63411
-1.81312
-2.02343
-1.85159
-1.71851
-1.76057
-1.85159
-1.75471
-1.76403
-1.64791
-1.83667
-1.47111
-1.53056
-1.61806
-1.66593
-1.01733
-0.714017
-0.741281
-0.621388
-0.683897
-0.646414
-0.764165
-0.840325
-1.05154
-0.197642
-0.261188
-0.475129
-0.0905417
0.0203322
-0.176614
-0.0442179
-0.191065
-0.363693
-0.0692247
-0.0762373
-0.267889
0.140785
-0.0115086
0.0529503
-0.105309
1.14372
1.14316
1.19827
1.17757
1.09443
1.14061
1.20747
1.24104
1.27016
1.22773
1.29584
1.31319
1.30671
1.29638
1.42328
1.43668
1.47219
1.43466
1.34304
1.42169
1.47986
1.08183
1.33607
3.83217
1.45655
0.503278
2.56815
3.53408
18.7565
-20.8715
-0.0149315
8.91848
28.5904
21.7752
10.4846
190.979
158.342
157.145
197.571
164.761
155.441
160.567
122.092
86.1141
86.0619
60.8303
80.5217
98.3997
71.97
211.141
176.216
173.712
142.93
219.3
159.707
351.316
272.58
258.908
270.794
315.728
259.72
257.244
250.7
271.41
260.682
450.384
384.171
405.489
-158.945
-161.356
-160.614
-162.264
-162.039
-160.395
-161.404
383.16
396.955
353.894
165.808
217.576
439.88
336.368
212.779
357.284
301.073
325.534
451.054
444.612
320.484
253.251
301.231
301.991
387.097
374.384
274.871
41.0415
37.3244
45.3183
38.1993
44.0643
41.9492
38.8463
19.5759
36.5544
18.0411
37.1317
15.0268
20.667
13.4856
26.4078
22.0829
22.2637
26.3147
24.5104
24.2659
26.154
10.5866
1.57041
16.8168
17.3439
6.69159
17.2236
16.9806
18.7925
18.6862
7.23617
6.31215
7.58695
8.7137
7.97488
5.95626
6.45388
5.77214
6.37353
8.7368
7.11503
9.90072
15.6711
8.88763
9.64703
7.5317
9.33808
9.34431
9.60439
10.3702
9.72687
11.0204
11.9927
11.1465
12.1586
10.1883
9.58415
10.3281
9.87126
9.81171
10.3329
10.3298
2.19184
1.14601
1.7157
1.39481
1.90169
1.494
1.71718
1.28474
0.54306
1.25989
1.26382
1.29522
1.5872
1.60595
9.47872
4.00336
15.2658
15.7586
-27.154
4.2568
3.20125
12.6104
7.60386
12.214
21.2297
4.43304
16.6264
13.2589
28.3832
30.9409
6.0907
13.5558
-24.6881
-4.93842
22.8798
9.179
-3.66578
17.6397
29.8988
46.8289
-3.7228
11.1861
9.71625
4.29116
15.084
-0.127496
7.27218
9.79271
-0.248953
6.49756
5.30019
5.13981
4.15664
5.10923
5.22169
6.11168
2.24258
4.1631
2.80755
2.34746
2.32958
3.33597
2.21731
1.83539
1.76766
2.17666
3.03472
3.3193
2.73445
2.75067
-0.0728332
-1.04888
0.489454
-0.322238
0.470905
2.05884
0.733581
0.23297
-0.159974
0.0757415
0.0529839
0.328957
0.007361
0.261649
-1.98024
-2.21842
-1.90507
-1.8374
-2.05805
-1.66336
-1.86175
-2.20833
-2.1394
-2.01915
-2.05769
-2.15165
-2.09419
-1.95702
-2.85293
-2.80841
-2.77626
-2.79359
-2.87503
-2.77967
-2.72039
-2.79505
-2.74255
-2.66177
-2.81983
-2.90757
-2.75619
-2.87076
-2.86634
-2.92592
-2.7928
-2.79098
-2.81793
-2.82165
-2.82023
-2.77241
-2.74919
-2.70987
-3.24395
-2.63588
-2.76908
-2.76015
-2.62
-3.55109
-2.73633
-3.02124
-7.30291
-3.61376
-5.82611
-6.48523
-3.98853
-6.33078
-5.3917
-4.6346
-195.884
-26.5516
-47.6293
-28.4532
-55.8654
38.7058
-1.27508
-2.39836
-0.244166
-0.493208
-2.03169
-3.47246
-1.37063
-4.37807
-5.82043
-5.29869
-4.61693
-4.43377
-1.34551
-5.08896
-3.235
-2.37195
-2.87888
-2.79618
-2.64423
-2.18634
-2.67474
-1.53161
-1.36996
-1.57851
-2.13143
-1.55053
-1.37755
-1.3212
-1.32188
-1.27336
-1.28457
-1.2617
-1.23124
-1.29663
-1.24584
-1.37628
-1.30545
-1.32074
-1.2696
-1.31387
-1.39396
-1.33759
-1.29901
-1.33895
-1.38492
-1.27852
-1.3245
-1.33219
-1.28503
-1.22548
-1.32402
-1.22595
-1.16573
-1.12213
-1.14944
-1.07739
-1.11114
-1.01726
-0.546726
-0.632431
-0.723451
-0.656578
-0.560512
-0.773428
-0.642873
0.221287
0.0667647
0.185083
0.372982
0.275005
0.191028
0.297751
1.02108
1.03255
1.04167
1.17892
1.19207
1.13939
1.134
-4.61787
29.7001
4.69514
1.04991
12.418
-1.8531
-2.49202
14.209
-19.6023
38.8358
-8.96855
22.2165
5.4737
8.53268
-5.80245
-3.8816
3.23837
-9.797
19.9226
-3.73903
-4.86263
-13.4719
-19.7758
1.39323
5.52904
17.0363
0.537087
7.5745
1.80811
-0.0111753
-0.0711706
-9.49223
0.752985
66.2113
43.1493
45.4385
16.6399
40.545
3.85319
30.9425
10.1957
3.21718
6.2078
3.63215
4.76746
3.73434
3.91856
39.5738
60.2435
42.2789
90.1826
126.841
104.552
51.6691
70.3867
67.747
11.5224
12.9801
22.3939
31.4493
-22.6397
13.9658
-37.5799
-31.0768
-86.833
-7.36116
-41.2017
29.0988
37.274
27.4985
35.3712
21.9501
43.8045
32.0287
171.015
137.657
159.551
130.106
125.165
146.951
140.276
32.3189
18.113
37.3213
10.1166
23.0435
20.9753
32.8787
1599.48
857.176
2029.57
1082.9
1163.79
1358.87
1681.7
91.7875
-158.367
65.5909
-20.1986
619.286
257.817
7.44443
4.75207
6.15386
6.11944
5.16203
6.08273
5.56398
3.9747
3.43512
5.54253
4.11971
3.83706
4.35245
3.90108
5.16961
12.6476
2.09881
11.3287
14.5416
10.9919
11.2368
21.7924
11.3794
-17.8138
26.3785
25.094
26.4324
6.39302
13.9057
18.4902
29.7698
20.266
23.0401
3.51209
8.16278
-5.20175
21.2171
-2.16106
3.03221
2.25787
2.38734
4.94361
1.76648
1.91686
2.44402
3.29834
1.67911
3.12109
3.21583
2.5886
2.15864
2.63202
2.72495
5.0212
3.67536
3.93293
3.81412
3.81574
2.77181
4.52558
4.48848
4.914
3.27937
4.44842
3.97114
4.95604
0.406803
0.41137
0.742079
1.54953
0.757187
1.03359
0.968534
0.374725
0.340692
0.53549
0.182036
0.131243
0.331106
0.607706
-0.932111
-0.358446
-0.66685
0.648287
0.199452
-0.837797
-0.880634
-1.11821
-1.59486
-0.244349
-0.636132
-0.700453
75.287
-15.2108
31.6658
20.5583
-1.10676
-8.59529
10.8156
-5.06429
-5.26309
-4.45229
-4.57892
-4.19559
-5.6676
-5.32262
-2.32224
-2.23588
-1.39913
-1.95545
-1.42337
-1.19824
-1.47311
-2.86845
-3.29748
-2.98489
-2.72728
-2.83518
-2.68406
-2.82732
-2.71195
-2.79413
-2.62653
-2.78025
-2.92426
-2.74416
-2.74754
-2.70205
-2.96614
-2.64625
-2.745
-2.80659
-2.87694
-2.94261
-2.87676
-2.79036
-2.79388
-2.7284
-2.70374
-1.92599
-1.83096
-2.04523
-2.03465
-1.93595
-2.09676
-2.25964
-0.519383
-0.576984
-0.679544
-0.350323
-0.529024
-0.573859
-0.436076
0.095361
-0.0665986
0.0938535
0.310208
0.167729
0.082661
0.212069
0.560804
0.434707
0.53596
0.633525
0.563347
0.428648
0.53158
0.758172
0.846395
0.884696
0.989175
0.964288
0.952635
0.911731
0.879447
0.810241
1.27056
1.21211
1.27769
1.2885
1.24047
1.26881
1.27953
4.26697
-1.61133
-5.76861
-4.45714
-2.66583
-0.271527
2.46295
-14.0664
-12.1581
1.19425
25.3927
16.4657
23.8798
-6.97069
3.50509
-16.1992
0.771184
-6.26599
-25.9195
1.5217
-31.9031
-4.14737
-14.1219
7.36439
43.5626
2.58866
5.40396
3.80005
21.1483
3.72264
-16.9337
0.87188
-2.83228
5.40328
7.45526
0.165515
1.54148
1.58283
1.77179
2.19159
3.19923
1.62555
2.00556
1.64055
1.57746
1.63591
1.55877
1.54184
1.52203
1.55798
9.90587
10.9853
7.00112
12.2033
13.7203
-63.9739
47.4325
58.5609
53.7241
50.8216
80.5405
40.217
12.5483
15.0773
16.4218
14.8777
15.1061
15.3577
15.2596
25.5008
32.1769
26.1329
23.3371
18.5656
12.4444
12.3307
11.7939
7.0894
12.5782
8.51469
11.2299
17.0078
10.7423
16.544
13.5798
12.4313
10.531
13.414
14.1924
40.1438
43.7201
28.6468
33.0509
25.8172
26.5119
999.682
220.89
768.436
2103.16
904.258
2053.53
1858.42
2173.44
2276.63
1619.62
2461.97
1182.55
2962.9
2276.87
2030.77
2573.44
256.582
639.507
587.527
-348.121
209.108
-290.781
167.229
264.331
2029.67
1280.15
113.421
147.997
128.342
110.279
99.393
91.9209
113.425
109.472
121.934
167.689
23.2119
25.828
19.8833
22.342
20.8257
16.3119
9.77635
14.9336
15.0378
15.0969
15.0569
14.798
14.9332
14.7581
13.0469
12.53
13.068
14.3925
15.0187
13.8453
13.8672
13.4176
12.9682
8.04685
6.17057
10.6246
10.0568
11.3037
12.4672
9.16329
9.98176
14.1874
13.0761
9.95783
11.421
8.00978
9.65527
10.6064
9.05443
8.45574
6.00999
7.61421
1.55338
-0.803918
1.36162
0.835167
-1.0366
3.13006
0.88514
-0.845776
-0.894621
-0.756675
-1.45187
-1.03811
-1.54844
-1.77072
-1.25195
-1.03104
-1.10447
-1.25118
-1.01612
-1.13404
-1.07842
-1.1206
-0.906634
-1.04351
-1.38614
-1.09614
-1.23539
-1.05898
-1.53608
-1.30988
-2.21886
-1.9779
-1.97337
-1.95074
-1.78352
-1.85167
-2.02183
-2.6829
-2.58883
-2.71041
-2.73084
-2.84514
-2.68846
-2.83189
-2.70093
-2.72263
-2.61751
-2.79944
-2.90999
-2.77073
-2.7374
-2.6482
-2.89804
-2.6166
-2.71487
-2.71786
-2.84597
-2.92062
-2.84427
-2.7195
-2.7676
-2.68973
-2.67321
-2.4981
-1.48431
-1.70626
-2.11371
-1.18719
-0.602823
-1.24422
-0.672045
-1.4632
1.33203
1.34247
1.36821
1.27105
1.33899
1.38609
1.32646
1.26396
1.28774
1.42817
1.36822
1.35041
1.36404
1.48281
15.2737
13.3986
9.55926
-10.0276
7.75225
-21.7117
2.48477
-8.67014
24.9866
19.109
27.4131
11.6095
14.9979
0.108397
-26.9572
20.4498
4.60683
-8.30906
-6.6098
-3.09217
1.88187
-1.59048
-11.3687
3.32657
8.19103
-2.56617
1.08626
1.15744
1.13084
1.07595
1.11818
1.12774
1.08156
1.10125
1.35631
1.18126
1.40352
1.30147
1.15614
1.1407
1.04641
1.16045
1.25795
1.26448
1.30689
1.20033
1.41009
0.98967
1.09209
1.05672
1.02467
1.0827
1.08718
0.989668
0.646992
0.997403
0.91421
1.2214
1.01337
1.1344
1.07632
2.54848
2.58175
1.70514
3.15358
2.67815
2.56893
2.62363
0.41704
-0.212391
-0.113556
-1.78197
0.865407
-1.18942
-0.965502
2.47736
2.3671
2.47218
1.30599
1.84405
6.47126
5.25003
5.43855
7.26514
7.33874
6.45095
7.00947
10.6037
10.1523
10.7303
10.1315
9.3184
9.24022
9.90348
9.60057
10.963
10.3334
9.06509
9.25754
10.2846
9.29712
-237.071
96.8267
82.7977
142.56
-124.38
-27.5673
-8.73655
51.9553
242.696
106.319
292.86
-67.9157
-61.5394
87.397
6.95799
-155.467
158.434
115.087
51.8118
46.0284
86.6475
-98.0145
41.3167
-188.522
177.813
66.8812
110.421
102.627
77.006
174.787
145.494
156.931
134.709
363.458
440.902
377.905
340.008
366.392
330.82
345.76
206.17
207.348
188.359
289.84
228.969
269.447
217.109
378.285
390.523
509.307
184.961
205.782
225.662
118.339
107.259
155.816
181.582
168.219
137.244
133.775
48.2871
81.9267
119.93
93.118
60.0244
90.2828
56.8562
110.91
73.9726
-1.62333
-1.4433
-1.49785
-1.69704
-1.56283
-1.56278
-1.54179
-1.41043
-1.5599
-1.46648
-1.6113
-1.64366
-1.61118
-1.58523
-1.41973
-1.26807
-1.32165
-1.28677
-1.34019
-1.42737
-1.3378
-2.68933
-2.58852
-2.69918
-2.10669
-1.83296
-1.9234
-2.15583
-1.90836
-1.86316
-1.97642
-2.66369
-2.88508
-2.67248
-2.68848
-2.50065
-2.69452
-2.85418
-2.74432
-2.59544
-2.70426
-2.91886
-2.74089
-2.95205
-2.85363
-2.91787
-3.20053
-3.02748
-2.91931
-3.06443
-2.76278
-2.9479
-2.81743
-3.96547
-3.538
-3.4515
-3.43172
-3.38863
-3.61379
-3.17567
-3.79963
-3.64309
-3.24383
-3.55687
-3.60711
-3.39667
1.06895
0.60493
1.42022
1.45453
1.49666
1.23725
0.982533
-8.96118
0.909135
-2.45321
0.0211698
0.39311
-10.7563
12.3195
0.606374
8.76676
4.06787
-6.24994
8.59865
-2.69221
-8.6024
10.0402
5.28221
-13.5682
1.05978
1.11323
1.11777
1.04607
0.990824
1.06281
1.09192
1.14461
1.20627
1.19347
1.22909
1.20642
1.25556
1.19311
1.13463
1.12552
1.13339
1.17227
1.14755
1.16646
1.16149
1.04779
1.09946
1.06181
0.973439
1.02006
1.05865
1.01309
1.06265
1.09075
1.04644
1.07575
1.059
1.07527
1.1111
0.701401
0.785632
0.689713
0.640636
0.719673
0.676848
0.588321
0.950494
0.998427
0.920352
0.847574
0.955811
0.954873
0.861107
0.351607
0.202236
0.394779
0.416051
0.569122
0.453053
0.316363
0.982258
0.869621
0.91969
0.92914
0.839637
0.79216
0.928075
0.823431
0.78264
0.64179
0.488654
0.421703
0.293386
0.531875
0.546982
0.692129
0.698341
0.206105
0.377621
0.560688
0.649244
0.787169
0.769894
0.675211
0.611654
0.503737
0.734014
0.746102
0.601157
0.534828
1.1731
1.12153
1.28353
1.3543
1.37885
1.36994
1.32025
1.98274
2.13149
2.06275
2.40261
2.29563
2.13597
2.17071
1.84926
1.44578
1.89087
1.76903
1.59872
1.84223
1.7927
1.58723
2.29464
1.32183
1.99224
2.71321
1.90744
2.5014
2.16823
1.99744
3.16144
3.36917
3.17513
3.21137
2.99974
30.467
25.9382
36.7811
13.9563
15.4266
16.314
2.32823
155.251
73.9874
-38.4056
241.422
85.7254
240.79
89.9195
48.2553
239.244
102.734
-38.5145
54.1207
22.671
35.8114
-136.997
27.2052
-65.8549
192.754
77.7721
123.423
132.377
205.784
154.248
233.195
67.9415
18.227
24.6095
-40.1299
13.6235
4.96099
-56.6254
-201.163
-42.6099
12.4842
2.39121
-0.840839
-2.31599
-10.8844
-0.811756
2.78117
1.59422
135.943
170.736
108.242
153.956
108.482
126.878
125.127
34.3144
45.3124
72.7038
36.4153
42.4087
105.509
68.0494
58.8688
70.3942
35.1966
30.4594
36.6388
37.8478
35.9338
43.7824
35.0023
36.3862
41.3297
-276.405
-159.464
-329.824
-280.321
-348.842
-204.435
-355.957
-518.228
-514.771
-495.526
-490.52
-506.812
-462.072
-466.408
-77.1094
51.5345
58.2748
-82.8032
29.7352
70.0239
2.19228
18.6966
-126.594
96.8821
180.715
284.222
187.828
90.1009
454.275
516.901
576.793
435.94
488.097
566.936
503.213
704.038
785.801
533.963
629.667
893.469
723.933
710.135
740.258
847.326
656.156
1101.37
723.385
522.762
521.165
540.556
544.661
646.476
575.931
784.047
491.867
467.773
561.678
552.446
552.811
508.752
547.173
564.105
602.97
655.472
597.18
558.043
-485.882
-251.983
-485.029
-526.731
-426.593
-298.323
-471.188
-535.329
-436.172
-481.265
-504.085
-429.738
-521.266
-458.626
-460.965
-775.476
-470.158
-121.24
-278.358
-566.695
-839.754
1361.75
1496.53
1398.44
698.028
1725.04
2274.63
774.521
1228.17
1325.93
1021.63
1204.34
-11.5105
728.394
449.739
600.953
803.646
1073.96
967.939
1023.8
1013.45
-472.595
-445.826
-494.143
-471.979
-499.636
-511.181
-495.548
-332.297
-424.207
-387.253
-247.853
-254.02
-381.834
-360.124
-365.609
-321.606
-204.927
-382.995
-408.045
-399.682
-370.876
0.984198
3.47378
3.93104
4.98777
6.45113
5.02476
3.05661
9.25187
9.06113
8.22732
8.80232
8.48887
6.53256
7.21498
2.22093
3.51508
2.20377
1.93731
0.539742
2.44709
3.69514
1.79149
3.12478
5.26346
5.20844
5.86699
5.6065
5.03304
5.49219
6.16252
16.2318
2.54707
-12.1458
6.11123
-7.41907
15.6513
11.1701
1.13809
0.492677
11.8693
8.97172
-8.32807
11.2653
6.59367
-3.15989
-4.11865
-10.694
-0.289665
-8.31905
1.41107
1.51288
-0.329578
-3.10995
-0.813266
-1.02628
-0.496645
0.0419543
0.272471
-1.88031
-1.68588
-0.887772
-1.39276
-1.53602
-2.13883
-2.07743
-2.08087
-2.37145
-2.17187
-2.09639
-2.18861
-2.25617
-2.08163
-2.13696
-2.28612
-2.47134
-1.16452
-1.11932
-1.12177
-0.981979
-1.06471
-1.12542
-1.08289
-0.923743
-0.773813
-0.786762
-0.661962
-0.761119
-0.831214
-0.730822
-1.02827
-1.01568
-0.890971
-0.96208
-0.956038
-0.806362
-0.844358
-0.777673
-0.321923
-0.596693
-0.526542
-0.708132
-0.84581
-0.562525
-1.63226
-0.494478
-0.758721
-1.91982
-2.74658
-3.38876
-3.16449
-4.65462
-3.6591
-3.18224
-3.3104
-4.11428
-3.84836
-3.71985
-3.9143
-3.8624
-3.90158
-3.75985
-3.72536
-3.12571
-3.81651
-3.61051
-3.25514
-3.21473
-3.75847
-3.11305
-3.15051
-3.22559
-3.25499
-3.17058
-3.53876
-3.19967
-3.07018
-2.99284
-2.99065
-3.20096
-2.88522
-3.23194
-3.16927
-3.30538
-3.04983
-3.1645
-4.05989
-1.84862
-2.33562
-2.52502
-2.08554
-3.03581
-2.34903
-1.78942
12.6823
-29.2461
17.4386
-0.218559
7.1081
8.47782
-15.1976
-4.29389
-70.8877
-12.938
5.34608
9.66082
12.551
7.38237
3.32527
-26.3355
0.518852
0.957901
0.913442
1.07772
1.08196
0.498522
0.798412
1.11848
0.975429
-12.1832
-10.5165
0.400171
0.699308
-3.84169
-2.0359
-11.4151
0.909894
0.829805
0.968242
0.999802
1.02851
0.906489
0.837595
1.23638
1.2306
1.28539
1.28521
1.15344
1.33513
1.24898
0.635443
0.68739
0.568005
0.541056
0.434411
0.622517
0.543236
0.914076
0.896128
0.964127
0.890874
0.768962
0.837521
0.825942
0.746956
0.901079
0.93731
0.893171
0.844273
0.583173
0.678442
0.620979
0.43773
0.52296
0.609591
0.54255
0.650655
0.730343
0.650392
0.689494
0.626326
0.724877
0.658701
-0.170367
-0.106081
0.0128928
-0.412744
-0.224102
0.336812
0.419156
0.377389
0.269048
0.315981
0.419906
0.362474
0.363388
0.344502
0.205677
0.396853
0.513059
0.428781
0.324617
-0.727508
-0.554628
-0.460668
-0.72255
-0.909601
-0.668069
-0.531457
-1.22169
-1.0117
-1.26075
-1.18429
-1.50342
-1.36811
-1.68654
-1.10318
-1.36627
-0.262491
-0.390883
-0.504089
-0.705521
-0.86919
-0.656961
-0.518014
-1.45621
-1.71569
-1.22969
-1.49767
-1.14382
-0.655166
-0.783747
-0.556094
-1.02701
-1.05884
-0.906753
-0.947484
-1.12236
-0.726012
-0.524547
-0.807637
-0.442716
0.0765233
-0.32065
1.94447
1.93434
1.73234
1.6159
1.49888
1.8524
1.84138
2.22502
2.21217
2.1633
2.22108
2.42404
2.26623
2.40677
2.94085
2.76842
2.66242
2.53319
2.40981
2.75527
2.79588
2.5673
2.66246
2.72258
2.77397
2.69533
2.86737
2.76358
2.75041
2.8017
3.07388
2.645
2.55394
3.24088
3.18842
3.35942
3.26642
3.14859
3.44206
3.32518
6.77813
6.88312
6.99779
7.87283
6.37297
6.92264
8.31931
144.062
7.9696
47.1055
390.709
150.218
351.499
60.652
170.821
150.693
233.772
25.0367
239.303
110.134
420.365
390.805
426.513
568.161
446.998
377.658
382.677
400.836
267.438
490.696
366.538
304.569
340.265
91.7185
493.399
366.256
419.792
300.72
942.592
346.085
566.397
683.934
948.915
1089.22
621.479
924.256
697.762
38.1016
335.426
97.3777
369.576
204.708
1163.5
828.302
776.692
520.569
-117.047
158.014
298.284
32.4012
-333.528
189.246
-389.145
-349.211
-423.032
-449.842
-228.816
-382.31
-526.442
-122.634
-422.279
-386.411
-412.942
-155.828
-353.635
-9.20511
-265.914
-349.209
-988.739
-382.451
-602.24
42.8284
-53.5616
111.134
134.903
82.1591
406.814
211.408
452.243
394.448
581.573
416.542
465.28
615.006
614.128
619.935
800.973
644.219
275.762
403.175
450.681
548.721
190.435
292.172
418.349
496.591
289.62
388.612
439.223
454.765
420.076
385.711
393.251
511.248
348.726
339.743
319.451