/*--------------------------------*- C++ -*----------------------------------*\
| =========                 |                                                 |
| \\      /  F ield         | OpenFOAM: The Open Source CFD Toolbox           |
|  \\    /   O peration     | Version:  v2012                                 |
|   \\  /    A nd           | Website:  www.openfoam.com                      |
|    \\/     M anipulation  |                                                 |
\*---------------------------------------------------------------------------*/
FoamFile
{
    version     2.0;
    format      ascii;
    class       volScalarField;
    location    "0.4";
    object      p_rgh;
}
// * * * * * * * * * * * * * * * * * * * * * * * * * * * * * * * * * * * * * //

dimensions      [1 -1 -2 0 0 0 0];


internalField   nonuniform List<scalar> 
6576
(
2785
2760.22
2768.6
2773.45
2789.76
2797.39
2772.77
2774.48
2790.93
2781.13
2822.39
2805.93
2794.01
2803.46
2767.6
2775.36
2741.79
2769.08
2771.58
2818.66
2751.45
2810.91
2814.89
2767.92
2797.9
2828.15
2875.44
2794.6
2755.9
2759.8
2779.54
2740.71
2778.88
2803.57
2797.75
2817.86
2792.2
2819.33
2778.37
2799.41
2764.26
2755.67
2782.65
1339.12
402.806
2323.11
1047.05
1103.48
1836.13
1404.56
977.363
1330.72
-0.724671
-1.30741
-0.587592
-1.06598
-3.01926
-4.19647
-1.57183
-0.260068
-0.916944
-0.559818
-0.377694
-0.152811
-0.0426628
-0.296243
1.11237
-0.103094
0.436994
-0.364669
0.224679
-0.0661724
0.255444
7.11882
7.17917
8.67826
7.02598
6.43745
7.08798
7.2344
15.2257
21.3661
18.7669
12.1398
11.4588
18.554
14.6828
91.1141
136.282
43.6884
53.6095
55.5505
341.25
226.864
239.687
351.513
365.74
262.716
339.147
279.928
258.67
513.066
659.476
473.902
572.184
600.597
505.783
534.557
1655.61
1694.23
1669.04
1583.65
1722.97
2175.47
0.12392
0.0282596
0.0294593
0.00318225
-0.264074
-0.0163534
-0.00259216
855.5
2247.25
2481.08
2588.03
2613.2
2728.51
2800.74
0.56299
-0.509736
-0.227291
-1.4789
-0.918693
-1.96002
-1.32401
1.82935
1.51896
1.64292
2.34459
2.51756
2.4219
2.26097
2.00824
2.1866
1.91874
2.37298
2.47573
2.32531
2.29859
1.66808
1.60092
1.56947
1.71575
1.49397
1.49191
1.66336
1.92374
2.02593
2.1514
2.05614
2.07972
2.30731
2.39292
2.2444
2.27024
1.83237
1.7082
1.83411
1.95409
1.74371
1.66486
1.82388
1.9066
1.90911
2.0665
1.9967
1.97261
2.2225
2.13547
2.12655
2.18674
1.68594
1.61035
1.90885
1.7693
1.7844
2.17502
2.01727
1.98659
1.97948
1.47645
1.45017
1.25611
1.38302
1.50367
1.33618
1.48866
0.777756
1.36391
1.2611
1.26669
1.00826
1.48337
1.47432
1.6904
1.17366
1.08996
1.23327
1.22486
0.648283
0.888225
-0.667848
-2.59547
-0.91491
2.4789
0.0184419
-2.09749
-3.14663
0.629618
0.586678
0.650799
0.706163
0.595318
0.621844
0.720869
0.844363
0.774865
0.928798
0.851849
0.906707
1.05848
0.95932
1.37091
1.44156
1.32588
1.29427
1.37382
1.43785
1.33448
1.34816
1.42254
1.53769
1.40627
1.31004
1.39263
1.2766
1.57341
1.6603
1.52756
1.50301
1.62772
1.49878
1.64395
1.6733
1.52209
1.57476
1.56897
1.4059
1.67966
1.57039
1.60916
1.49371
2.63448
2.05599
1.3773
2.84963
3.55979
2.79684
2.25177
895.047
798.204
693.37
1085.94
710.593
799.215
1363.61
711.132
1273.61
1251.06
1213.73
1175.78
1102.79
909.957
1000.64
695.288
270.244
146.047
350.343
322.607
401.227
266.035
301.272
302.426
285.275
1160.48
1203.22
1188.96
535.125
618.932
253.714
667.133
646.11
405.441
594.726
2.73546
3.33405
2.52098
2.72525
2.34632
2.51567
2.31677
320.144
109.015
0.346209
110.116
7.85641
1.18566
0.467308
0.777479
0.718819
2.87661
3.11656
3.05786
3.24836
2.74932
2.98691
2.86446
-169.137
-168.565
-169.287
-167.746
-168.479
-168.878
-168.407
-166.934
-167.274
-167.726
-158.279
-165.085
-170.861
-168.601
-167.702
-167.817
-154.13
-134.798
-102.064
-147.293
-119.35
-13.5065
117.336
24.9051
-102.17
375.442
585.653
368.884
468.165
565.92
420.316
621.212
1240.44
997.831
1084.38
1071.39
886.298
424.119
823.865
1005.39
1450.8
-165.582
-166.788
-158.215
-160.801
-95.3425
-170.055
-150.5
-170.609
-169.842
-166.699
-165.752
-165.414
-169.227
-169.105
3.67286
5.83968
6.57939
4.84966
4.92464
3.86557
5.68051
4.66108
3.99073
3.9219
4.34783
4.70656
4.47722
4.46158
4.24101
3.99143
3.79976
4.18852
3.90711
4.21265
4.42321
4.01775
4.24241
3.9722
3.8452
20.9064
17.8799
28.2014
273.065
23.2212
13.2628
105.496
1517.62
1516.48
1527.25
1408.6
1452.71
1452.25
1524.82
0.987253
0.948019
0.874414
1.04906
0.987678
0.917084
0.845126
0.964499
0.700563
0.728572
0.756899
0.97855
0.835573
0.644853
1.8767
1.55446
1.32817
1.73172
1.64896
1.45072
1.25335
2.46557
2.60744
3.18479
2.62489
2.8507
3.86068
3.35212
3.70159
3.06687
4.80372
3.88515
4.59738
2.36577
3.58061
3.87897
4.52644
170.008
170.285
394.028
349.301
181.523
166.342
171.7
166.252
140.759
419.755
724.216
432.435
577.121
732.402
530.176
817.884
811.119
548.276
515.616
824.496
779.756
774.329
671.972
682.703
767.659
668.003
774.16
796.555
620.533
560.213
816.247
771.88
765.543
512.721
1.78651
-6.72381
4.58683
19.6398
-2.62198
15.2464
80.8913
35.9661
7.6834
31.3644
282.98
101.886
67.4207
21.0533
-11.467
-1.36136
4.75642
9.88098
0.20232
55.4646
6.06938
-4.3989
2.00437
-3.35542
-1.22863
28.5635
10.9355
23.9562
16.9054
-4.72534
-4.12401
3.80841
0.303669
-0.340644
26.82
2.87104
-4.83615
-0.202902
7.57848
1.10209
-2.45122
-1.26068
-0.945158
-0.895165
-0.667392
-1.12034
-1.69369
-0.832519
-1.49017
-1.13896
-0.728421
0.12077
0.200091
0.0470633
-0.0904789
-0.0642426
0.106475
-0.0370634
0.13782
-0.0495116
-0.0866418
0.148278
0.125865
0.00366654
0.0410715
0.747848
0.741011
0.498622
0.757394
0.549997
0.33891
0.615573
1.6163
1.76657
1.71252
1.45432
1.44935
1.79393
1.88661
1.7776
1.80962
1.66636
1.85462
1.76445
2.1211
2.2379
2.26384
2.23528
2.35201
2.28525
2.1736
3.40007
3.85939
5.29386
3.26757
4.74036
3.66874
2.90108
-0.756866
-0.631184
-0.706201
-0.607652
-0.576965
-0.677181
-0.644758
0.352333
-0.124144
-0.0935239
0.616896
0.574281
0.447672
0.399641
-0.0307806
0.075379
1.18558
1.60563
1.2876
1.59535
1.23717
1.43469
1.07645
2.41987
2.44877
2.39984
2.40122
2.49017
2.51406
2.48279
2.54565
2.64733
2.54809
2.62446
2.58751
2.51312
2.52258
104.123
60.3411
8.77735
7.71849
5.97209
11.133
19.4987
1100.93
1109.92
1038.21
1063.39
1071.43
1049.81
1015.38
825.605
896.75
1017.98
867.056
1042.34
921.758
959.246
839.848
1003.37
1024.63
810.376
901.748
888.042
743.264
837.504
897.128
1008.52
1150.9
516.744
270.931
600.847
329.921
665.694
664.366
484.417
535.014
401.857
642.771
539.069
399.69
487.273
395.451
557.226
609.224
257.353
378.27
287.221
305.5
342.656
162.621
418.226
343.355
393.538
291.259
282.048
-29.1717
-143.451
-25.9562
-57.1661
-122.375
-59.5567
-90.0106
287.73
299.718
258.762
65.0268
245.055
589.405
609.637
629.74
-166
-157.838
-163.877
-164.522
-160.251
-160.013
-164.556
280.385
-37.4869
41.6907
-155.261
-73.4709
735.884
435.35
495.3
771.993
-32.2807
344.657
892.644
570.367
518.744
924.933
-91.8266
-33.5266
-57.1643
26.5146
-93.9631
-2.43894
-131.358
418.351
249.262
212.718
217.634
293.057
75.8889
-84.1225
110.393
66.7561
609.724
399.373
338.672
-188.91
-245.577
-262.088
-144.322
-171.603
-108.134
4.84191
-174.875
-173.47
-144.158
79.3239
56.8942
-8.83314
2.45194
7.13695
-159.342
14.9239
29.2984
-32.3453
-101.081
-256.469
-197.854
140.093
-81.6949
-113.302
9.20484
-133.831
-149.328
21.2788
-66.1667
-126.917
-126.856
-66.7543
-161.657
-161.291
-163.023
-155.572
-164.574
-165.353
-163.959
-160.345
-160.002
-159.728
-158.612
-160.597
-158.774
-161.009
128.431
93.5282
52.0281
88.1054
50.8668
98.3281
138.821
-156.133
-154.773
-154.975
-160.169
-160.114
-155.626
-157.955
205.692
393.723
457.71
390.317
422.587
424.623
455.157
46.2937
120.119
574.106
57.3905
93.2118
78.1549
81.5933
297.482
56.1008
12.6062
23.2654
56.6011
114.165
528.276
76.2381
30.7324
16.835
12.5064
6.69809
18.9145
6.67057
5.15966
12.59
5.31496
6.02748
2.6024
2.54889
2.66412
2.35352
2.3094
2.41707
2.43197
2.73581
2.89306
2.77558
2.64274
2.8032
2.75771
2.60713
2.22322
2.13352
2.17481
2.27059
2.01937
0.829095
0.633413
1.0142
0.690653
0.256246
0.344528
0.600616
2.17943
3.08111
1.66349
3.4243
3.1705
2.12147
2.38271
5.81219
5.6808
5.63629
6.17749
8.21152
5.94107
5.94109
1201.21
1173.65
522.331
1206.32
1179.22
1171.8
625.305
184.324
30.822
145.121
750.096
452.895
311.414
166.763
308.588
720.62
58.5099
709.685
488.863
52.4391
364.471
479.27
486.175
709.886
371.661
4.40723
71.6522
509.171
371.043
84.4666
19.3679
359.033
508.688
453.544
433.202
630.897
614.543
203.797
3.11205
3.35421
2.98532
2.97919
2.39977
2.78727
3.58953
1.19792
1.92664
2.46572
3.98558
3.55626
2.87805
3.2988
0.507389
0.256187
-0.797381
0.424632
-0.246284
0.224961
-0.403232
7.15438
-3.01716
8.22636
-1.34703
-1.57938
-1.83815
-1.75478
-1.4749
-1.18769
-0.815327
0.449451
-0.647177
-0.247517
-1.25654
1.09483
-0.478826
-0.428856
-0.371635
1.19171
-0.132176
-0.294503
-0.286966
-0.0225404
-0.107278
-0.0132459
-0.0598028
-0.0704359
-0.0646264
-0.0324949
-0.0272401
-0.0573112
-0.0427374
-0.0458952
-0.0436235
-0.0633259
-0.0398622
-0.296733
-0.204134
-0.200006
-0.138857
-0.159714
-0.299283
-0.233201
-0.16464
-0.193985
0.675533
0.617544
0.738528
0.363064
0.288553
0.442654
0.466537
1.29505
1.28256
1.18725
1.31189
1.17187
1.26028
1.13343
1.83779
1.76554
1.98407
1.84741
2.07092
2.01946
2.56732
2.68841
1.81318
1.19036
1.52226
0.83332
0.748259
2.60434
1.68152
1.77859
1.51878
1.59339
1.90402
2.39083
1.42927
-0.160797
-0.432371
-0.186109
-0.111356
-0.360398
-0.10647
-0.132912
-0.205199
-0.0993348
1.32597
1.16584
1.16612
1.43125
1.55085
1.47439
1.37812
1.69808
1.48045
1.55282
1.52918
1.69284
1.75393
1.65602
2.08044
2.19223
2.16008
2.07854
2.21648
2.09541
2.30407
2.25809
2.08841
2.63689
2.55461
2.60185
2.50791
2.52341
2.57344
2.60437
1256.42
1220.99
1236.83
1218.96
1135.52
1207.24
1113.53
1226.49
1226.49
1286.62
1201.68
1260.82
1260.88
1278.64
1240.23
1247
1292.63
1168.98
1273.91
1177.49
1273.99
1209.11
1266.33
1114.8
1111.85
1120.04
1080.72
1139.08
1046.88
1155.39
1169.3
1187.38
1175.46
716.572
853.663
751.212
483.12
378.04
321.289
-168.732
-168.752
-168.771
-168.921
-169.483
-168.567
-168.474
-11.2856
-111.721
-71.0761
-127.311
-129.871
-154.322
-153.882
-152.603
-160.679
-154.788
11.0286
-247.514
-123.841
-278.074
-177.189
-346.134
-152.168
-82.4722
-207.538
-94.9162
-10.0031
-41.9991
-85.7911
248.109
287.977
273.24
415.771
348.477
363.678
363.102
412.103
545.324
325.808
-32.229
156.584
401.561
-20.3005
64.6438
37.3175
-83.7771
6.64171
-7.85469
-90.9676
204.36
122.906
293.023
367.512
408.783
192.254
191.154
41.3279
49.2018
49.8723
102.773
84.5858
42.7756
72.9513
39.9591
17.5234
28.425
18.6979
34.6352
31.1583
45.2759
503.359
17.7174
553.823
547.775
567.553
195.739
323.085
15.8651
306.687
879.28
796.498
829.569
301.192
481.682
14.2753
10.3049
11.1021
10.8831
11.7434
14.6464
10.3859
7.34116
7.34453
9.78455
8.61793
7.89757
8.61534
10.244
6.64879
10.4276
6.62326
6.69575
6.29522
6.37207
7.29091
1.82159
2.10902
2.08688
1.35332
1.10701
1.57258
1.64183
-0.0799678
-1.14295
-0.6266
0.511327
0.789567
-0.298196
-0.121993
1.40717
2.12001
2.30287
3.89811
2.86509
2.71614
2.06748
4.68142
5.28036
4.85093
7.05466
5.65042
4.49069
5.50542
6.83667
6.63348
7.49345
7.24845
6.26063
6.84899
6.84841
6.4608
8.51846
7.65119
6.70614
7.63902
7.21752
6.99164
7.37892
7.06219
606.739
583.996
887.022
596.575
601.048
576.41
714.412
307.521
110.707
575.154
1058.62
824.538
879.352
1058.66
956.997
1072.62
822.384
1099.61
771.811
821.717
1107.28
1135.72
1140.13
1133.58
1122.98
1048.61
1119.57
1118.07
768.042
1057.93
750.816
1158.96
1132.97
703.21
1159.12
172.426
1182.66
3.83694
4.06447
4.53502
3.94502
3.64418
4.04646
4.211
2.87428
3.81234
3.04858
2.5718
2.92873
3.15939
2.58964
2.96635
3.6394
2.9775
3.0318
4.18858
2.31203
2.42307
2.49894
2.23864
1.88592
2.10824
2.32347
1.1737
1.11676
1.50729
1.14046
1.18073
1.4721
1.15475
-1.02499
-1.31581
-1.55701
-0.61319
-0.578378
-0.802827
-0.749786
-1.00983
-1.34976
-1.08812
-0.973255
-1.26127
-0.143826
-0.468023
-0.209813
-0.240208
-0.152476
-0.169421
-0.0264404
-0.722117
-0.575905
-0.474976
-0.573476
-0.347397
-0.337106
-0.463514
-0.0641743
-0.0482919
-0.179661
-0.0482515
-0.0230225
-0.0617875
-0.0925576
-0.0548608
-0.0761067
-0.130952
-0.0330469
-0.0141463
-0.0613645
-0.00174046
0.0337008
0.0212487
0.0261367
0.0385486
0.0500103
0.00856877
0.0184131
-0.00065288
0.011557
0.0262349
0.0392307
0.0447218
0.0536513
-0.0124448
0.0217224
0.00985511
0.0467885
0.0130542
0.0188639
0.0855787
0.0807154
0.0895336
0.0758772
0.0824803
0.152752
0.111912
0.172208
0.11008
0.100237
0.125793
0.0560662
0.110522
0.104164
0.0519023
0.0964084
0.122569
0.0848939
0.263557
0.214026
0.285706
0.248453
0.321791
0.222966
0.28049
1.11755
1.07125
0.997039
1.16453
1.35888
1.19375
1.07632
1.26403
0.990619
0.987806
0.996802
0.929789
1.12048
0.98666
1.38045
1.2932
1.44962
1.26097
1.28672
1.28762
1.31768
0.708134
0.809966
0.866327
1.05578
1.08423
0.927384
1.02557
0.907174
0.88298
0.371928
0.13285
0.369163
0.577715
0.436865
0.353555
0.580115
0.41145
0.866995
0.495676
1.4288
1.29718
0.967399
0.867016
1.06442
1.418
1.35133
1.47501
1.51885
1.80588
1.57055
1.71888
1.54816
1.74948
1.73247
1.54192
1.81728
1.95446
1.74393
1.90261
1.78859
1.64588
1.72834
1.76145
1.55583
1.96442
1.83845
1.85048
1.71838
2.77285
2.75914
2.78799
2.81983
2.76297
2.78288
2.82346
2.88331
2.89948
2.89627
2.88555
2.92923
2.949
2.91237
2.84222
2.84249
2.85172
2.86675
2.8014
2.85383
2.88566
7.56897
8.66798
10.0975
25.8593
9.82652
8.82219
9.9044
1264.34
857.558
999.689
1056.5
1276.19
921.215
342.434
1191.57
1020.41
1113.54
1230.66
1056.08
1050.97
1081.55
996.31
1108.03
1151.52
1090.53
1158.39
990.86
983.836
1203.75
1028.28
1026.67
1067.18
1242.01
1098.32
1282.17
1128.98
1217.13
1170.02
1255.98
1238.62
1210.91
1248.92
1143.66
1111.04
1260.37
1256.37
1218.31
-153.948
-159.266
-157.972
-160.305
-159.548
-154.873
-158.851
399.183
423.738
382.211
196.69
262.903
474.186
361.67
216.392
368.819
317.321
337.728
463.248
449.105
351.932
284.636
320.154
325.738
414.046
410.967
307.072
41.8978
38.1113
46.2444
39.2644
45.4157
42.8753
39.911
21.0697
37.9956
19.7228
38.5201
16.2144
22.0793
15.1673
43.6985
27.8888
28.339
47.8118
39.1158
32.6898
36.1463
16.2125
7.3783
23.5507
26.4343
23.8655
36.1799
25.7843
37.751
19.6088
8.59157
9.48485
18.4026
10.0691
15.5457
55.8621
36.7403
8.97696
46.5605
51.9139
10.2181
21.0599
56.7181
51.3701
48.0141
34.5128
18.1788
24.3759
27.2035
18.8028
18.7194
19.8023
28.2607
22.0816
20.0707
22.6586
15.5788
11.5314
13.2103
12.0219
11.5205
11.5449
3.96566
2.93327
3.46147
3.18015
3.66113
3.25282
3.44975
3.04355
2.33025
3.00719
3.04901
3.05403
5.85528
3.33839
978.699
704.591
1030.28
715.168
1034.14
1308.33
1074.13
632.6
912.402
550.963
596.534
544.414
551.523
540.452
1233.86
1585.22
1046.32
1505.49
1529.73
952.451
966.412
950.898
583.548
719.143
1574.98
1563.21
1517.07
367.915
737.31
759.185
52.5209
687.201
41.4429
228.761
793.765
877.09
1058.29
7.20435
6.26088
7.18701
7.24652
8.16299
4.15108
6.09801
4.75789
4.31499
4.34123
5.27091
4.12615
4.13341
4.07435
4.43123
5.19276
5.53443
5.01217
4.94384
2.18281
1.18025
2.68926
1.90802
2.72998
4.28857
2.93387
2.54864
2.13661
2.35182
2.33424
2.59402
2.27494
2.55477
0.50463
0.292424
0.566807
0.619637
0.425264
0.767766
0.595107
0.454333
0.536407
0.617235
0.604964
0.53729
0.568476
0.67936
0.0532707
0.0846482
0.103662
0.0997594
0.0446025
0.109304
0.146682
0.0983027
0.133278
0.187771
0.0881259
0.0266724
0.125484
0.0555925
0.0600129
0.0109497
0.10726
0.109079
0.092641
0.0889275
0.0859688
0.120647
0.130714
0.198061
-0.309717
0.258918
0.13886
0.121488
0.287927
-0.658054
0.169843
-0.141394
-4.53529
-0.872412
-3.04533
-3.71763
-1.24721
-3.56323
-2.59787
363.183
1710.02
2753.52
2745.67
2738.57
2684.55
2766.9
5.07596
0.430516
7.34242
2.33564
2.32643
1.77528
8.54647
13.8722
61.2093
-2.61999
-0.289346
-0.0736502
499.906
1.33696
-0.362208
0.474539
0.00711915
0.10297
0.228611
0.660172
0.198085
1.25808
1.42255
1.37073
0.703287
1.2551
1.54396
2.25402
1.16723
1.22696
1.19733
1.21975
1.28503
1.22771
1.2492
1.23921
1.28375
1.25535
1.26704
1.24912
1.22152
1.25158
1.26389
1.25023
1.03718
1.07508
1.15294
1.10453
1.15848
1.15428
1.03901
1.12329
1.15735
1.24396
1.20128
1.25562
1.26631
1.33168
1.72639
1.67374
1.54563
1.63021
1.6935
1.5861
1.91504
2.26652
2.10012
2.1909
2.40509
2.33339
2.22306
2.30375
2.77046
2.81014
2.79719
2.9048
2.89341
2.86247
2.8834
689.17
734.684
710.689
937.622
728.62
938.428
943.874
271.404
1090.36
297.233
1443.83
686.422
7.02044
148.073
339.649
1163.41
741.155
1443.42
1445.6
1446.97
1366.17
1462.26
726.289
1267.2
1282.44
1237.87
1134.37
1159.08
1101.87
1121.12
1278.41
1251.36
1146.74
1081.87
1100.98
1105.37
1085.93
1038.48
1085.66
1092.09
341.179
210.365
73.279
18.3954
1109.35
819.261
5.24563
1095.91
1026.96
1028.89
981.339
988.875
986
1245.38
1251.13
1222.54
472.924
1096.43
1229.08
1212.19
214.374
251.886
172.076
402.979
161.581
404.135
346.557
37.2492
44.8856
49.3563
45.11
47.5352
50.797
48.5722
174.351
148.404
175.252
180.848
170.448
171.344
183.2
33.5829
19.4686
41.2537
11.0744
24.1906
22.1051
44.7146
1611.21
869.505
2034.17
1113.15
1196
1381.67
1706.07
117.375
-151.866
91.5969
5.80742
655.044
303.328
9.21728
7.15058
8.81916
7.85394
7.59418
7.77688
20.5909
23.3393
5.02501
75.6493
7.82723
5.42658
30.3137
19.1646
173.683
139.716
178.599
139.489
140.524
328.563
331.894
1455.35
139.563
991.447
1395.97
1420.74
1274.49
1400.55
1530.94
1511.45
1520.33
1474.71
1379.59
1472.42
1501.12
1489.37
1543.4
1106.13
37.5049
20.5654
4.04061
43.6081
128.423
17.18
12.081
4.93841
3.35876
4.77435
4.84272
4.24186
3.83829
4.28595
4.45646
6.805
5.32298
5.60492
5.471
5.72623
4.49006
6.1733
6.13258
6.52225
4.96695
6.10949
5.63221
6.59049
2.4651
2.45652
2.7741
3.58155
2.76293
3.03933
3.00055
2.48557
2.47781
2.68575
2.29288
2.26836
2.4945
2.74483
1.34075
1.90128
1.63229
2.8686
2.44604
1.47967
1.4664
1.16894
0.742736
2.01138
1.63955
1.54799
1853.76
1746.06
2481.42
2066.11
1990.88
548.654
2368.62
-2.36793
-2.55799
-1.30189
-1.87079
-1.54188
-2.98891
-2.57937
0.40244
0.449342
1.25986
0.78201
1.27365
1.46891
1.29286
0.0113915
-0.391334
-0.0918742
0.174515
0.0929204
0.209857
0.100773
0.18984
0.11293
0.254226
0.131185
0.0134784
0.167271
0.194122
0.209876
-0.00931718
0.25534
0.167463
0.101356
0.0640468
0.023918
0.0949253
0.120704
0.169296
0.213441
0.203094
0.847156
0.916283
0.741523
0.764345
0.837294
0.702093
0.565641
1.90681
1.88861
1.77291
2.10214
1.94971
1.8786
1.99011
2.45585
2.28075
2.41493
2.65756
2.54136
2.43001
2.53315
2.82057
2.68133
2.75631
2.90643
2.86253
2.70155
2.77821
2.89969
2.96164
3.03936
3.15697
3.15837
3.1073
3.09267
3.00783
2.9649
3.48606
3.40274
3.4551
3.49386
3.43113
3.41686
3.45606
334.742
324.922
675.571
439.051
738.416
2.04097
732.967
226.337
654.024
109.48
591.081
590.182
598.377
574.971
738.558
571.766
742.554
696.651
676.022
636.747
616.632
947.019
701.796
935.826
747.632
907.915
271.115
421.938
430.323
933.954
897.291
930.925
942.525
637.442
1456.55
1411.22
3.08713
3.15481
3.30429
3.71097
4.74825
3.17025
3.5752
2.94139
2.85202
2.94987
2.88604
2.89523
2.82603
2.88541
73.4853
16.286
12.5028
21.8815
32.1931
285.735
512.275
396.208
625.652
518.187
628.068
586.758
21.8387
48.6011
19.4718
16.6456
16.8576
30.5343
18.4175
73.9802
276.889
72.63
79.7958
70.2032
14.8797
14.3954
13.9264
15.1233
16.8322
13.4236
13.6051
61.4342
30.6907
27.3315
15.009
17.3574
11.8827
14.6846
18.6525
49.4821
55.666
33.4007
51.7492
59.2037
63.5348
1036.3
248.174
798.158
2114.46
934.547
2090.81
1905.71
2198.66
2287.1
1648.71
2495.78
1207.15
2969.04
2323.19
2055.36
2598.55
270.149
652.191
592.521
-313.16
244.069
-265.409
179.828
287.56
2033.65
1303.83
1364.98
1377.87
1382.4
1416.19
1413.59
1396.54
1403.83
1399.19
1398.78
1414.33
129.624
134.273
129.345
165.45
127.656
263.021
144.661
16.1653
16.2537
16.2968
16.4055
16.0316
16.1265
16.0151
14.3857
13.976
14.4568
15.6899
16.3486
15.2728
15.218
26.2736
21.9769
16.8047
21.13
20.3012
21.7633
26.1487
14.5801
11.1955
16.5621
16.3216
15.1089
20.1037
13.4803
15.2848
23.0121
26.4377
11.1832
15.6395
18.6348
9.65336
3.67126
1.35858
3.5232
2.95246
1.12828
5.30009
3.02888
1.74726
1.68108
1.86539
1.08444
1.52437
1.04069
0.792632
1.3464
1.58451
1.49005
1.34082
1.60014
1.54469
1.52708
1.45152
1.70818
1.64099
1.33778
1.6084
1.46346
1.6125
1.18942
1.38963
0.606294
0.809426
0.826617
0.821992
0.965363
0.920911
0.777039
0.25511
0.297688
0.22601
0.171029
0.0830111
0.205527
0.0962682
0.200947
0.184499
0.263329
0.11247
0.0280555
0.141408
0.170557
0.246614
0.0362216
0.265072
0.193139
0.190137
0.0803823
0.0162469
0.0820877
0.191086
0.142987
0.210346
0.226865
0.22203
1.20937
0.974939
0.593383
1.49334
2.03977
1.42943
1.98331
1.21971
3.73661
3.72647
3.73165
3.7211
3.75889
3.79839
3.81159
3.55455
3.51414
3.73217
3.59093
3.61099
3.61313
3.79392
849.786
858.153
855.309
845.099
852.627
734.424
432.338
837.238
860.15
853.202
851.915
846.892
843.734
818.014
722.617
856.297
388.386
775.978
755.522
781.196
732.125
144.885
518.959
732.468
581.335
681.83
2.86444
2.91722
2.86945
2.85458
2.87034
2.85321
2.83331
3.42506
3.38881
3.15396
4.15131
4.10475
3.84801
3.887
2.25054
2.93943
2.54063
3.3626
3.88386
3.49615
3.07592
2.45469
2.57309
2.69335
2.44174
2.53174
2.97785
3.44444
1.94413
2.34069
2.24338
2.60268
2.40388
2.57453
2.64382
3.91027
3.95844
3.02109
4.55729
5.73827
6.90686
4.88166
8.7752
3.35826
14.4499
1.76662
5.96957
19.7614
5.7473
5.84795
8.04521
5.22064
5.93946
4.69241
9.51681
8.34627
8.74157
10.1572
10.3329
10.2156
15.1784
12.7645
12.7203
21.3753
31.3392
32.3053
29.9827
19.5858
11.6119
12.9354
12.228
15.1416
12.0944
12.2585
12.314
-196.381
148.195
109.935
155.164
-89.5362
13.9491
21.6404
88.6136
255.3
141.136
331.392
-39.8923
-54.5335
136.438
23.0851
-131.307
172.482
129.135
56.9874
82.2568
122.371
-75.8496
50.9265
-166.193
182.262
78.411
1070.71
1093.7
1014.13
1152.78
1097.46
1165.57
1117.1
1436.65
1493.81
1453.63
1438.77
1447.2
1444.92
1434.27
1374.81
1373.47
1382.4
1435.22
1400.3
1414.55
1403.91
1449.79
1456.93
1549.91
1393.82
1407.19
1396
1331.21
1258.34
1361.3
1374.01
1386.76
1349.99
1374.57
524.514
1239.05
697.163
1287.14
1122.73
1259.01
753.356
1268.1
1180.92
0.679534
0.833023
0.771199
0.531637
0.684186
0.717784
0.733918
0.871468
0.809392
0.803579
0.714021
0.775007
0.746124
0.94941
1.19915
1.32453
1.25782
1.27961
1.25243
1.19152
1.25482
0.203742
0.291407
0.20703
0.674251
0.908561
0.844402
0.638251
0.859442
0.878364
0.791386
0.235766
0.0406578
0.219097
0.190127
0.351501
0.204935
0.0716068
0.160577
0.283018
0.207203
0.0188957
0.170573
-0.0131611
0.0731641
0.00926723
-0.286597
-0.113617
-0.0161072
-0.161072
0.143673
-0.0545572
0.0633893
-1.05749
-0.601101
-0.55617
-0.546623
-0.478517
-0.702377
-0.247559
-0.897787
-0.749113
-0.315718
-0.655037
-0.726297
-0.48958
3.67581
3.30156
4.02343
4.11268
4.07429
3.84112
3.69642
859.734
751.312
866.242
721.343
424.238
821.973
858.851
832.387
855.307
21.6537
217.283
850.219
405.08
236.377
849.019
849.349
814.967
3.11372
3.20659
3.1849
3.08688
3.0579
3.15616
3.159
3.21176
3.29985
3.24832
3.2968
3.24816
3.3493
3.26113
3.07168
3.09186
3.08359
3.17038
3.15435
3.19525
3.30972
2.99663
3.06143
2.9975
2.9354
3.00831
3.0469
2.97505
2.94142
2.94324
2.8858
2.87569
2.88524
2.92784
2.93732
2.58453
2.64249
2.53343
2.52377
2.57653
2.50743
2.44534
2.57962
2.58814
2.53634
2.51611
2.59807
2.57086
2.50337
1.93701
1.8254
2.02
2.05494
2.18122
2.03854
1.92923
2.46693
2.38051
2.44371
2.44002
2.37682
2.35559
2.46523
2.33444
2.26924
2.16588
2.02589
1.98521
2.13503
2.44482
2.1155
2.36054
2.25428
2.0956
2.2929
2.06135
2.44197
2.40223
2.7928
2.20185
2.42938
2.06878
2.3621
2.35197
2.1552
2.04155
2.82609
3.00946
2.69699
2.96913
2.77919
3.22532
2.83083
3.2825
3.46647
3.427
3.68653
3.79435
3.43418
3.44132
3.06254
2.87159
3.43523
3.43831
3.22781
3.42965
3.41773
9.49687
4.33863
11.4322
4.22071
4.36547
5.13965
5.30487
16.2005
24.0616
5.74359
6.28401
5.09032
6.33484
4.21614
42.506
150.757
475.204
202.676
353.08
475.861
277.76
197.395
107.401
-7.36341
254.177
120.981
282.796
125.875
77.513
252
137.969
0.321969
82.3654
29.7322
85.2355
-115.935
38.9885
-39.5594
197.256
87.1743
133.142
159.253
237.799
181.465
250
94.8119
27.9463
41.1709
-38.0179
15.2494
30.2303
-46.6929
-172.223
-10.8477
30.1478
11.273
33.5621
68.0604
-8.2698
3.99614
16.2133
4.62995
246.492
181.717
193.822
291.461
228.051
246.447
262.631
64.0789
55.6575
168.518
56.1602
64.125
225.561
92.2539
78.0914
114.95
53.7095
77.6719
49.2189
86.666
81.3594
55.0146
49.965
72.4637
64.7365
134.745
240.909
8.54222
125.959
80.0526
223.07
20.1576
-505.745
-496.503
-407.113
-423.536
-441.928
-391.828
-197.676
712.477
881.867
852.143
695.767
834.543
901.017
806.999
743.716
9.05517
850.574
935.226
1085.25
961.333
716.465
1359.89
1448.77
1469.29
1315.31
1393.71
1446.3
1356.33
1628.54
1656.33
1438.06
1484.08
1692.43
1603.09
1547.68
1635.45
1773.36
1506.38
1884.94
1540.53
1525.9
1498.66
1513.77
1534.83
1611.6
1551.89
1733.94
1516.39
1471.52
1540.61
1545.39
1571.48
1413.48
1438.8
1495.07
1479.81
1502.6
1476.54
1460.28
15.2233
280.75
-196.896
-402.739
-146.226
-199.676
-457.562
-522.787
225.573
-150.029
-408.609
288.74
-508.235
-203.281
-194.96
-489.03
-181.662
220.428
43.2672
-258.687
-532.767
1481.07
1574.36
1477.61
864.375
1927.42
2424.3
925.643
1364.27
1452.96
1194.54
1423.08
172.474
960.944
622.951
751.534
941.959
1154.79
1028.03
1129.9
1154.76
-451.738
-328.255
-380.166
-437.24
-473.207
-501.586
-414.143
60.1277
-309.147
-264.882
120.875
139.139
-147.748
-112.15
202.083
229.933
350.674
-187.413
-385.675
-114.415
-18.5657
2.2669
4.72986
5.17343
6.21683
7.65318
6.25375
4.31255
12.3767
10.6213
11.865
11.7606
9.73351
8.96985
9.54912
3.61027
4.88724
3.55262
3.24567
1.8751
3.80947
5.03055
3.12687
4.4333
6.71424
6.60466
7.34208
7.04296
6.44048
7.03048
7.92112
1568.24
1533.68
1301.53
618.689
1188.98
1602.47
1511.42
1375.71
1051.33
791.231
773.522
1136.49
1479.02
1593.41
754.277
771.819
1408.09
1689.66
933.618
1583.1
317.067
12.1171
422.016
1.25409
0.709604
7.63581
34.4939
413.66
0.000986509
0.292896
0.956108
0.634769
0.321317
0.0393002
0.147939
0.112074
-0.229061
-0.000305612
0.103197
-0.0638158
-0.128994
0.0585227
-0.0162547
-0.24551
-0.420517
1.61305
1.21479
1.8906
1.35146
1.28658
1.35844
1.37244
1.45864
1.59543
1.56935
1.72044
1.64754
1.57744
1.65156
1.45921
1.49809
1.58338
1.52541
1.55773
1.68113
1.61686
1.84122
2.27069
1.98278
2.03979
1.88448
1.77308
2.03009
1.04822
2.14672
1.90847
0.774865
-0.0263495
-0.606263
-0.422181
-1.8853
-0.864942
-0.414417
-0.568013
-1.34479
-0.975437
-0.820647
-1.02797
-1.01564
-1.02866
-0.886927
-0.878719
-0.187965
-0.905044
-0.699045
-0.36564
-0.364645
-0.882109
-0.190697
-0.254433
-0.316375
-0.372052
-0.307355
-0.649252
-0.276375
-0.146885
-0.0564137
-0.0804992
-0.303948
-0.0341994
-0.354641
-0.278822
-0.4018
-0.112087
-0.253032
-1.1484
0.975195
0.791068
0.588201
0.734445
-0.131269
0.599083
1.00329
703.817
668.547
707.921
691.553
691.862
695.888
665.139
687.178
630.426
225.604
629.63
618.127
636.835
628.606
204.205
340.169
3.22804
3.59406
3.80678
3.92679
3.75958
3.16098
3.4335
3.76707
3.62034
533.077
591.368
614.154
3.50872
256.739
73.1626
533.47
3.13025
3.07643
3.22801
3.29899
3.30142
3.15312
3.1105
3.48797
3.49483
3.56279
3.58885
3.43082
3.63877
3.52661
2.8339
2.85957
2.72704
2.68695
2.60659
2.79469
2.74169
3.02932
3.05079
3.10565
3.08495
2.93676
2.89145
2.86674
2.81403
2.99443
3.00438
2.96024
2.93762
2.6371
2.74551
2.66177
2.5048
2.6163
2.70294
2.60962
2.63451
2.68793
2.59484
2.59452
2.55763
2.65618
2.61628
1.8082
1.89246
1.97067
1.70246
1.68333
2.28155
2.35082
2.28322
2.22692
2.30014
2.37757
2.29438
2.20776
2.1768
2.06349
2.28079
2.37057
2.2865
2.20856
1.40603
1.38131
1.41719
1.13461
1.35839
1.27037
1.34458
0.658467
0.939951
0.690399
0.580825
0.432947
0.423251
0.211732
0.715608
0.480235
1.57821
1.46768
1.31105
1.22444
1.08487
1.14336
1.32887
0.209271
-0.0226273
0.425962
0.118681
0.466902
1.10907
0.892946
1.20678
0.660543
0.65616
0.84664
0.843526
0.441433
0.817247
1.01911
0.729887
1.07083
1.57243
1.19063
3.38281
3.40254
3.21542
3.00608
2.88224
3.25517
3.27978
3.57948
3.59932
3.48867
3.51995
3.72969
3.56514
3.69533
4.40608
4.04658
4.17595
3.83864
3.90537
3.98028
4.12535
3.8179
3.99375
3.93369
4.20314
3.95797
4.14729
4.08101
4.27626
4.05874
4.55001
3.96572
3.82821
4.68865
4.55671
4.59996
4.51267
4.43443
4.63828
4.55095
8.23341
8.40261
8.47448
9.26389
7.80685
8.39986
9.75318
164.664
11.3998
67.6864
401.277
160.787
355.393
87.9015
198.076
169.698
247.906
56.7404
262.379
150.167
431.381
421.262
462.801
593.052
482.769
404.445
390.129
418.993
273.142
522.066
383.833
327.384
380.189
640.662
1061.23
837.502
1033.08
891.417
1398.69
822.639
1307.08
1404.64
1706.76
1559.39
1247.34
1507.7
1437.13
626.398
900.694
686.258
935.132
793.021
1943.86
1584.29
1520.32
930.23
278.245
573.866
853.908
588.447
213.679
668.801
-36.7506
35.1979
-36.4842
-59.1297
177.603
12.5569
-168.143
411.033
74.8797
111.195
98.1743
270.109
126.891
318.04
116.873
-2.21077
-703.606
-112.128
-306.485
207.077
104.446
226
273.885
234.602
480.793
332.683
495.375
459.751
610.82
502.963
501.276
652.089
636.622
622.634
819.236
660.415
287.872
411.149
453.923
570.121
220.903
331.718
444.527
527.002
346.622
417.967
462.707
481.504
465.119
388.27
408.222
533.904
385.634
414.144
344.269
409.83
458.396
429.481
437.966
317.41
290.462
233.44
292.927
327.882
347.761
297.084
60.7489
77.0123
82.4884
121.616
225.93
54.2736
63.4333
50.2629
61.0823
64.2728
35.0472
33.1511
36.0189
40.3137
43.686
35.441
37.0894
18.1061
21.7869
17.6504
35.5424
22.7227
19.3403
13.8331
21.7661
28.1386
17.7285
25.8776
42.1603
36.0543
18.7701
22.1447
22.1059
18.1899
29.5307
20.435
20.6034
21.9203
18.2059
21.9284
21.1971
20.6424
14.4056
35.7722
41.9253
21.4092
26.9612
38.5624
6.95577
11.6223
10.5434
10.5032
10.7813
11.667
11.0973
14.1407
14.0426
801.418
285.372
1076.86
1054.36
1038.87
1060.26
987.013
-0.593924
-0.658046
-0.636352
-0.475695
-0.518077
-0.542359
-0.496184
0.196718
-0.135765
0.0713564
-0.239382
-0.156972
0.0508467
-0.0317128
0.63365
0.921383
0.834272
1.20536
0.850479
0.660676
1.11571
1.55099
1.30788
1.71663
1.41048
1.49131
1.6092
1.31165
2.09912
2.1606
1.98006
1.93772
2.04063
2.13574
2.04736
2.30396
2.20813
2.34717
2.47529
2.51244
2.3634
2.42924
2.92312
2.97542
2.76443
3.20011