/*--------------------------------*- C++ -*----------------------------------*\
| =========                 |                                                 |
| \\      /  F ield         | OpenFOAM: The Open Source CFD Toolbox           |
|  \\    /   O peration     | Version:  v2012                                 |
|   \\  /    A nd           | Website:  www.openfoam.com                      |
|    \\/     M anipulation  |                                                 |
\*---------------------------------------------------------------------------*/
FoamFile
{
    version     2.0;
    format      ascii;
    class       surfaceScalarField;
    location    "0.4";
    object      phi;
}
// * * * * * * * * * * * * * * * * * * * * * * * * * * * * * * * * * * * * * //

dimensions      [0 3 -1 0 0 0 0];
oriented        oriented;


internalField   nonuniform List<scalar> 
13152
(
9.97774e-07
2.02953e-05
-1.65234e-06
-1.96407e-05
1.87192e-05
-1.70949e-05
-6.26551e-07
-3.46819e-06
4.24826e-05
-3.46511e-05
3.54118e-05
-2.41304e-06
2.12039e-05
-7.54958e-05
2.85201e-05
-2.4411e-05
6.04638e-05
-1.60971e-05
-2.95662e-05
-2.84486e-05
7.41119e-05
3.83267e-07
-1.6775e-05
2.94693e-07
-2.99231e-05
7.40157e-07
7.84008e-06
5.15581e-06
-2.97709e-05
7.80935e-06
3.25424e-07
-5.0849e-06
-1.55543e-05
-2.98522e-05
-8.65751e-06
-1.46429e-05
-5.13827e-06
2.84387e-05
-7.39259e-08
-8.66854e-06
8.49617e-08
-1.41619e-05
-5.54924e-07
5.66389e-06
-3.05746e-05
1.62421e-05
-2.93369e-05
2.98626e-05
2.93754e-05
-5.16443e-07
3.46177e-08
-1.52635e-05
-2.99182e-05
1.00652e-07
-7.49527e-05
3.2095e-07
1.60061e-05
3.02511e-05
-6.76339e-08
7.4696e-05
3.57869e-05
1.2665e-05
2.54e-05
-7.3852e-05
3.71452e-07
-7.2262e-07
3.61381e-05
1.24099e-05
2.66341e-07
-1.87437e-05
7.36363e-05
7.78581e-05
2.9136e-05
-7.41944e-07
-2.93813e-05
9.87237e-07
-1.64014e-05
-2.68635e-05
7.24009e-05
1.6964e-07
-1.7313e-05
-8.07676e-06
8.0091e-06
2.37298e-07
5.30519e-06
-3.0695e-05
-4.96123e-06
-1.38932e-05
-2.90373e-05
-1.37878e-05
1.31907e-07
2.91535e-05
2.48129e-07
8.23102e-05
7.28019e-07
-1.48777e-05
-6.81605e-05
-4.0272e-05
1.87328e-05
0.000103849
-1.92997e-05
-2.02442e-05
-6.59467e-05
-2.54538e-05
0.000110133
4.46701e-07
-8.12712e-05
7.95458e-06
-3.05358e-06
-2.42007e-05
4.48862e-06
-1.67783e-05
-1.99982e-05
-9.66993e-07
-2.26051e-05
-4.25527e-06
2.8654e-05
-7.14374e-06
-1.7255e-05
2.20345e-05
-9.69955e-06
-1.65902e-05
-3.61036e-05
-6.44159e-05
1.72319e-05
1.9772e-05
-4.67033e-05
1.94173e-05
-9.32901e-06
-7.13181e-05
5.46319e-05
-0.000115962
1.14318e-05
1.72901e-05
3.14107e-06
-3.18629e-05
-8.34331e-07
5.01682e-06
7.24931e-06
1.3762e-05
2.69447e-06
-3.41516e-05
-2.14692e-05
6.93828e-05
-3.66382e-05
5.18129e-06
1.5129e-05
-4.86261e-05
-1.3231e-06
-5.50329e-05
-6.92433e-05
-7.91942e-05
0.00020347
-9.39567e-06
-7.89433e-05
3.33061e-05
-7.2976e-05
-5.66309e-06
-1.36961e-05
-8.5257e-05
2.00097e-05
-7.68849e-05
-1.60056e-05
6.8613e-05
-0.000226846
-1.39352e-05
2.32429e-05
1.64802e-05
1.64158e-05
-5.6139e-05
7.0541e-06
3.40084e-05
-1.78195e-05
8.4151e-06
1.51193e-05
-3.27854e-05
1.39471e-05
5.28468e-05
2.66792e-05
-4.30486e-05
1.97588e-05
1.53356e-05
4.88254e-05
-1.95752e-05
-4.27429e-06
2.00592e-05
3.79029e-06
2.49259e-05
7.70314e-06
-5.22042e-05
3.23453e-05
-1.16937e-05
-2.72232e-05
-1.3404e-05
6.06864e-05
-3.03232e-05
6.89034e-06
3.99614e-05
-6.25815e-05
5.89028e-05
-8.54193e-06
-2.09398e-06
-8.80165e-06
1.94376e-05
1.37223e-06
-2.52377e-05
1.53236e-05
5.38182e-07
-1.25993e-06
1.06636e-05
1.10135e-05
-2.1139e-05
1.99687e-05
-1.0565e-05
2.88615e-05
-4.30857e-05
4.00285e-05
-1.37234e-05
-2.25068e-05
-8.90786e-06
4.51381e-05
2.60118e-06
-4.50475e-06
-1.18198e-05
-2.00115e-05
1.0579e-07
-1.29275e-05
2.10164e-05
-1.25937e-05
7.37198e-06
-3.21192e-05
2.27809e-05
-3.54204e-05
3.48895e-05
1.43888e-05
-1.91115e-07
-1.50569e-05
8.59173e-07
-2.76066e-05
-8.52245e-06
5.05178e-05
1.1733e-06
-2.8971e-05
-1.12966e-05
-5.14711e-05
5.42453e-05
-5.3267e-05
2.69136e-05
-5.70624e-05
6.76458e-06
-0.0001393
2.07986e-05
1.89744e-05
4.41651e-05
-8.39381e-05
-1.20342e-06
1.07388e-05
1.12632e-05
7.12041e-06
1.06506e-05
1.6027e-05
3.88769e-05
-1.34042e-05
3.65517e-05
8.50955e-06
-6.77319e-05
6.75109e-05
1.98172e-06
-1.7607e-06
0.000102689
6.06435e-05
9.57209e-05
1.24033e-05
0.000157797
6.10816e-06
2.18935e-05
3.26418e-05
3.33774e-05
6.84516e-05
-2.22624e-05
6.8043e-05
1.61277e-06
2.72958e-05
1.15219e-06
-2.27739e-05
-5.67408e-06
-2.6648e-05
-2.90012e-05
8.2945e-05
4.55426e-07
-2.59513e-05
-2.83292e-05
2.87924e-05
-7.7213e-09
2.50324e-05
-7.93129e-05
-2.20286e-06
1.99404e-06
5.56656e-08
-1.522e-05
-0.000260812
9.31517e-05
0.00018288
-0.000166807
6.07388e-05
9.08479e-05
0.000191569
0.000285519
6.11433e-05
4.10091e-06
-4.50539e-06
-2.67069e-05
0.000181002
0.000185448
1.02216e-05
0.00044426
1.93754e-05
-7.44254e-06
-2.08327e-05
8.89982e-06
-3.61565e-05
-1.83915e-05
7.39234e-05
-1.28997e-05
-3.06992e-05
4.34003e-05
-2.87949e-06
-6.13535e-05
1.53736e-05
3.69267e-05
-1.91026e-05
1.60847e-05
-3.48816e-05
1.56033e-05
3.78658e-05
-4.56744e-06
-4.89017e-05
1.2189e-05
-1.09325e-05
1.43468e-05
1.07765e-05
3.92784e-05
2.72672e-05
-5.39602e-06
-3.28037e-05
6.73211e-06
3.48819e-05
-2.72885e-05
4.47972e-05
-3.72519e-05
1.16554e-05
2.30858e-06
2.23736e-05
-3.63376e-05
-1.1035e-05
1.2695e-05
9.99547e-06
3.20304e-05
-4.07568e-05
2.38243e-06
-3.54177e-05
4.57303e-05
-2.08233e-05
3.32012e-05
-2.5983e-05
3.71902e-05
-3.90271e-05
-4.21476e-05
-1.39182e-05
1.85818e-05
3.7484e-05
1.58464e-05
-9.35366e-06
-4.86404e-05
-8.90462e-06
1.08328e-05
-1.06738e-05
1.32053e-06
2.7935e-05
1.66272e-06
-2.16902e-05
1.99989e-05
-1.09065e-05
-1.7997e-05
9.43051e-06
2.14012e-05
7.53386e-06
-1.67777e-05
1.82848e-05
-1.86333e-05
-9.51757e-06
1.76406e-05
1.05103e-05
4.12636e-06
3.24303e-05
-5.519e-05
2.17792e-05
-2.71704e-05
-2.7131e-07
-3.07285e-05
-2.27294e-05
3.29684e-05
-2.06865e-05
3.03874e-05
-2.96358e-05
-2.86264e-05
-6.41296e-06
1.32311e-05
2.18082e-05
4.04906e-06
4.28051e-06
-3.6956e-05
2.13834e-06
-4.50224e-06
-1.52952e-05
5.6762e-06
2.28502e-05
5.53689e-06
-1.65516e-05
-8.49527e-06
-1.43925e-06
1.20729e-05
-1.23018e-05
-6.95759e-07
1.9863e-05
-2.66279e-05
2.40999e-05
-3.563e-05
-1.09361e-05
2.666e-05
1.99061e-05
2.16074e-05
-2.09133e-06
-5.51461e-05
-1.10896e-05
2.17609e-05
-1.10574e-05
5.9281e-06
3.17892e-05
7.4723e-06
-2.0621e-05
5.02439e-05
-2.93265e-05
-3.2007e-05
5.88484e-07
7.14163e-05
-9.58191e-06
1.60985e-05
-3.14361e-05
1.64426e-06
-1.39084e-05
1.95799e-05
-7.31575e-06
-1.93564e-05
1.25365e-06
1.9747e-05
2.10903e-05
-5.43551e-05
1.2049e-05
-2.12072e-05
1.04119e-05
-2.33501e-05
-1.04997e-05
1.03827e-05
-1.42699e-05
8.51918e-06
-4.14742e-05
-9.12606e-06
4.20811e-05
-5.60373e-05
4.53929e-05
1.91636e-05
4.16998e-05
-0.000139211
5.77395e-05
-4.19175e-05
-2.4948e-05
-4.01722e-05
0.000139993
-3.69188e-06
8.91264e-06
-3.90949e-06
-5.7669e-05
-1.33302e-05
5.61865e-05
1.48127e-05
8.59958e-05
3.06804e-05
-0.000174345
0.000115859
-4.31932e-05
-5.23472e-05
-3.06775e-05
-4.22986e-05
4.76415e-06
9.09801e-05
-0.000102598
0.000176161
0.000155366
0.000140392
0.000149762
-0.00044552
-5.29674e-06
0.000138102
2.256e-05
0.000138682
-3.58708e-06
-0.000167478
-0.000117682
0.000423843
-0.000147665
-2.34009e-05
2.64465e-05
-2.43491e-05
4.68663e-05
-1.36883e-05
-3.3756e-07
1.2878e-05
1.14781e-06
1.89975e-05
7.71686e-06
-4.04026e-05
1.9995e-05
-1.33507e-06
-1.47935e-05
-8.19631e-06
3.58679e-05
-2.12721e-05
7.62644e-06
2.30552e-05
-3.66104e-05
3.48539e-05
-1.65024e-05
-4.20141e-06
1.02996e-05
1.04042e-05
1.12592e-05
8.10625e-06
1.02908e-05
-3.23297e-06
4.02233e-06
8.85502e-06
-4.77109e-06
4.05681e-06
1.02651e-05
-1.24989e-05
2.68466e-05
-6.87688e-06
9.71371e-06
4.10052e-06
-1.02446e-05
-3.5696e-06
-6.80944e-06
-8.65553e-06
2.51787e-05
-1.81975e-05
1.54886e-05
1.32542e-05
8.88938e-06
-3.23882e-05
2.00966e-05
-1.69106e-05
2.83516e-05
-2.62187e-05
-8.62492e-06
1.99367e-06
-1.96498e-05
2.62811e-05
1.86111e-05
-7.46111e-06
-1.97749e-05
-2.2976e-05
4.35808e-05
-3.94603e-06
1.73687e-05
-2.08838e-05
2.89924e-05
-5.27133e-05
1.79849e-05
-2.35922e-05
2.73274e-05
1.96424e-05
9.45472e-06
-2.00602e-05
-9.03694e-06
-1.53082e-05
-2.02393e-05
-3.39148e-05
2.80613e-05
1.29113e-05
1.92715e-05
-5.2243e-05
3.0818e-05
-2.69436e-05
4.08377e-06
1.20086e-05
3.17911e-06
1.172e-05
2.31818e-05
-4.43201e-06
-4.08737e-06
-2.63382e-05
1.46868e-05
1.1661e-05
-1.08515e-05
-1.54963e-05
-8.45809e-06
-1.76119e-05
-3.04634e-05
3.36663e-05
-1.43375e-05
3.64544e-05
1.90537e-05
-4.88875e-05
-2.88107e-05
4.76533e-05
-4.02205e-05
9.18366e-05
-4.6832e-05
-8.98775e-05
4.4873e-05
-0.000187303
-1.44218e-06
0.000280582
-9.47519e-05
-0.000139383
0.000181066
-4.4199e-06
-0.000266524
8.80154e-05
0.000137924
-0.000186517
0.00027309
-0.000285688
-1.57464e-05
4.4772e-06
1.38012e-05
-2.53196e-06
2.26844e-05
2.24717e-06
-4.0678e-05
9.09667e-06
1.80649e-05
-9.42065e-06
2.0246e-05
2.97582e-06
2.19034e-05
-2.90769e-05
1.50566e-05
-5.42536e-05
4.82936e-05
-3.21958e-05
6.53174e-05
1.18746e-05
-4.42247e-05
-7.52451e-08
-6.65169e-06
2.70126e-08
9.60769e-06
-2.98301e-06
2.10076e-05
9.3529e-07
-2.85946e-05
-1.60193e-06
2.26366e-05
6.87113e-06
2.64738e-05
-3.24097e-05
3.8012e-05
-2.15332e-05
4.46212e-05
-1.97493e-05
0.00010527
-5.93236e-05
-2.16513e-05
-3.84395e-05
0.000119414
2.18857e-07
-6.40005e-05
4.45797e-06
-2.21517e-05
7.19261e-07
2.17716e-05
1.10649e-05
-5.49882e-05
2.07363e-05
1.75457e-06
0.000100541
-4.15583e-05
-0.000122983
-5.88867e-05
0.000120988
8.19899e-06
-3.86924e-05
-2.99514e-05
1.62928e-05
1.60749e-05
-6.09624e-05
-8.2234e-06
-2.45581e-05
1.18849e-06
5.05437e-05
-4.50271e-05
-6.7051e-06
2.5499e-05
-2.53375e-05
1.02694e-06
-4.61887e-05
0.000122231
1.0679e-05
6.35281e-06
-4.23693e-05
1.21351e-05
-4.29127e-07
-8.40179e-06
-2.56519e-05
-4.7076e-05
-2.9356e-05
-6.84297e-06
9.85088e-06
2.63481e-05
1.64379e-05
7.84459e-06
-5.36386e-05
1.15217e-05
-1.92676e-06
6.61912e-06
1.23911e-05
-1.11656e-05
5.42951e-06
1.10405e-05
-7.56522e-06
2.45164e-05
2.89908e-06
5.83559e-05
7.26946e-07
-5.68404e-05
-2.2424e-06
-4.22175e-05
-1.37359e-05
0.000114309
-4.52325e-05
3.742e-06
1.72252e-05
-1.82321e-05
-5.58335e-05
-1.69539e-05
2.04433e-05
7.06749e-05
1.43634e-05
-0.000130271
5.80918e-05
1.63253e-05
-1.8932e-05
6.00698e-05
-2.28006e-05
-2.11827e-05
-1.28492e-05
1.13826e-05
2.26493e-05
2.39587e-05
1.59129e-05
-6.10543e-05
4.53887e-05
-3.42793e-05
2.23961e-05
-3.40438e-05
2.30303e-05
-2.06201e-05
6.56654e-05
4.12263e-05
-5.93572e-05
6.59949e-05
-4.74128e-06
-9.98081e-06
1.94977e-05
-4.77564e-06
-3.22177e-06
1.96821e-06
-3.4877e-06
1.75563e-05
-3.07589e-05
-1.06743e-05
-5.55853e-05
6.82279e-05
-3.24846e-05
1.83226e-05
-2.22052e-05
7.27694e-06
-5.82926e-05
3.09736e-05
5.63204e-05
7.4989e-06
-9.47928e-05
-8.47911e-06
9.00933e-06
3.04434e-05
4.30658e-05
5.12875e-05
-1.86471e-05
-2.36311e-05
-7.88455e-06
8.96155e-05
2.5607e-05
-4.77556e-05
3.50148e-06
-3.03006e-05
4.80233e-05
-0.00010496
0.000117725
-0.000145216
-3.60732e-05
3.18632e-06
8.96732e-05
-5.67863e-05
4.49989e-05
4.01481e-05
-0.00012122
4.55589e-05
2.62623e-06
-1.39301e-05
1.69642e-05
8.66392e-05
2.20474e-05
4.17055e-06
-4.89876e-05
-9.66712e-06
0.000104214
-6.03482e-05
1.39868e-05
1.45645e-05
-5.28652e-05
2.18615e-05
1.37216e-05
-7.73087e-07
-1.51278e-05
2.1793e-06
-1.36836e-05
-7.77453e-06
3.51797e-05
8.20171e-07
-1.52768e-05
-1.32802e-05
-4.36428e-05
4.91485e-05
-5.76367e-05
2.92288e-05
-5.50207e-05
1.21981e-05
-0.000127934
-9.25648e-06
-8.79495e-06
2.10272e-05
-3.29746e-06
-1.41068e-05
8.1478e-06
-1.46244e-05
3.50233e-05
-9.03256e-05
-8.16039e-06
-7.38114e-05
-2.06392e-05
5.02259e-05
2.99821e-05
-0.000111954
1.74907e-05
3.84427e-05
-6.82322e-05
-5.42187e-05
-3.74469e-05
0.000159898
-1.92935e-05
-7.85378e-05
2.95992e-05
-5.78272e-05
-1.56849e-05
6.85804e-05
3.71866e-05
-0.000163594
8.98427e-05
-3.69471e-05
0.000100146
-0.000141498
0.000152542
-2.86041e-05
-2.41127e-05
2.04415e-07
5.25124e-05
7.69983e-07
1.34221e-05
-4.27962e-05
-2.19811e-05
-1.36162e-06
3.91383e-05
-8.08988e-06
-5.30296e-05
2.66295e-05
1.11472e-05
3.53681e-05
-3.00359e-05
6.2202e-05
1.69161e-06
1.79437e-05
-2.62194e-05
6.58404e-06
7.47783e-06
-4.27561e-06
-1.5106e-06
-1.12618e-05
3.66834e-05
-1.85811e-06
1.05818e-05
-1.29993e-05
5.46267e-06
-8.83137e-06
6.85644e-06
7.57546e-06
-3.8501e-06
4.35561e-06
7.9635e-06
-5.98508e-06
-9.21111e-07
-2.4629e-05
-3.099e-05
-2.62693e-05
-1.00617e-05
6.73209e-05
-7.61539e-06
-1.44189e-05
-8.95567e-06
-2.27864e-05
-1.10982e-05
2.54178e-05
8.14945e-06
-5.63537e-05
3.90318e-05
-2.47122e-05
3.73139e-05
-4.35834e-05
6.6284e-05
8.05756e-06
1.46832e-05
2.93674e-06
-2.56775e-05
4.25426e-06
-7.27032e-07
4.53034e-06
8.30895e-06
1.06285e-05
3.5763e-06
-1.23252e-05
8.02188e-06
-3.04945e-06
1.11561e-05
1.90668e-06
-4.61086e-06
-9.62104e-06
-2.41145e-06
1.26867e-06
-3.75027e-06
9.64776e-06
-5.42439e-06
6.14702e-06
9.12548e-06
-1.18331e-05
-3.43936e-06
-2.40413e-05
6.77445e-06
2.34142e-05
-1.26796e-05
-2.23569e-06
2.5288e-05
2.13001e-05
-5.84211e-05
1.14039e-05
1.04448e-05
-7.09296e-06
2.52717e-05
1.5278e-06
2.18228e-06
-3.97171e-05
-2.99739e-06
4.05322e-05
-4.20652e-05
3.89874e-05
5.26014e-06
3.74187e-05
-0.000119201
4.56675e-05
-4.12964e-05
-7.36851e-06
-3.73279e-05
0.000123528
-4.06109e-06
5.72058e-06
-7.93882e-06
-7.02819e-06
-3.46529e-06
2.40909e-06
8.0844e-06
-1.80016e-08
2.87511e-05
-3.57613e-05
1.49797e-05
-1.8463e-05
1.25608e-05
-1.36407e-05
3.48895e-06
-1.04607e-05
3.11059e-05
-1.0006e-05
2.51165e-05
-5.48698e-06
6.14075e-06
1.23463e-05
1.79574e-05
-3.64445e-05
1.23475e-05
2.13071e-05
-2.75139e-05
1.21603e-05
1.25335e-05
-2.8981e-05
1.43399e-05
3.59483e-05
3.04294e-05
-4.14529e-05
1.32176e-05
2.93721e-05
4.0091e-05
-5.26321e-06
3.43902e-05
4.75949e-06
-3.38864e-05
4.9794e-05
-3.27062e-05
-2.23509e-05
-8.54516e-06
9.27293e-05
-5.30128e-05
4.68373e-05
1.0935e-05
7.71258e-06
-9.46117e-05
6.19828e-05
-8.69765e-05
0.000100275
0.00014565
1.21913e-05
-0.00012346
-3.43807e-05
-0.000104668
-1.36096e-05
0.000263928
1.11147e-05
-0.000103592
4.29583e-05
-3.13271e-05
-0.000135092
-3.33126e-05
6.26611e-05
-0.000152453
0.000133442
3.01255e-05
1.28937e-05
-0.000268939
-4.38596e-05
0.00014399
-6.22932e-05
0.000141528
4.38574e-06
-0.000128912
-1.70015e-05
-8.62658e-05
-3.67961e-05
0.00026459
4.65995e-06
-8.65406e-05
-0.000127011
0.000117871
1.37996e-05
3.85951e-05
-0.000252149
-0.000176893
0.000257967
-0.000267211
-1.46196e-05
-4.93983e-07
1.90838e-07
1.49227e-05
3.14216e-05
3.04783e-05
-7.65195e-05
3.21368e-05
-1.20914e-06
9.27629e-06
-9.02634e-06
-5.91167e-08
-5.16506e-06
2.93641e-05
5.78123e-06
1.56707e-05
3.27529e-05
-4.12768e-06
2.97145e-05
2.84735e-06
-2.84342e-05
3.47103e-05
-3.58847e-05
-2.95332e-06
-2.75976e-05
9.20224e-05
-2.95784e-05
3.12166e-05
2.88527e-05
-8.68652e-05
1.40229e-06
-8.43432e-06
5.02126e-06
-2.2595e-06
-2.17886e-05
1.1077e-06
2.29404e-05
-3.54024e-05
3.76692e-05
-4.52624e-06
3.40985e-05
-9.12895e-05
1.01905e-05
-8.9414e-06
-1.41377e-07
-6.80292e-06
3.99338e-05
-6.10347e-06
3.69697e-05
1.90536e-05
1.03686e-05
2.22838e-05
5.61265e-06
-3.82651e-05
-8.41523e-07
1.03276e-05
8.82555e-07
2.26162e-05
-1.17388e-06
5.9021e-06
3.43568e-05
-3.46462e-05
3.14408e-05
-1.52111e-05
-3.72326e-05
-4.04964e-06
-1.92118e-05
-4.08015e-05
9.99471e-05
-2.99553e-07
-4.1313e-06
4.40642e-07
-3.0597e-05
-4.48993e-06
-1.38879e-05
-8.27499e-05
-5.45236e-06
-2.07796e-05
-2.90086e-06
2.91329e-05
-5.0933e-06
-8.03339e-06
7.67437e-06
4.13634e-06
-3.00089e-05
-4.54781e-07
-9.91256e-06
2.33401e-06
3.5739e-06
-6.92943e-06
-4.43783e-05
5.20886e-05
-8.42997e-05
5.05308e-06
2.31247e-05
-2.6342e-05
-1.83587e-06
3.61033e-06
-8.636e-06
1.00788e-05
-4.27372e-07
2.71625e-05
2.55989e-05
3.33555e-05
-8.52964e-05
9.85451e-06
1.39085e-05
-1.17612e-05
3.64808e-05
-1.27651e-05
-2.56775e-05
4.85214e-05
1.8478e-05
-6.88207e-05
-2.15009e-05
6.3617e-05
2.67046e-05
5.11821e-05
0.000124151
-0.000244154
8.5815e-05
-5.61337e-05
-1.57995e-05
-1.5683e-05
9.50996e-05
-3.49045e-05
4.58097e-05
-1.91006e-06
-4.39758e-05
3.02028e-05
-8.54245e-05
4.86101e-05
2.81944e-05
1.05324e-05
7.00336e-05
-0.000106185
-0.000103557
-7.93062e-05
2.56974e-05
-0.00010168
-1.32665e-05
-6.45927e-05
-0.000150821
0.000117325
-0.000115477
-7.75408e-05
3.33905e-05
-2.04424e-05
0.000184476
-0.000251484
0.000102389
-1.88539e-05
9.87917e-05
-2.43478e-05
-5.55899e-05
0.000174189
-4.07034e-05
-0.00015234
-0.000165641
-9.46714e-05
-3.29962e-05
3.21879e-05
-2.35395e-05
5.07666e-05
-0.000124466
0.000143281
-0.000258155
8.07973e-05
8.3752e-07
-2.84933e-05
-4.89319e-06
3.2549e-05
-3.87322e-05
2.3198e-05
1.63717e-05
-1.86673e-05
-4.85581e-05
2.49965e-05
3.57538e-06
-3.3465e-05
4.41122e-06
5.31344e-05
8.00303e-06
4.48559e-06
-8.91318e-06
-1.59442e-06
1.40087e-05
-9.24973e-06
3.08534e-05
-2.34314e-05
-5.50299e-06
-3.83873e-06
-6.06973e-06
1.54114e-05
-6.57387e-07
-2.03442e-05
1.54986e-05
-5.08757e-06
5.91477e-07
-1.44357e-06
1.2018e-05
-1.5662e-05
1.55001e-05
-1.63521e-05
1.5569e-05
-2.38952e-05
2.49994e-05
-1.64487e-05
5.79488e-06
1.90506e-05
-8.39682e-06
2.40818e-05
3.24562e-06
-4.37761e-05
1.42147e-05
-4.21547e-05
-1.61411e-06
6.28195e-05
-2.37886e-05
-2.67629e-05
3.0597e-05
-5.114e-05
4.31977e-05
-2.24562e-05
-1.11086e-05
-2.15008e-05
5.50655e-05
1.25864e-05
-1.15487e-05
-2.34938e-05
-3.14359e-05
3.29137e-05
-2.44087e-05
4.85343e-05
-3.56742e-05
2.00183e-05
-6.79209e-05
3.37046e-05
-4.51222e-05
6.07381e-05
1.7393e-05
-9.38636e-06
-1.93575e-05
1.13509e-05
-3.70949e-05
5.04005e-05
-2.32995e-05
4.73235e-05
-6.35019e-05
3.23362e-05
-2.12015e-06
-6.61491e-06
-1.18149e-05
2.055e-05
-1.11528e-05
-1.88444e-05
2.78771e-05
-7.80752e-06
-9.96018e-06
4.46772e-06
1.2454e-05
-2.47293e-05
1.88538e-05
-2.43463e-05
1.60294e-05
-2.24198e-05
2.30684e-05
2.77851e-06
-2.55528e-06
-1.55257e-05
1.53025e-05
-6.07891e-06
-5.38008e-06
1.42375e-05
-7.98598e-06
-6.48217e-07
6.38158e-06
9.10407e-06
-2.34716e-05
1.00572e-05
-4.32388e-06
-9.94527e-06
1.46224e-05
-1.6367e-05
8.82554e-05
-1.05788e-05
-8.93226e-05
1.16459e-05
-7.98785e-05
-4.4209e-05
0.000212343
-7.98395e-05
-1.06179e-05
0.00011816
3.53404e-05
-0.000233339
0.000142577
-3.50354e-05
-0.000138881
0.000237249
-0.000192863
4.1297e-06
3.24759e-08
1.13153e-05
-1.54775e-05
-6.65469e-08
1.07312e-06
3.12312e-06
1.2931e-05
-1.2965e-05
4.99748e-06
-2.10468e-05
1.71224e-05
-6.57251e-06
1.46931e-05
-1.56661e-05
2.20245e-05
-2.53976e-05
1.82738e-05
-1.5659e-05
-1.93541e-05
1.67393e-05
-3.19742e-05
1.7171e-05
3.3077e-05
-7.53577e-06
-4.00974e-05
5.26557e-05
-2.50996e-05
-4.69102e-05
1.87438e-05
5.06511e-05
1.42504e-05
-3.13961e-06
-3.62103e-05
-6.20523e-07
3.36147e-05
-1.10758e-05
2.76263e-05
-2.17512e-05
2.00821e-05
2.86103e-05
2.9484e-05
-7.81764e-05
6.94241e-06
3.00284e-05
-1.68887e-05
2.57088e-05
9.84388e-06
2.20696e-05
4.0821e-05
-3.28621e-05
2.65171e-05
2.50365e-05
7.83652e-07
6.57462e-05
3.71446e-05
6.82947e-07
5.47312e-07
-1.35661e-05
1.23359e-05
-2.00818e-06
-5.10406e-06
7.79516e-06
-3.46456e-06
2.00366e-06
5.61174e-06
6.36453e-06
-1.54409e-05
8.00129e-06
-3.85913e-07
-5.23182e-06
8.12901e-06
-1.24335e-05
-2.09666e-06
2.12523e-06
-4.61626e-07
4.33053e-07
-2.62234e-06
-5.27433e-07
1.05304e-06
-1.56801e-06
1.07078e-06
-5.52692e-06
-2.26259e-08
5.08785e-06
-2.53573e-07
-5.80103e-06
-4.06204e-06
2.4713e-06
-3.24502e-06
-5.38992e-06
7.55907e-06
3.74327e-06
-5.91242e-06
7.78009e-06
-6.88149e-06
-6.28853e-06
7.02968e-06
8.30948e-06
-5.43049e-06
-1.14811e-05
2.39413e-05
-1.64416e-06
4.52311e-06
2.68783e-06
-5.88736e-07
-1.56748e-05
1.65684e-05
7.54457e-06
-1.70054e-06
-2.24125e-05
-3.49466e-06
6.79027e-06
1.32728e-05
-4.39528e-06
8.44519e-06
1.43114e-05
7.0189e-06
-2.30309e-05
2.1691e-07
2.08848e-05
1.85857e-05
-1.5962e-05
2.72478e-05
-4.08352e-05
-9.02862e-06
8.52812e-06
4.13357e-05
8.74907e-06
-3.86696e-06
-4.57173e-05
-7.97576e-06
7.6962e-06
3.75746e-05
-2.70932e-05
-1.84572e-05
-4.0401e-06
4.93109e-05
3.91472e-05
1.91092e-05
-6.21233e-05
8.00878e-06
3.96665e-05
1.48693e-05
-2.28534e-05
1.8838e-05
-2.80995e-05
-2.39192e-05
-1.02497e-05
6.22684e-05
-3.42613e-06
-4.31306e-05
-2.67991e-05
-5.46269e-07
9.13594e-06
-3.15312e-06
-3.27819e-05
8.94932e-06
-3.59672e-07
1.02733e-05
1.48418e-05
-2.82683e-05
2.7642e-05
-8.41935e-06
4.36168e-05
-7.19056e-05
6.1009e-05
-5.38645e-05
-1.81854e-06
3.78671e-05
1.78159e-05
1.53925e-05
3.28326e-05
-0.000102089
-1.67061e-06
1.52445e-05
2.33349e-05
-2.08754e-05
-4.13011e-06
-4.0767e-06
4.26561e-05
-1.73702e-05
3.01524e-05
2.50849e-05
2.75559e-05
-1.20936e-05
-4.02482e-05
6.63239e-05
-3.35677e-05
-1.3539e-05
-2.03403e-05
7.65355e-05
-1.66491e-05
-1.02004e-06
1.68428e-05
9.87579e-06
-4.33677e-05
1.59705e-05
-1.47758e-07
1.06824e-05
-3.43743e-05
4.20693e-05
-1.54164e-05
8.80529e-05
-4.52657e-05
-8.48771e-07
4.06167e-05
5.49781e-06
3.35771e-05
4.2145e-05
1.52717e-06
3.12011e-05
3.88045e-05
4.86774e-06
-3.53942e-05
0.0001054
1.00902e-05
2.48407e-05
3.09929e-05
6.53707e-06
-6.23706e-05
-2.79607e-06
2.48642e-05
2.77261e-06
-3.41801e-05
2.03518e-05
-8.26312e-05
4.624e-05
3.37938e-05
1.80579e-05
-9.80917e-05
2.28552e-06
4.7456e-05
1.84493e-06
3.42344e-05
7.04605e-05
5.18111e-05
1.45492e-05
0.000103367
5.16272e-05
2.02888e-06
0.000100411
4.05924e-05
1.92685e-05
4.16281e-05
1.73691e-06
-6.10029e-05
-5.72371e-05
-0.0001206
-2.30285e-05
-3.0525e-06
3.98719e-05
-1.02566e-05
-7.79414e-05
-4.35124e-05
-2.37622e-05
-2.42398e-06
-3.57186e-05
-3.97988e-05
-3.51884e-05
-1.07479e-05
9.31318e-06
-3.79118e-05
4.83653e-06
-8.31917e-05
-5.70588e-06
-0.000112674
-5.43654e-05
-7.08453e-05
-8.1625e-06
2.61426e-05
3.75523e-05
-0.000104227
-2.40412e-06
3.17939e-05
4.44363e-05
-2.59445e-05
2.16431e-05
5.2595e-05
3.12988e-05
4.07008e-05
-9.79441e-05
2.15679e-05
3.1374e-05
1.04244e-05
-3.52859e-05
4.64295e-05
-6.24287e-05
3.52033e-05
-5.69312e-05
5.25124e-05
6.83696e-06
2.45712e-05
3.05746e-05
2.54109e-05
7.86265e-05
8.22424e-07
-7.97399e-05
2.90965e-07
-4.3831e-05
-4.75176e-05
0.000169975
1.51398e-06
-4.45225e-05
-4.14294e-05
4.01966e-05
2.74676e-06
5.95083e-06
-9.19027e-05
-6.72862e-05
5.99652e-05
-0.000141075
-1.72005e-05
-4.80275e-05
1.05309e-05
5.4697e-05
2.79924e-06
-2.08846e-05
8.84837e-07
-5.5347e-05
1.01189e-05
-2.47381e-05
-2.96082e-05
6.48773e-05
-7.41172e-05
2.84945e-05
9.37911e-05
1.82425e-05
-0.000167381
8.68983e-05
1.70118e-05
0.000107689
-0.000163564
0.00016498
-2.60058e-05
-4.7231e-05
3.37373e-06
2.10201e-05
1.95847e-05
4.06142e-06
-2.07043e-05
-2.94191e-06
-4.51198e-05
-1.71047e-06
6.64151e-05
2.25591e-06
-4.33144e-05
1.92228e-05
-7.37427e-05
3.38157e-05
-5.11142e-05
6.86265e-05
-4.17322e-05
4.24015e-05
1.58668e-06
2.15191e-06
-8.71985e-05
6.35614e-05
-0.000135152
5.48487e-05
-2.61128e-05
-2.58279e-05
-1.16342e-05
6.35749e-05
-9.67053e-07
-2.47061e-05
-4.39696e-07
-2.40481e-05
1.98665e-05
-7.82985e-05
3.3726e-05
6.81975e-05
5.08109e-05
-0.000166762
-0.000168563
-3.34083e-05
-6.65808e-05
-1.21949e-07
1.49473e-06
1.64968e-05
-3.38177e-07
-1.64204e-05
2.61763e-07
-3.78592e-05
-1.15117e-05
6.58677e-05
-9.34469e-07
-3.72629e-05
1.09681e-05
-5.92936e-05
3.19051e-05
-6.55143e-05
6.49708e-05
-6.38011e-05
-2.64767e-06
-0.000160358
-7.78378e-05
-3.53848e-05
-5.53403e-05
-1.21952e-06
-7.70147e-05
3.96406e-07
-3.50176e-05
4.09266e-05
-0.000163143
7.49889e-05
-0.000169215
1.33808e-06
-3.36382e-06
8.46443e-07
3.66508e-05
4.1152e-05
2.48185e-05
-0.000102621
-1.69282e-05
9.51171e-06
4.40673e-05
5.94809e-05
-3.52571e-05
7.29115e-05
-6.30033e-05
-2.63797e-05
0.000143358
-7.90112e-05
0.000112112
-0.000117196
-4.80672e-05
-3.96131e-05
-8.6249e-06
9.63052e-05
4.58151e-06
-2.68232e-05
-2.58255e-05
-3.55986e-05
5.67016e-07
5.04942e-05
1.25039e-05
-9.85968e-05
5.22072e-05
-1.14592e-06
5.89915e-05
-7.33107e-05
0.000102574
-1.27535e-05
-1.36184e-05
-2.07918e-05
4.71637e-05
-1.27187e-06
-1.70155e-05
5.53383e-06
-1.15889e-06
-1.37314e-05
8.07405e-07
-1.45296e-05
-7.06966e-06
-1.01036e-05
-6.10451e-06
-1.66561e-05
9.67676e-07
-4.04911e-05
-7.75224e-06
-3.11336e-05
1.07298e-05
2.81561e-05
-1.5656e-05
1.71901e-05
-9.28644e-06
-8.19614e-06
-3.85935e-05
-2.89994e-05
-6.17999e-06
5.23695e-05
-7.83469e-06
-3.04512e-05
2.40241e-05
-4.00549e-05
2.85737e-05
-8.58464e-06
1.01511e-05
2.72206e-05
-2.87871e-05
1.33383e-05
1.68895e-05
-3.88124e-05
1.43113e-05
9.17814e-06
2.46347e-05
2.76804e-05
-3.54256e-05
1.4606e-05
3.72493e-05
-1.43203e-05
4.32375e-05
2.25383e-05
7.75392e-06
-2.13909e-06
1.1138e-05
-1.67528e-05
-6.84547e-06
3.00151e-06
1.15979e-05
1.78529e-05
-2.68375e-05
4.32224e-06
-6.34797e-06
5.02724e-06
-9.51954e-06
2.54397e-05
1.20567e-07
-3.04709e-06
-3.42145e-06
-6.15024e-06
-3.24873e-06
8.7195e-07
1.08307e-05
8.96281e-06
-2.68326e-06
6.91915e-07
-2.25935e-05
2.45849e-05
-2.09459e-06
1.49068e-06
-2.07934e-06
8.9218e-06
-1.03245e-05
-2.49309e-05
1.71e-05
-5.32599e-07
-3.47228e-05
-8.72621e-06
3.52512e-06
2.2301e-05
6.47745e-06
-1.57363e-05
-2.69501e-06
7.7108e-06
-1.88111e-05
-8.44083e-06
2.17095e-05
2.94336e-05
-4.27022e-05
2.50016e-05
2.60479e-05
-5.94903e-05
3.04136e-05
1.62974e-05
6.6759e-06
4.87606e-05
-2.60029e-05
2.58213e-05
6.90252e-06
-9.28359e-06
8.84578e-05
3.28351e-05
9.66394e-06
2.05889e-05
-4.20809e-06
-2.60448e-05
8.59156e-06
-9.48405e-06
1.05565e-05
7.96922e-06
2.12113e-05
2.47265e-05
-3.22364e-06
-3.09869e-05
4.25226e-06
3.10306e-05
-2.05822e-05
-2.80139e-05
-6.16629e-06
-7.68793e-06
-5.8607e-06
1.97149e-05
-5.83528e-06
-8.19187e-06
7.86091e-06
-6.632e-06
-6.89112e-06
-1.4125e-05
-1.35509e-05
2.18153e-05
-3.10018e-06
-1.92165e-05
7.93885e-06
-1.76709e-05
-1.2503e-05
-5.00646e-06
6.88721e-06
-1.86585e-05
1.1556e-05
-3.82527e-05
9.34144e-06
9.10178e-06
-3.36072e-06
3.3676e-05
3.75921e-07
2.55076e-05
2.72395e-06
-2.86075e-05
2.13336e-05
-1.0674e-05
-1.02837e-05
-1.81775e-05
6.50188e-05
-1.93326e-05
1.67515e-05
5.30514e-06
5.31525e-06
-5.32554e-05
8.69579e-06
-1.40545e-05
7.2698e-06
-8.01901e-05
-0.000120462
-2.57431e-05
0.000226395
-1.31955e-05
1.78965e-05
-8.4891e-05
-9.8718e-05
-3.49397e-05
-0.000146734
0.000107824
5.68059e-05
2.18642e-05
-0.000253489
0.000156679
-0.000233533
0.00023876
-6.35892e-05
-4.07862e-06
4.52738e-05
2.2394e-05
4.88447e-05
4.25795e-05
-0.000155013
4.7391e-05
-2.62497e-06
2.24441e-05
4.64098e-05
-2.62746e-05
6.19101e-05
5.80774e-06
-6.52596e-05
0.000174561
-2.14747e-05
-1.17721e-05
-4.069e-06
2.13893e-06
1.37022e-05
2.14982e-05
2.20075e-05
-5.52778e-05
2.46787e-05
-7.24942e-06
6.67638e-06
-5.51985e-06
9.82424e-07
-4.45456e-06
2.48332e-05
5.04677e-06
1.14409e-05
2.5271e-05
4.0319e-07
2.19206e-05
-2.18494e-05
-4.74459e-07
2.71643e-05
-1.8345e-05
-8.41595e-06
-2.11022e-05
7.01872e-05
2.72719e-05
1.95995e-05
-6.87208e-05
1.95484e-05
3.79794e-06
-2.54336e-06
2.24423e-06
-9.28133e-06
-2.91214e-05
-2.62171e-05
6.46198e-05
-2.04742e-06
1.59063e-06
-8.82452e-06
-2.89852e-05
-2.18346e-06
-1.40886e-05
1.59446e-05
-2.65291e-07
7.80958e-06
-3.07227e-05
2.25312e-05
-4.37065e-05
2.66564e-05
1.18195e-05
-1.7439e-06
2.13672e-05
1.26821e-05
-6.4772e-05
2.2444e-05
-1.34209e-06
-4.06292e-05
7.48927e-05
-3.9164e-05
-2.80508e-06
3.10827e-05
-4.76653e-07
-1.54058e-06
-2.90655e-05
-1.99887e-05
-2.5448e-05
-1.17251e-06
-1.92929e-05
-4.73135e-05
4.5208e-05
9.32982e-07
1.92925e-05
-8.58989e-05
-2.55356e-05
-1.45302e-06
5.48469e-05
7.45192e-05
1.31789e-06
3.64563e-05
1.69295e-05
5.58138e-07
-8.99096e-05
8.67314e-05
2.62008e-06
-9.00847e-05
8.78552e-05
2.7876e-06
8.44036e-05
-0.000264398
-7.68318e-05
-9.6298e-05
0.000260985
-9.10715e-05
1.70271e-05
-5.14595e-06
-1.52215e-06
-1.47128e-05
-2.79399e-05
-8.94244e-05
-0.00012679
-3.45927e-05
-9.68758e-05
0.000103529
-3.24022e-05
-9.1615e-05
-3.96467e-05
0.000100527
-9.32824e-05
0.00012325
-0.000254511
-6.38668e-05
9.02408e-05
-9.01296e-05
-3.25671e-05
8.22947e-05
2.91671e-05
-7.88946e-05
0.0001388
-6.75774e-05
-0.000103789
-2.84011e-05
0.000249496
-0.0001194
6.60274e-05
8.25398e-05
4.11551e-05
-0.000239449
6.89987e-05
-9.5421e-05
0.000106625
-2.56224e-05
-5.35069e-05
-6.06368e-05
-0.00023861
2.03078e-05
-3.58153e-05
8.21876e-05
-6.66801e-05
-6.61564e-05
6.97928e-05
1.66716e-05
9.22113e-05
-0.000194183
-3.68064e-05
-0.000117019
0.000223618
-8.55347e-05
6.54002e-05
-5.32823e-05
5.9959e-05
-8.81129e-05
-2.23463e-05
8.84689e-05
-8.63589e-05
2.02364e-05
0.000154579
-9.61284e-05
-0.000104279
-0.000160742
6.93265e-05
-0.000251814
-0.000140547
5.65046e-05
-0.000231963
9.80509e-05
6.49904e-05
-1.70739e-05
-0.000145967
-0.000107227
-5.18227e-05
-5.02466e-05
1.42677e-05
-1.9511e-06
-4.43152e-05
-5.55643e-06
-3.79299e-05
-9.93187e-05
2.0389e-06
-1.97285e-05
7.18041e-06
1.05092e-05
-3.11405e-05
1.07108e-05
2.24686e-05
3.21912e-05
2.11068e-05
7.62595e-06
-1.46655e-07
-2.98869e-07
-3.70792e-06
2.20447e-05
-2.17979e-05
5.02812e-05
-8.37674e-07
5.32977e-06
6.62083e-06
1.69936e-06
-1.365e-05
-1.35959e-06
5.37933e-06
1.31003e-06
6.48494e-06
-1.22369e-06
7.34294e-06
1.30974e-05
-1.87409e-05
8.54786e-06
4.17442e-06
-1.21733e-05
2.72061e-05
-2.99661e-07
1.11519e-05
-9.56846e-08
-8.96529e-06
-2.09093e-06
-6.1956e-06
-6.61104e-06
2.39585e-05
-5.3647e-07
-5.7548e-06
-1.69771e-05
1.97675e-05
-3.3269e-06
5.97324e-06
-2.87051e-05
-8.11116e-06
-9.22376e-06
8.36965e-06
-1.00717e-05
-4.65045e-06
-1.85175e-05
2.82133e-05
-2.1768e-05
8.26922e-06
4.17141e-05
-2.56039e-05
-2.43794e-05
2.95919e-05
-3.0853e-05
9.53033e-06
-1.52114e-05
8.65174e-05
4.44381e-05
2.0363e-05
-9.56541e-05
2.72055e-05
-1.8927e-05
3.09211e-05
-2.41679e-05
-1.08754e-05
-6.48624e-06
-8.85706e-06
1.91467e-06
-1.5205e-06
-1.12696e-05
-1.56441e-05
1.10725e-05
-1.4162e-05
2.30242e-05
7.01856e-06
-3.24501e-05
-1.82211e-05
4.29934e-06
1.78689e-05
-1.89566e-05
-3.2116e-06
1.92718e-05
1.68167e-05
5.32391e-05
2.50693e-05
-6.46469e-05
-9.57849e-06
6.21879e-05
-1.36942e-05
-5.80722e-05
-7.11813e-05
-4.02211e-05
0.00017359
-1.20951e-05
-7.27804e-05
-0.000115593
0.000151869
-4.83702e-05
4.07805e-05
-0.000229154
-0.000122701
0.000234349
6.49398e-05
-1.47479e-05
-5.65313e-05
6.33942e-06
-0.000148778
-1.96215e-05
-0.000137004
-2.65224e-05
9.61832e-05
1.30705e-05
-0.000165785
8.1126e-05
2.13966e-05
3.09728e-05
2.92067e-05
-4.71089e-05
2.52811e-05
8.68177e-05
-3.89405e-05
4.46002e-05
-0.000146737
1.53913e-05
-7.09074e-06
-2.90255e-05
2.07249e-05
-1.77906e-05
-1.8258e-05
5.14399e-05