/*--------------------------------*- C++ -*----------------------------------*\
| =========                 |                                                 |
| \\      /  F ield         | OpenFOAM: The Open Source CFD Toolbox           |
|  \\    /   O peration     | Version:  v2012                                 |
|   \\  /    A nd           | Website:  www.openfoam.com                      |
|    \\/     M anipulation  |                                                 |
\*---------------------------------------------------------------------------*/
FoamFile
{
    version     2.0;
    format      ascii;
    class       volVectorField;
    location    "0.4";
    object      U;
}
// * * * * * * * * * * * * * * * * * * * * * * * * * * * * * * * * * * * * * //

dimensions      [0 1 -1 0 0 0 0];


internalField   nonuniform List<vector> 
6576
(
(0.0336628 -1.48156 -0.066997)
(-0.0931464 -1.53509 0.0787876)
(-0.0333928 -1.56703 0.0122594)
(0.0441189 -1.45121 -0.0619964)
(-0.00486878 -1.50705 0.0055499)
(-0.0806286 -1.59777 0.0796139)
(-0.0173381 -1.54691 0.0322099)
(0.0155587 -1.49814 0.0026369)
(0.0175911 -1.24788 -0.00994572)
(0.0177163 -1.45895 0.000802001)
(-0.0117157 -1.51143 -0.016364)
(-0.017437 -1.55149 -0.0112428)
(-0.00209292 -1.55226 0.00667466)
(0.00752437 -1.48799 -0.000221785)
(0.0607966 -1.45711 0.0228645)
(0.00835454 -1.82316 -0.0337013)
(0.0674565 -0.86077 0.0341577)
(0.016773 -1.71942 -0.016438)
(0.0561032 -1.56186 0.0638606)
(0.0177096 -1.48069 0.0038286)
(0.0488517 -1.37617 0.0501851)
(0.00207802 -1.53273 0.0150635)
(0.0104824 -1.46857 0.00864525)
(-0.00491732 -1.5002 -0.0122768)
(0.00175593 -1.59793 0.0199314)
(0.0539247 -1.53006 0.0570389)
(0.0637928 -1.49506 0.0669007)
(0.000431981 -1.45705 0.014175)
(-0.00591973 -1.57988 -0.0316266)
(0.00634043 -0.963264 -0.00840922)
(-0.0543749 -1.57579 0.0635586)
(-0.0277329 -1.45649 -0.00972136)
(-0.0120276 -1.55508 0.000239161)
(0.0121095 -1.45741 0.0318175)
(0.0167865 -1.46576 0.0350161)
(-0.019559 -1.25653 0.0100122)
(0.00159049 -1.64139 0.0120357)
(-0.0147438 -1.56905 0.0106027)
(0.0181183 -1.47879 0.024953)
(0.0105402 -1.47742 0.0190847)
(0.00249135 -1.31055 0.0318881)
(-0.0175597 -1.47666 0.0062654)
(-0.00101667 -1.40623 0.00619041)
(0.749568 2.05855 1.39278)
(0.685886 2.0619 0.719643)
(-0.137594 1.03373 -0.235308)
(0.352244 2.15081 1.46853)
(0.682705 2.26927 1.82424)
(-0.19867 0.738778 0.242906)
(-0.857958 1.17125 -0.203826)
(0.417896 1.93785 0.907718)
(1.17704 2.19672 1.91243)
(-0.137552 1.34941 -0.640727)
(0.169454 0.283566 -0.520289)
(0.103881 1.44386 -0.394607)
(0.0532968 1.63528 -0.682283)
(0.0504081 2.0958 -1.04928)
(-0.0647523 2.4824 -1.15472)
(-0.00331127 2.21802 -0.594409)
(-0.0833317 -1.53002 0.00245229)
(0.162409 -1.34814 -0.548976)
(-0.0238828 -1.43116 0.135226)
(0.248163 -1.49544 -0.112997)
(-0.0762309 -1.69374 0.149176)
(-0.00441712 -1.50944 0.0266744)
(0.456209 -1.54811 -0.418646)
(-0.133037 -3.94019 0.5591)
(-0.00104693 -4.20082 0.663365)
(0.0408357 -3.81968 0.26858)
(-0.0807772 -4.25982 0.413955)
(-0.177138 -4.0287 0.497052)
(0.0191731 -4.28717 0.252489)
(0.0698577 -4.25333 0.202948)
(-0.156675 1.06803 -0.327491)
(-0.0416849 1.17639 -0.278617)
(0.0843654 0.953811 -0.401062)
(-0.119263 0.870482 -0.309762)
(-0.270491 0.82357 -0.122428)
(-0.191337 0.947329 -0.415348)
(0.00134897 0.911698 -0.408645)
(0.109535 0.954988 -0.223687)
(0.128169 0.815749 -0.00756798)
(-0.00881541 1.03685 -0.142739)
(-0.112899 1.146 -0.286116)
(-0.128659 1.18077 -0.111404)
(0.0541786 1.06511 -0.0125141)
(0.0273399 1.116 -0.172642)
(-0.00734826 -0.40317 0.17672)
(0.0849685 -0.643767 0.302623)
(0.074507 0.179825 -0.199011)
(-0.379907 -0.759396 0.0153999)
(0.0881238 -0.429673 0.104831)
(-0.00334404 -0.806285 0.249771)
(0.0592719 -0.780123 0.236458)
(-0.00137976 -0.101739 0.765391)
(-0.00152479 -0.304145 0.721693)
(-0.0285574 0.0225729 0.975494)
(-0.0230086 -0.224118 0.712459)
(0.029912 -0.237577 0.581943)
(0.0766691 -0.0402712 0.577455)
(0.0597174 -0.109473 0.651372)
(-0.0051531 -0.0550979 2.87635)
(0.0562845 0.0904081 2.44517)
(0.00358815 0.154488 2.09756)
(0.0371968 0.185442 2.59827)
(-0.104169 0.0514908 2.83944)
(0.0396457 0.182846 2.43288)
(-0.08204 0.0465931 2.5731)
(0.111612 0.281856 1.51391)
(0.00367827 0.431967 0.794094)
(0.145727 -0.124103 0.649156)
(-0.0234374 0.721591 1.54362)
(0.626263 -0.00850266 0.233459)
(0.187574 0.376314 0.341457)
(0.0261525 -2.79702 0.0337588)
(0.00165647 -3.06927 0.0163481)
(0.0405027 -3.02133 0.0196266)
(-0.0225615 -3.13099 0.0436996)
(-0.0168599 -3.17165 0.058148)
(0.00941876 -3.1466 0.0533229)
(0.0204643 -3.11955 0.0689395)
(0.0664447 -1.34789 0.00957933)
(0.108459 -1.59128 0.085226)
(-0.0316073 -1.6037 0.0032226)
(-0.0150926 -1.64916 -0.0121956)
(-0.0875377 -1.55393 -0.0546813)
(0.0898623 -1.72416 0.120362)
(-0.0639031 -1.3397 -0.0187572)
(0.0175691 -8.66073 0.0260973)
(0.00579489 -8.47751 0.0121494)
(0.0127477 -8.41216 -0.0149787)
(0.0731853 -8.3664 -0.0377096)
(0.0731114 -8.56824 -0.0148752)
(0.0215465 -7.81873 -0.284129)
(0.018744 -8.30704 -0.157539)
(0.047384 -0.381643 1.09012)
(0.186548 -0.226822 1.36484)
(-0.0955771 -0.577926 1.26704)
(0.0395009 -0.826002 1.16654)
(0.13131 -0.739797 1.33503)
(0.248172 -0.289979 1.36753)
(-0.0315051 -0.680813 0.825665)
(-0.0195352 -0.939608 0.704409)
(0.00050361 -0.901299 0.624033)
(0.0042379 -1.00418 0.750024)
(-0.000789378 -0.492399 0.633157)
(-0.0740295 -0.667093 0.657479)
(-0.00728276 -0.822209 0.734336)
(-0.00511568 -0.714296 0.630554)
(0.0113505 -0.878239 0.666736)
(-0.0103086 -0.632726 0.590782)
(-0.0763248 -0.723918 0.626937)
(0.0313779 -0.851043 0.666384)
(0.0628934 -0.80911 0.615733)
(-0.0258965 -0.841053 0.703543)
(-0.0348331 -0.917158 0.779739)
(-0.0059192 -0.912395 0.697958)
(-0.0301013 -0.907413 0.622317)
(-0.0103463 -0.664862 0.610301)
(0.0201128 -0.870221 0.638121)
(0.0306658 -0.80436 0.515486)
(-0.00398823 -0.359282 0.326916)
(-0.0142735 -0.433276 0.416713)
(-0.0286996 -0.564033 0.38907)
(-0.035083 -0.569605 0.451308)
(-0.00363572 -1.04576 0.588013)
(0.00886814 -1.04271 0.52248)
(-0.00850948 -1.01802 0.535904)
(-0.0252867 -0.924749 0.629041)
(0.032634 -0.972211 0.609825)
(0.0258422 -0.952731 0.567715)
(-0.0219189 -0.851071 0.587979)
(-0.102609 -0.604299 0.420727)
(-0.0768153 -0.712895 0.421871)
(0.00870225 -0.254058 0.459381)
(-0.154673 -0.680635 0.442136)
(-0.14294 -0.830614 0.459282)
(0.0503649 -0.257635 0.0151717)
(0.11893 -0.362487 -0.00148072)
(0.00709699 -0.504281 0.215779)
(-0.0823801 -0.493424 0.242353)
(-0.0676326 -0.953386 0.401608)
(0.0645241 -1.07863 0.268615)
(-0.00458534 -1.01794 0.566972)
(0.0504977 -1.14993 0.308691)
(0.224393 -1.30523 0.143545)
(0.0320038 -1.46605 0.524292)
(0.069196 -1.18244 0.624171)
(0.104138 -1.06619 0.321133)
(0.107473 -0.979687 0.202141)
(-0.094054 -1.035 0.247936)
(-0.00322221 -1.1919 0.139422)
(0.0211105 -1.00581 0.111103)
(0.164253 -1.02466 0.193301)
(0.012693 -0.995349 0.265687)
(0.126362 -0.855706 0.219328)
(-0.0154952 -0.808843 0.305566)
(-0.0191621 -2.47015 0.527175)
(-0.10567 -2.59214 0.405711)
(-0.271737 -2.57983 0.405314)
(0.0781612 -2.66884 0.29854)
(0.172306 -2.62075 0.287254)
(-0.0637735 -2.61883 0.214543)
(-0.128495 -2.27082 0.10792)
(0.0361276 -3.35749 0.8699)
(0.0878374 -3.0152 0.75088)
(-0.091327 -4.80266 0.862849)
(-0.334528 -2.65121 0.479826)
(-0.415873 -1.46081 0.094504)
(-0.0341564 -1.92034 0.222226)
(-0.135075 -3.33346 0.523158)
(-0.123576 -8.28419 -0.406167)
(0.273016 -7.94578 -0.254614)
(0.103235 -7.25976 -0.623447)
(-0.37524 -8.23446 -1.05222)
(-0.536902 -9.02145 -0.937299)
(-0.667764 -9.27973 -1.07272)
(-0.327917 -8.11253 -0.790362)
(-0.00749675 -0.787812 0.0435501)
(0.0267969 -0.717993 0.0619708)
(-0.0110277 -0.756745 0.0291858)
(0.00525243 -0.680967 0.132972)
(0.0711059 -0.635529 0.173818)
(0.0413856 -0.635448 0.157052)
(-0.0106848 -0.662047 0.119229)
(-0.0253027 -0.676319 0.193932)
(-0.00953347 -0.66491 0.134808)
(4.16659e-05 -0.632034 0.245648)
(-0.0386367 -0.564163 0.124269)
(-0.126217 -0.507633 0.185361)
(-0.00856924 -0.51498 0.175645)
(0.0391459 -0.520432 0.0740076)
(-0.0224933 -0.579818 0.170079)
(-0.030202 -0.474154 0.227483)
(0.0505381 -0.383635 0.310079)
(0.0477074 -0.536061 0.283478)
(0.0471123 -0.750039 0.212376)
(0.0274134 -0.503573 0.25919)
(0.0784694 -0.400244 0.322958)
(0.0138765 -0.918414 0.50324)
(0.0165884 -1.1617 0.45836)
(-0.0821664 -0.846056 0.514139)
(-0.0267942 -0.839617 0.442402)
(0.0351477 -0.993255 0.467778)
(-0.101631 -0.548322 0.538402)
(-0.00575804 -0.784505 0.520198)
(-0.000972881 -0.932176 0.449086)
(0.0149343 -1.03746 0.477394)
(0.0171502 -1.09958 0.497278)
(0.0139701 -0.993537 0.499907)
(-0.0355534 -0.964303 0.4988)
(0.00495513 -1.02893 0.46549)
(-0.0327856 -1.02075 0.489856)
(-0.000195007 -1.06864 0.505713)
(0.0159217 -1.14525 0.528874)
(0.00411098 -0.80419 0.586867)
(-0.0753605 -0.785439 0.621106)
(-0.0465025 -0.688837 0.630632)
(0.00898238 -1.00129 0.629741)
(-0.00618753 -0.922075 0.61974)
(-0.0393664 -0.890326 0.662408)
(-0.00295248 -0.758858 0.669484)
(0.00630872 5.05663 2.45246)
(0.0370316 5.31749 2.52187)
(0.0769497 5.44035 2.65571)
(0.0347157 5.05074 2.7253)
(0.0116695 4.97684 2.55932)
(0.115591 5.28447 2.65666)
(0.131796 5.38878 2.77618)
(0.107277 0.0228484 -1.79309)
(-0.338324 0.141675 -2.10129)
(-0.0590346 0.443312 -1.39409)
(0.154956 0.0496521 -1.7972)
(-0.112059 0.325125 -1.98799)
(0.0882482 0.84031 -1.40427)
(0.20563 0.677417 -1.33216)
(-0.0382635 0.748622 -1.93472)
(0.0325312 0.416685 -1.60111)
(-0.181035 1.60365 0.258328)
(0.1981 1.10471 -0.104948)
(0.0772835 1.73058 0.0344874)
(0.281666 1.22971 -0.044956)
(0.222962 1.82882 0.154209)
(-0.130144 1.69938 -0.467428)
(0.00749855 1.92095 -0.0928505)
(-0.00317341 2.26909 0.0605986)
(-0.0477894 2.17854 0.0808126)
(-8.32724e-05 2.35213 -0.014889)
(-0.0339093 2.28792 -0.151916)
(-0.00347167 2.22097 -0.111325)
(-0.0699341 2.25422 0.0256444)
(-0.0252872 2.29002 0.0118483)
(-0.0166921 2.3547 -0.0530221)
(0.0506024 2.34905 -0.0211908)
(0.235526 1.26501 -0.187503)
(0.368722 1.41826 -0.106029)
(0.264528 1.19242 -0.1578)
(0.0162569 2.16726 -0.0998322)
(-0.0823445 1.91278 -4.62579e-05)
(-0.0329666 2.29088 -0.106425)
(0.00518663 1.96114 -0.0330624)
(-0.0499739 2.14474 0.128133)
(-0.0243533 2.34199 -0.123699)
(-0.036541 2.04784 -0.145002)
(-0.0378258 0.424591 -0.856117)
(-0.0179286 0.549854 -0.971596)
(-0.0126313 0.340635 -0.765638)
(0.0875928 0.319263 -0.94937)
(0.107551 0.168862 -0.506445)
(0.101162 0.0234224 -0.455035)
(-0.00166901 -0.0355726 -0.596427)
(0.0734677 -2.14725 -0.0370516)
(0.0378037 -2.14969 -0.0684151)
(0.0328295 -1.95001 -0.179982)
(0.0439856 -2.20167 -0.00347595)
(-0.0719294 -2.26732 -0.0846264)
(-0.0242309 -2.42352 -0.0579497)
(-0.112583 -2.45727 -0.263554)
(-0.205349 -2.46266 -0.162632)
(-0.15877 -2.51164 0.119877)
(-0.0193169 0.791629 -1.26771)
(0.0052842 0.365057 -1.13709)
(0.0386922 0.675519 -1.39331)
(0.0709784 0.488221 -1.13304)
(0.0195843 0.639481 -1.24165)
(0.0326904 0.260513 -1.11852)
(0.0566283 0.521368 -1.24557)
(0.38388 0.0365669 -0.022325)
(-0.117237 -0.238293 -0.0235007)
(0.0672961 0.546122 -0.382834)
(-0.403723 1.2855 1.01425)
(-0.462062 1.2206 0.803418)
(-0.284174 1.33002 0.532709)
(-0.361355 1.72782 1.08884)
(-0.134478 1.9828 0.24476)
(-0.0883544 2.69148 -1.11871)
(0.0530411 1.5898 0.193375)
(0.379795 1.74363 0.448023)
(0.431844 1.78579 0.080964)
(1.54985 2.23107 -0.0251016)
(1.19437 1.85448 -0.294603)
(-0.483311 2.72114 1.28918)
(-0.290724 2.85119 1.34963)
(0.557107 2.23263 -0.709962)
(-0.290541 2.31855 -1.23482)
(-0.227082 2.16052 -0.323841)
(1.01232 2.31405 -0.127375)
(0.0558231 2.34322 -0.892114)
(-0.0217701 2.0591 -0.0205528)
(-0.110371 2.06012 -0.301808)
(-0.0601063 2.12167 -0.488472)
(0.151495 2.20831 0.0047244)
(0.076954 0.0878321 -3.03317)
(-0.204711 -0.172813 -1.82845)
(-0.339819 -0.131883 -0.512226)
(-0.384236 -0.216049 -2.52419)
(-0.0851733 0.376821 -3.15638)
(-0.269436 -0.0633138 -1.96075)
(0.0395148 0.434141 -2.28926)
(0.106207 0.00655141 -0.66782)
(-0.122785 0.127795 -1.09298)
(0.1901 0.00209059 -0.492849)
(-0.165365 -0.0241216 -1.52728)
(-0.0939877 0.223566 -1.78464)
(0.103108 0.91475 -1.89208)
(0.0634816 0.478995 -2.09076)
(0.0179461 1.02833 -1.22295)
(0.0395202 0.482898 -0.86164)
(0.117699 0.714624 -2.98323)
(0.447667 0.668494 -3.00288)
(-0.120768 0.872579 -2.96834)
(-0.124569 0.781339 -2.95239)
(-0.0617416 0.766922 -2.92536)
(0.17765 0.441168 -2.83301)
(-0.0237178 0.663026 -2.86126)
(0.250992 -0.171985 -1.11015)
(0.638123 -0.742503 -0.33331)
(-0.187492 -0.11056 -1.28131)
(-0.13775 -0.712194 -0.747168)
(-0.169471 -0.289793 -1.30412)
(0.479465 -1.26421 -0.987838)
(0.129968 -0.651501 -1.26861)
(-0.124108 0.139754 -0.82714)
(-0.00641031 -0.142247 -0.260395)
(-0.145035 0.0364843 -0.680932)
(0.101546 0.0692507 -0.296095)
(-0.158616 0.0645821 0.317974)
(0.204076 -0.0413697 -1.07429)
(-0.152618 -0.0890734 -0.58788)
(-0.2513 -0.0426294 -0.736204)
(-0.0684591 0.0590249 -0.892671)
(0.270109 0.164559 -1.28113)
(0.402208 -0.169779 -0.939066)
(-0.123654 0.553535 -1.32284)
(-0.138489 0.247811 -0.87988)
(-0.0570351 0.41773 -1.37751)
(0.117601 -0.21782 -0.931481)
(0.0690737 0.0549509 -1.23688)
(-0.0263072 -0.490678 -0.0795554)
(0.00184624 -0.219575 -0.202464)
(-0.00128455 -0.314274 -0.185967)
(-0.0506628 -0.274189 0.167996)
(0.00466464 -0.250308 0.0609895)
(-0.0475207 -0.40432 0.148085)
(-0.0292534 -0.274318 0.025831)
(-0.0492079 -0.407225 -0.0777893)
(-0.0862883 -0.602475 0.0763831)
(0.00885521 -0.462754 -0.564936)
(-0.281638 -0.912963 0.915339)
(0.242907 -0.831526 0.308058)
(0.136389 -0.948204 -0.128536)
(-0.174457 -1.49725 0.132258)
(-0.0413437 -0.444966 0.425892)
(0.102255 -0.85828 0.0814419)
(0.00720324 -2.27102 -0.0968977)
(0.0233523 -2.22333 -0.0765135)
(-0.00344172 -2.24887 -0.0996892)
(-0.0521621 -2.38588 -0.162789)
(-0.0136611 -2.31819 -0.123399)
(0.0163741 -2.25428 -0.0925269)
(-0.0338936 -2.3549 -0.143256)
(-0.0309835 0.0171182 0.187308)
(0.0528816 -0.629797 0.651162)
(0.0253535 -0.323216 0.671154)
(0.176672 0.0863865 0.786881)
(0.0945537 0.226396 0.585148)
(0.109148 -0.392971 0.767063)
(0.046232 -0.0760639 0.694452)
(0.122161 0.731145 0.515874)
(-0.0580176 0.294008 0.478379)
(-0.0841841 0.697541 0.678319)
(-0.018741 0.736316 0.329767)
(0.146014 0.80256 0.434275)
(0.142712 0.80204 0.577927)
(0.0117618 0.771024 0.524952)
(-0.0360658 1.95134 0.309898)
(0.126875 1.35767 0.44506)
(0.137848 1.7462 0.36703)
(0.0287009 2.00486 0.17791)
(-0.172104 1.60341 0.270017)
(-0.0477267 1.64552 0.338256)
(0.0370021 1.83887 0.254466)
(-0.000525695 4.66913 0.693059)
(0.0143613 4.97085 0.614301)
(0.0295521 5.30956 0.510346)
(0.00983811 4.87686 0.719207)
(0.00991057 5.03463 0.68369)
(0.0106608 5.14202 0.584919)
(0.0536844 5.0637 0.707902)
(0.0536551 5.1288 0.682283)
(0.102451 4.92711 0.811148)
(0.0713265 5.17557 0.236178)
(0.037502 4.9973 0.389703)
(-0.0434225 4.52826 0.352628)
(-0.0988859 4.50018 0.311168)
(-0.265058 4.63616 -0.145322)
(-0.162513 4.85145 0.51843)
(-0.0689639 4.98783 0.375323)
(-0.0430223 0.721365 0.0392667)
(-0.0429097 1.4267 0.0592742)
(-0.00540127 1.46801 0.0143347)
(-0.0275874 1.87757 -0.0528374)
(-0.0403315 1.3594 -0.00673625)
(-0.0526198 1.63587 0.0310201)
(-0.0347517 1.56199 0.0431924)
(0.00378325 1.60261 0.17984)
(-0.18578 1.94223 0.0920635)
(0.0221758 1.74104 0.0589777)
(0.0805932 1.63988 -0.0526313)
(-0.0141409 1.68306 0.0609592)
(-0.0844924 1.88799 0.101857)
(0.134205 1.69967 -0.0593257)
(0.0111342 1.81825 0.135689)
(0.032276 1.74046 0.0581655)
(-0.0410296 1.72332 0.0567972)
(-0.0936711 1.85594 -0.0662062)
(-0.000674969 1.88055 0.031736)
(0.0244282 1.76224 0.0217459)
(-0.0658296 1.72546 0.0260548)
(0.0177264 1.8304 0.0362182)
(-0.0234558 2.02039 0.0144014)
(-0.00800628 1.78288 0.0984572)
(0.018825 1.65514 0.0446798)
(-0.0891798 1.65052 0.00948098)
(-0.0594431 1.70196 0.076161)
(0.0143977 1.70363 0.0707463)
(0.0383622 1.88928 -0.00224232)
(-0.028889 1.68896 0.011654)
(0.0706328 1.80028 0.000775804)
(0.0262479 1.43762 0.0367505)
(-0.104645 0.987312 0.0308817)
(0.0283211 1.5366 0.0416105)
(0.339011 0.92548 0.556835)
(0.0591284 0.657318 0.441737)
(-0.0754179 2.44938 -0.272629)
(0.033969 0.49215 0.0812535)
(-0.13886 -0.725756 0.58345)
(-0.16644 0.81619 -0.732393)
(0.00414541 1.51971 -0.701714)
(0.239927 1.98724 -0.153965)
(-0.015564 1.76271 0.506668)
(-0.266809 1.21997 0.3647)
(0.0015627 1.47937 0.0437433)
(-0.0318257 1.14973 -0.0354643)
(-0.41237 0.913369 0.585744)
(-1.39216 -1.69757 1.99405)
(0.869353 0.296833 0.786705)
(0.222441 0.343154 1.15913)
(-0.337042 1.29794 0.406906)
(0.0416517 3.68584 -1.35795)
(-0.0864928 4.69714 -1.94041)
(0.0850581 2.82083 -1.168)
(0.0434657 4.31676 -1.57006)
(0.155944 5.23166 -2.05801)
(-0.134199 4.1006 -1.35478)
(0.0276976 5.75671 -2.24287)
(0.00276994 5.30321 -2.15264)
(0.0751304 3.31788 -1.20853)
(0.0581484 3.56359 -1.14892)
(0.00128032 2.76122 -1.16295)
(0.0931469 3.48703 -1.30285)
(-0.105436 5.79082 -2.01981)
(0.0949492 5.08928 -2.05579)
(0.0484859 3.86907 -1.46049)
(0.0957305 4.88405 -2.23249)
(0.0514187 4.62612 -1.91856)
(0.0344765 2.32406 -1.15122)
(-0.074583 5.04087 -2.00351)
(-0.117176 4.96232 -1.96308)
(-0.0302377 5.03079 -1.85329)
(-0.212254 4.44421 -1.41065)
(-0.166566 4.08214 -1.48521)
(-0.00731879 4.78444 -1.87406)
(-0.213119 4.8867 -1.38317)
(-0.0853113 1.95631 -0.0423571)
(-0.029883 1.39805 0.258826)
(-0.172849 0.705916 0.610298)
(0.166374 -0.221274 0.674727)
(0.119019 1.03409 0.318369)
(-0.130492 -0.0157103 0.717029)
(-0.323321 0.643823 0.648133)
(-0.028159 0.874331 0.460808)
(-0.0407344 0.336905 0.729082)
(-0.0382091 0.010053 0.309443)
(-0.0791355 -0.31917 0.405047)
(0.00788261 0.139218 0.165321)
(-0.0739883 -0.63523 0.322361)
(0.107549 -0.264594 0.201108)
(-0.0885618 -0.5554 0.461794)
(-0.0151895 -0.302372 0.439714)
(-0.0152074 -0.918005 0.451197)
(-0.104939 -0.847366 0.0252814)
(-0.049591 -0.803701 0.240012)
(0.00866735 -1.1438 0.495287)
(-0.0294861 -1.46041 0.492934)
(-0.0709133 -0.954626 0.324457)
(-0.0835084 -0.889738 0.38896)
(0.124195 -0.930309 0.787982)
(0.00521803 -1.3538 0.714017)
(-0.0120095 -0.714592 0.646354)
(0.0417359 -1.55237 0.693116)
(-0.0348579 -1.26295 0.696609)
(-0.0837487 -0.833531 0.588986)
(0.0714308 -1.09473 0.728742)
(0.00744222 -1.00951 0.598442)
(-0.00648188 -0.974438 0.487156)
(-0.0352279 -0.911686 0.433713)
(0.00998184 -1.19182 0.553955)
(0.0233783 -1.19623 0.594962)
(-0.0505441 -0.47109 0.441783)
(0.0260983 -0.538558 0.414739)
(0.0038652 -0.660116 0.428951)
(0.0437353 -0.475221 0.477131)
(-0.0104109 -0.463797 0.469401)
(0.0413496 -0.367521 0.422077)
(-0.0459984 -0.345416 0.484753)
(-0.0500398 -0.294302 0.291837)
(0.0490919 -0.217451 0.172622)
(-0.00987349 -0.376988 0.071114)
(-0.0616576 -0.421808 0.366966)
(0.00453677 -0.331065 -0.0087236)
(0.0144243 -0.268332 0.207707)
(-0.0763949 -0.322116 0.446346)
(0.145188 -2.78254 0.170002)
(0.282497 -3.69009 0.553914)
(-0.0520541 -4.57296 0.71556)
(-0.309776 -4.27636 0.432421)
(0.0677531 -5.64489 0.658903)
(0.0512582 -4.42648 0.549126)
(-0.238976 -3.54465 0.252545)
(-0.0479455 -0.456801 -0.2726)
(-0.0135222 0.139498 -0.108107)
(0.025412 -0.168454 -0.161349)
(-0.0335696 -0.314498 -0.445928)
(-0.00938208 -0.0945878 -0.272141)
(-0.00594482 -0.317405 -0.394847)
(-0.0146631 -0.550952 -0.475977)
(-0.00564456 1.05129 -0.666795)
(0.0324018 0.680089 -0.6481)
(-0.092953 0.302422 -0.759364)
(-0.0280582 0.878274 -1.08202)
(-0.00112637 1.05924 -0.952182)
(-0.00322123 0.726349 -1.10523)
(-0.0130905 0.921329 -0.982522)
(0.0299705 0.681525 -0.780942)
(-0.0317861 0.489499 -0.926739)
(-0.0787041 -0.0147533 -1.42685)
(0.0319245 0.329056 -1.41558)
(-0.0749936 0.452942 -1.51059)
(0.204285 0.629438 -1.21676)
(-0.022828 0.500383 -1.15343)
(0.153533 0.811872 -1.27429)
(-0.0500425 0.764306 -1.12264)
(-0.166357 -0.326167 -0.126027)
(-0.0972478 -0.0743109 -0.156438)
(-0.00997734 0.112356 -0.21684)
(0.0801222 -0.0612357 -0.350489)
(0.0796334 -0.00526687 -0.282064)
(0.0258252 -0.262658 -0.148406)
(-0.0862416 -0.429255 -0.122992)
(-0.04888 -0.0174206 0.046841)
(0.147413 0.0175261 -0.235997)
(-0.0831699 0.196929 0.0950701)
(-0.0568292 -0.0798736 -0.0950916)
(0.191594 -0.172807 -0.294721)
(0.034562 -0.0952671 -0.00365864)
(0.18212 -0.271399 -0.235517)
(-0.219853 0.102073 0.137771)
(-0.372272 -0.276669 0.133357)
(-0.299869 0.00487755 0.110762)
(0.409827 0.503565 0.130083)
(0.79277 1.026 -0.691029)
(0.529357 0.474262 -0.592394)
(-0.289657 0.0443403 0.319886)
(0.0158989 0.35098 0.422428)
(-0.0105097 0.241395 0.416092)
(0.000994638 0.191473 0.455161)
(-0.0158552 0.279826 0.424178)
(-0.017575 0.209005 0.40705)
(0.0011136 0.275198 0.506711)
(-0.0274255 0.263924 0.527245)
(-0.0376601 0.635935 0.78304)
(-0.0548427 0.822549 0.748815)
(-0.00599827 0.601363 0.765046)
(-0.119022 1.20608 0.397235)
(-0.0183842 0.929318 0.40028)
(-0.0592027 1.11595 0.477115)
(-0.149085 0.937372 0.561782)
(-0.0409182 1.32185 0.444864)
(0.0835732 0.838636 0.276585)
(-0.0264898 1.19379 0.216794)
(-0.142655 1.17773 0.321212)
(0.103503 1.46735 0.0523456)
(0.0543392 1.62535 0.11839)
(-0.0302375 1.53006 0.0241037)
(0.119641 1.45822 -0.113398)
(0.109877 1.26684 -0.159076)
(-0.0503267 1.28729 0.2258)
(-0.00563018 1.18555 0.0312861)
(-0.0595485 1.82181 0.274361)
(0.109636 1.90105 0.350468)
(0.0227272 1.57654 0.135929)
(-0.0545457 1.71814 0.184525)
(0.00517492 1.5812 0.184956)
(0.144384 1.7944 0.466668)
(0.442276 1.96527 0.671278)
(0.102105 1.74476 0.447458)
(0.160242 1.83839 0.385874)
(-0.0581427 1.52286 0.167193)
(-0.205083 1.36641 -0.0266241)
(-0.116463 2.13177 0.0362138)
(-0.0374835 2.06873 0.00115424)
(-0.00315025 1.93761 0.228236)
(0.0253845 1.72163 0.0181303)
(0.0896159 1.68016 0.289321)
(-0.194148 2.4058 -0.092441)
(-0.0398191 2.29168 0.0250803)
(-0.0622794 1.43827 -0.00592864)
(0.0633022 2.33102 0.174234)
(-0.0937214 2.09202 0.0548431)
(-0.185801 2.44778 -0.00864329)
(0.0174905 2.34918 -0.0407052)
(0.0488685 2.4174 0.0914268)
(0.0437609 1.98528 0.0159296)
(-0.0273771 2.35994 -0.00180303)
(-0.0324884 2.32249 -0.123233)
(0.124606 1.80375 -0.245167)
(0.059977 1.81394 -0.142109)
(0.0242285 1.74817 -0.0511929)
(0.018542 1.9256 -0.0387498)
(0.0835694 2.08034 0.221067)
(-0.105562 1.8859 0.0230875)
(-0.125105 1.77254 0.030765)
(-0.00867368 2.33623 -0.0505264)
(-0.00323765 2.29758 0.140089)
(-0.0615573 2.24644 0.0398028)
(-0.0809175 2.19224 -0.10719)
(-0.0612604 2.29167 -0.154432)
(0.0112416 2.36711 -0.302612)
(0.00435106 2.05946 -0.0827819)
(-0.0307951 2.0774 -0.200672)
(-0.141866 2.61732 1.23029)
(-0.796954 2.79929 0.801541)
(0.0811858 2.00502 -0.497428)
(0.3882 2.3774 0.621703)
(-0.435463 2.72876 -1.14692)
(0.0133908 2.3367 -1.97218)
(-0.369856 1.43461 -1.27885)
(0.00554357 1.98529 -0.541817)
(0.0995096 2.08133 -0.781503)
(0.0957498 1.93371 -0.587109)
(0.415822 2.51912 0.987176)
(0.19036 2.02165 -0.157139)
(0.0765324 0.98248 -1.41629)
(-0.0197473 1.23425 -1.84347)
(0.0284708 1.39377 -1.49011)
(-0.226641 1.8888 -0.903438)
(-0.00853628 1.93419 -0.950015)
(0.0427361 1.92186 -1.01675)
(-0.0719319 1.44613 -1.00784)
(0.00843073 0.212831 -2.42153)
(-0.240233 0.276241 -1.93951)
(-0.266038 -0.0378089 -1.84799)
(0.0342698 -0.026372 -3.07504)
(0.00335256 -0.00491366 -3.16352)
(-0.0198649 -0.054522 -3.27672)
(-0.0249059 -0.0790076 -3.26791)
(-0.0198575 -0.084822 -3.35043)
(-0.0251734 0.0382138 -3.20044)
(0.0315365 -0.0065208 -3.19916)
(0.0361173 0.370785 -2.65635)
(0.264846 -0.251425 -3.06909)
(-0.0307615 0.517144 -2.82173)
(-0.0250489 0.221175 -3.0449)
(0.0365624 2.37051e-05 -3.0461)
(-0.01509 0.0494145 -3.12974)
(-0.0776341 0.252513 -3.05645)
(0.00619849 0.0324741 -3.04883)
(-0.0370204 0.134587 -3.05083)
(0.0828665 0.418153 -2.46681)
(0.175509 -0.0169203 -1.98369)
(-0.0925937 0.265574 -2.81326)
(-0.0488423 -0.193535 -3.13014)
(-0.0301268 -0.0337397 -3.19475)
(-0.024986 0.0530877 -2.4984)
(0.0200168 -0.0295504 -3.23748)
(-0.0294882 -0.0353231 -3.26703)
(-0.0763061 0.0488873 -3.1196)
(-0.0825931 0.084731 -3.1427)
(0.0361311 -0.0186283 -3.18492)
(-0.002089 0.00572159 -3.20859)
(-0.0147036 0.0671677 -2.91208)
(0.0885495 0.11649 -3.02751)
(-0.117355 -0.0749977 -2.14314)
(-0.0163417 0.0011298 -3.03608)
(-0.01941 0.00452347 -3.13751)
(-0.0445138 -0.104941 -3.05961)
(0.00393574 -0.0114578 -3.12988)
(0.014023 0.0256357 -3.06451)
(-0.0093334 -0.000453098 -3.14377)
(-0.00994667 0.036046 -3.20782)
(0.00562885 0.00697932 -3.1071)
(-0.0287695 -0.0497082 -3.10716)
(0.00807785 -0.116839 -3.02558)
(0.0438892 -0.0209298 -3.01942)
(-0.0331468 0.014345 -3.06033)
(0.0173379 -0.0701746 -3.04677)
(0.0504314 -0.0616201 -2.96198)
(0.0227145 0.00633297 -3.13915)
(0.0691604 -0.0551944 -3.12423)
(0.00205806 0.0421538 -2.96656)
(-0.0598916 0.065528 -3.05832)
(0.0505506 -0.0822099 -3.12827)
(-0.0800572 -0.112007 -3.0597)
(-0.0745041 -0.0708801 -3.20889)
(-0.0447591 -0.554366 -1.94389)
(-0.0687046 -1.00145 -2.03991)
(-0.159199 -0.676773 -1.67008)
(0.117007 0.0890216 -2.94933)
(0.051444 -0.262518 -2.67201)
(-0.0438595 -0.299145 -2.09762)
(0.265291 0.103817 -2.45747)
(0.0821606 -0.356137 -1.9274)
(-0.033609 -0.492105 -0.915591)
(0.00804836 -0.0115034 -2.50887)
(0.0244089 0.134326 -1.78739)
(0.0634064 0.0660046 -2.41482)
(0.0218996 -0.353591 -1.48394)
(0.0792465 -0.398614 -1.85201)
(-0.11792 -0.896144 -0.134226)
(-0.0849627 -0.906643 -0.126851)
(0.00395896 -0.838241 -0.138791)
(-0.0966853 -0.872711 -0.0415267)
(-0.0801859 -0.809466 0.0877042)
(-0.00195552 -0.797326 -0.000840156)
(0.0455391 -0.778175 0.220811)
(0.00735679 -0.971755 0.478418)
(5.15102e-05 -0.94192 0.299796)
(-0.078208 -0.830235 0.804696)
(-0.124149 -1.09586 0.355896)
(-0.11984 -0.784199 0.593757)
(0.0342846 -0.626125 0.718723)
(-0.102135 -0.875527 0.657639)
(-0.0490456 -0.707658 0.526103)
(-0.0268101 -0.733922 0.608405)
(-0.0466064 -0.756685 0.461021)
(0.0620398 -0.69581 0.563033)
(0.0234952 -0.665882 0.536168)
(0.071223 -0.728619 0.444316)
(0.135449 -0.721202 0.443196)
(0.0208794 -0.320021 0.477886)
(0.0444744 -0.589272 0.335425)
(0.039219 -0.480202 0.45857)
(-0.0835144 -0.0943638 0.0481708)
(0.0113457 -0.468378 0.196874)
(-0.0469086 -0.149976 0.184063)
(0.131097 -0.455593 0.375726)
(0.151915 -0.396372 0.443771)
(0.0441724 -0.124795 0.320788)
(-0.197754 0.597172 0.359271)
(0.0461143 -0.133573 -0.0788365)
(-0.0239196 -0.424307 0.305312)
(0.0526172 -0.336165 0.587467)
(0.03391 -0.206311 0.658679)
(-0.036184 -0.279488 0.808917)
(-0.0447544 -0.234899 1.0364)
(0.168231 0.059526 0.363543)
(-0.179548 0.222491 0.680012)
(-0.397907 1.80452 -0.885494)
(-0.00136523 1.17405 -0.397855)
(-0.0418863 1.70788 -1.06308)
(-0.523379 1.68663 -0.525112)
(-0.0789067 1.06665 -0.207281)
(-0.124843 1.82746 -0.940409)
(0.107441 1.45532 -0.53472)
(-0.0713967 -0.363798 0.424704)
(0.00517666 -0.540459 0.5422)
(-0.00208622 -0.420276 0.5476)
(0.0288291 -0.590541 0.51645)
(0.0277406 -0.535049 0.565745)
(0.0340354 -0.467738 0.610052)
(0.0324569 -0.58754 0.565758)
(0.0647247 -0.267328 0.386062)
(0.062395 -0.117603 0.336493)
(-0.0118978 -0.431997 0.391024)
(-0.0240622 -0.0452237 0.419926)
(0.0478579 0.0703537 0.369291)
(-0.0188325 -0.0658056 0.297701)
(-0.0688769 -0.237131 0.409077)
(-0.0432969 -0.48384 0.367552)
(0.00363121 -0.719223 0.478113)
(-0.00178812 -0.545001 0.368646)
(-0.025694 -0.578268 0.485148)
(0.0101966 -0.786156 0.604913)
(-0.0359037 2.06444 0.218038)
(0.264422 0.553528 0.125988)
(0.257079 1.34683 0.0323155)
(0.0649673 1.99505 0.0191176)
(-0.0999681 1.94383 0.237842)
(0.15624 0.827482 -0.0550121)
(0.107899 1.25502 -0.106426)
(0.0366708 4.2861 0.614236)
(0.00994378 4.78281 0.804835)
(-0.0850404 3.86195 0.631575)
(0.0342309 4.8912 1.04655)
(-0.0686029 4.67549 1.09377)
(-0.113691 4.27146 0.807266)
(-0.010507 4.49998 0.808218)
(-0.076509 3.00722 0.455136)
(0.0895102 3.06499 0.379988)
(0.100879 2.90636 0.0185907)
(0.116136 3.09637 0.585672)
(-1.12199 3.62355 0.111113)
(-0.652026 3.32346 -0.154901)
(0.0630258 2.76827 0.425131)
(0.0866942 0.756991 0.0501308)
(-0.00538974 1.04977 0.036579)
(-0.0778318 1.13958 0.172268)
(-0.0157087 1.19849 -0.156452)
(-0.00667864 1.16453 -0.0280014)
(-0.0341824 1.19515 -0.0325473)
(-0.122415 1.31293 0.126895)
(-0.043034 1.26191 -0.0223813)
(0.230363 1.37236 0.177151)
(0.0140999 1.31922 0.0169316)
(0.0911161 1.17801 0.145512)
(-0.130932 1.21819 0.326391)
(0.142294 1.29514 0.109374)
(0.0497302 1.21285 0.0237983)
(0.040058 1.18031 0.0226836)
(0.127619 0.839053 -0.017645)
(-0.0118081 1.26527 0.182467)
(-0.0102424 1.24281 -0.0427749)
(-0.0064821 1.18471 -0.0595303)
(-0.0636576 1.16194 -0.163634)
(-0.0487637 1.24946 -0.114485)
(-0.0409976 1.35677 -0.0319334)
(-0.0030376 1.21186 -0.0169364)
(-0.000238845 1.24362 0.0976295)
(0.000442692 1.28132 0.0682015)
(0.0120198 1.75925 -0.0194317)
(-0.051493 1.29018 -0.0715412)
(0.0269776 1.00305 -0.00493385)
(-0.045999 1.52104 0.0719465)
(0.00998188 1.8291 0.136242)
(-0.0167591 1.89088 0.0279304)
(-0.020074 1.5381 0.0685791)
(-0.0730797 1.41116 0.0981192)
(0.0506308 1.25565 0.0357172)
(0.0159429 1.40735 0.0384182)
(0.0504362 1.68968 0.0582574)
(0.00476614 1.68319 0.0253904)
(0.0267439 1.57844 0.049788)
(0.00704295 5.00811 0.00664594)
(-0.0207206 5.08792 -0.150484)
(0.117389 4.97534 0.0109519)
(0.0933447 4.91462 -0.441631)
(0.227106 4.79681 -0.56424)
(0.222463 4.8481 -0.198961)
(0.122049 4.91477 -0.284512)
(-0.0532662 4.59559 -2.12538)
(0.0688391 4.67764 -1.99693)
(-0.0077733 5.37551 -2.02084)
(-0.196735 4.98061 -1.91325)
(0.0889356 4.81113 -1.58685)
(0.0899127 4.27421 -1.79439)
(-0.135169 4.07738 -1.80177)
(0.00862128 4.37487 -1.82809)
(-0.165159 4.81112 -1.95495)
(-0.119681 4.74106 -2.09797)
(0.0488458 4.4091 -1.66819)
(0.0441006 4.53999 -1.46649)
(-0.0867732 5.02918 -1.78604)
(-0.0179462 4.89029 -2.0233)
(0.0714492 5.29142 -2.46807)
(-0.042464 5.54637 -2.25974)
(-0.0307328 4.51 -2.00422)
(-0.0072044 3.68754 -1.21663)
(0.03466 3.79297 -0.981665)
(0.111079 3.65413 -0.854944)
(0.0686075 4.11766 -1.53111)
(0.248367 4.05451 -1.54311)
(0.239346 3.79958 -1.47567)
(-0.0121164 4.18651 -1.63651)
(-0.0176584 5.05734 -1.23351)
(-0.135401 5.02109 -1.58656)
(-0.0473045 4.78803 -1.11934)
(0.0587723 4.71216 -1.91228)
(0.00215854 4.4841 -1.17243)
(0.066525 4.34592 -1.43155)
(-0.148102 2.83568 -0.544483)
(-0.140534 2.90843 -0.641967)
(-0.193031 3.79713 -0.959867)