/*--------------------------------*- C++ -*----------------------------------*\
| =========                 |                                                 |
| \\      /  F ield         | OpenFOAM: The Open Source CFD Toolbox           |
|  \\    /   O peration     | Version:  v2012                                 |
|   \\  /    A nd           | Website:  www.openfoam.com                      |
|    \\/     M anipulation  |                                                 |
\*---------------------------------------------------------------------------*/
FoamFile
{
    version     2.0;
    format      ascii;
    class       volScalarField;
    location    "0.3";
    object      p_rgh;
}
// * * * * * * * * * * * * * * * * * * * * * * * * * * * * * * * * * * * * * //

dimensions      [1 -1 -2 0 0 0 0];


internalField   nonuniform List<scalar> 
6576
(
2802.92
2777.39
2786.43
2791.38
2807.93
2815.34
2790.76
2794.64
2809.82
2799.98
2841.9
2824.88
2813.52
2822.34
2789.49
2795.28
2761.98
2789.32
2792.34
2840
2770.56
2830.21
2834.26
2787.15
2818.79
2850.14
2899.19
2813.52
2772.67
2777.53
2797.02
2758.17
2796.5
2820.05
2813.08
2834.77
2808.82
2836.95
2794.07
2816.25
2780.5
2772.97
2800.01
1692.46
1499.51
1721.33
1546.64
1611.21
1772.17
1743.53
1606.26
1738.75
-7.31227
-5.33048
-3.07455
-3.55182
-9.01093
-4.88815
1.56392
-0.729643
-2.74188
-1.75897
-1.73989
-0.899446
-0.365913
-1.43784
-2.18904
-1.84001
-2.09188
-1.69674
-2.02612
-1.73317
-2.13722
5.21141
5.45108
5.43271
5.12292
5.11769
5.10554
5.05539
6.23847
6.23192
6.36216
5.99334
6.17609
6.03056
5.95264
10.2957
11.2433
11.9998
11.7407
10.8509
9.59845
9.0549
62.0674
48.0699
66.2855
26.6176
28.7563
54.2391
62.6582
537.19
891.941
591.749
580.669
598.989
483.58
560.363
1839.78
1774.39
1668.1
1684.07
1711.41
1864.87
-0.141993
0.0134619
-0.232313
-0.202549
-0.258392
-0.312212
-0.315554
1556.68
2419.46
2510.83
2583.6
2480.76
2707.59
2637.6
0.565538
-0.188349
0.0425749
-0.51482
-0.396613
-0.605848
-0.735097
-0.575252
-0.440605
-0.633275
-0.694995
-0.316347
-0.191537
-0.52414
-1.86511
-2.07296
-1.68556
-2.47228
-1.93681
-1.63919
-1.97917
-2.06472
-2.05167
-1.95482
-1.91452
-1.91176
-1.94107
-2.0097
-2.33507
-2.26742
-2.68149
-2.44916
-2.45907
-3.04424
-2.8692
-2.81466
-2.731
-1.96453
-1.79727
-1.98425
-2.15138
-2.01779
-1.96416
-2.08383
-2.05625
-1.84614
-2.1823
-2.3059
-2.14007
-2.56302
-2.6365
-2.45059
-2.52592
-0.340055
-0.199669
-0.320944
-0.383663
-0.245566
-0.380653
-0.548544
-0.486736
-0.290856
-0.0577924
-0.0831843
0.0187057
-0.156802
-0.134372
-0.0898514
-0.0846611
-0.0542536
-0.0556429
-0.314395
-0.0298955
-0.107233
-0.0511751
-0.155762
-0.0938362
0.000771985
-0.250096
-0.247307
-0.0863622
-0.00737564
0.0838766
-0.472828
-0.632713
-0.834004
-0.46126
-0.451227
-0.742114
-0.888152
-0.101528
-0.0611964
-0.110557
-0.14547
-0.166276
-0.159293
-0.163241
-0.223018
-0.147091
-0.190412
-0.177976
-0.242725
-0.213031
-0.153219
-0.326258
-0.425582
-0.425367
-0.259026
-0.230351
-0.36112
-0.357674
-1.0104
-0.912916
-1.10168
-0.818969
-0.760414
-0.987404
-0.933844
-1.54938
-1.67497
-1.59027
-1.31502
-1.46101
-1.38916
-1.51825
-1.61194
-1.51057
-1.93027
-1.93923
-1.95209
-2.00239
-1.91953
-1.99865
-1.95028
3.41862
13.2349
2.15293
5.1712
12.9911
15.6445
-1.42007
1325.19
1300.5
1255.3
1382.68
1273.65
1273.18
1423.27
1255.86
1401.76
1252.71
1312.51
1244.81
1237.47
1181.67
1196.58
1126.11
1047.84
1141.06
947.586
970.138
977.982
897.063
711.734
885.558
829.693
1351.12
1324.6
1339.19
970.948
977.841
930.796
1002.13
985.165
952.907
985.514
1.97962
2.78648
2.30162
2.22721
1.64933
2.02828
3.0113
172.297
70.2983
21.6561
44.3409
43.9225
23.2398
32.1492
31.3066
23.1556
0.462412
0.638075
1.49202
0.233723
-0.337406
0.0617779
0.333188
253.733
229.232
219.809
184.224
177.205
220.16
252.994
499.738
624.854
293.843
687.381
570.457
688.563
521.172
487.446
611.311
983.57
1033.96
1028.69
1009.59
1056.41
1019.37
1108.48
1095.96
982.1
1041.98
1184.66
1022.1
1119.88
1183.97
1028.83
1193.42
1419.08
1356.02
1418.8
1396.8
1312.97
1182.5
1339.19
1350.23
1458.59
782.33
407.059
595.787
639.064
693.019
657.639
880.97
121.73
41.5857
93.0178
73.0759
126.38
56.3867
112.326
2.75343
2.75178
2.867
2.39142
2.8907
2.68045
2.87391
2.89253
2.72854
2.89254
3.71395
2.98006
3.00335
2.9402
3.43932
2.94023
2.84435
2.99832
2.99856
3.602
3.66847
3.88258
3.52623
3.06556
3.46034
38.6794
56.4479
147.979
118.195
35.8943
18.2449
135.254
1452.1
1461.33
1477.47
1282.91
1386.67
1359.86
1483.21
-1.40623
-1.30923
-1.26523
-1.46972
-1.44415
-1.35826
-1.32074
-1.36709
-1.21235
-1.26795
-1.27947
-1.4132
-1.33404
-1.22429
-1.78678
-1.67088
-1.65343
-1.80533
-1.93069
-1.79063
-1.74363
-0.764177
2.96905
2.91214
1.42842
5.46944
23.0692
10.8942
13.2565
6.85027
11.0453
36.6372
60.9224
66.6292
32.8076
34.4449
4.81866
39.1352
97.2378
83.0469
41.2058
53.6695
66.4943
80.5254
40.9009
42.7449
82.7691
87.3695
87.7262
84.9099
92.4302
34.793
40.7058
53.7588
40.6677
32.5204
42.1555
58.6155
48.4119
37.955
45.8293
34.5757
35.9248
49.9868
37.3068
33.629
50.9583
32.1196
35.6557
37.349
82.6383
1.13633
1.67438
3.63017
4.69087
1.05127
1.63021
2.6141
2.42276
1.39191
0.907185
2.3742
5.95004
1.06193
4.338
2.52428
0.747559
0.507563
0.0351321
0.76272
0.814861
0.121636
-0.16666
0.109246
-0.0347273
0.265052
0.174271
0.165829
-0.016495
-0.119338
-0.0967585
-0.0838209
-0.208786
0.280787
-0.0799139
-0.577447
0.00488217
-0.0299735
-0.00928582
-0.0474254
-0.0348573
-0.0294708
-0.0293963
-0.498918
-0.519442
-0.625912
-0.464802
-0.399175
-0.495604
-0.432104
-0.491541
-0.573653
-0.798643
-0.876219
-0.758083
-0.676326
-0.639237
-0.743543
-0.706856
-0.622632
-0.571421
-0.648861
-0.638387
-0.562023
-0.547415
-0.629353
-0.965598
-0.904003
-0.944029
-0.815692
-0.784679
-0.824483
-0.861585
-1.50239
-1.66106
-1.60426
-1.33157
-1.49581
-1.5424
-1.69217
-1.46003
-1.29739
-1.115
-1.49423
-1.34598
-2.20477
-2.46522
-2.20091
-1.79946
-2.05289
-2.14107
-1.83275
-0.965682
-1.31528
-0.908881
-1.292
-0.338432
-1.08526
-1.39969
0.71006
0.581175
0.409614
0.213615
0.187144
0.28428
0.4296
0.334233
-0.356114
0.00350339
0.288013
0.752559
-0.0507233
-0.47908
-0.420339
-0.175226
2.01507
2.3026
2.5328
0.955042
0.0185879
0.974695
1.43132
5.48596
3.69256
5.60294
2.17357
3.28686
3.60409
4.07339
14.8553
12.8748
21.8923
7.91217
4.8056
18.7936
12.8262
87.8736
64.5342
48.4171
29.1333
14.703
36.3322
39.2441
142.325
85.0476
176.792
306.947
81.3027
762.777
286.663
890.085
987.736
631.348
444.588
379.814
694.67
839.552
485.511
458.92
418.735
437.271
584.298
486.851
532.42
459.834
505.531
465.714
491.116
493.402
494.728
451.251
432.521
469.338
464.085
442.917
464.438
447.265
468.927
421.919
422.303
433.157
434.404
452.123
454.102
665.056
603.525
678.62
555.408
474.664
590.835
955.751
1011.33
957.068
955.097
1098.89
889.169
803.897
914.731
1000.67
911.12
1089.41
955.648
944.702
955.185
1150.57
1183.9
1220.39
983.655
1045.91
1070.98
650.669
881.751
794.818
765.765
940.195
938.462
811.145
1132.32
1072.08
1011.84
945.777
931.336
1247.71
1226.04
1198.97
1233.05
1107.62
1220.77
1287.78
1207.05
1237.58
1356.76
297.509
500.494
416.891
458.598
450.009
531.569
277.786
1041.34
759.453
816.336
819.474
842.682
675.23
521.049
734.985
707.821
1206.15
926.323
915.123
-12.001
130.195
-89.9435
185.163
134.297
69.0916
66.3694
151.505
103.17
501.436
533.909
515.858
552.03
533.047
522.818
267.694
639.495
615.246
520.375
87.2246
78.3795
31.9918
214.289
104.72
82.6567
183.904
216.343
154.422
181.797
187.023
95.5092
112.591
209.485
70.485
132.492
48.8232
124.05
161.366
112.553
101.311
36.0146
11.025
34.7985
23.7099
29.3186
25.3425
48.4855
5.99634
5.83676
5.55448
5.714
5.73944
5.44247
5.4381
7.32451
6.94015
6.775
6.42462
6.79768
6.62167
6.87636
5.75081
5.724
5.95496
5.12494
5.60541
5.50941
4.93701
4.25264
4.46628
4.4647
4.4003
4.57583
4.38852
4.52031
4.48318
4.29951
3.60624
3.73804
3.88981
4.11361
4.0693
4.02879
3.94802
3.8712
3.73088
3.34677
3.4338
3.6824
3.4741
3.93983
3.76332
4.03
-3.33869
-3.09218
-2.88767
-2.65304
-2.57243
-2.69575
-2.95395
-4.49223
-5.43142
-4.97329
-4.24662
-5.03936
-5.06857
-4.18658
-2.86073
-2.43383
-2.63975
-2.56215
-2.4505
-2.89978
-2.59847
-2.62586
-2.4482
-2.96855
-2.76361
-2.6133
0.760452
-0.38061
-0.0652498
15.2484
4.9057
4.05765
4.79918
9.44294
43.7695
15.9855
44.922
4.23131
23.3048
47.5758
31.4219
49.4391
40.1482
18.123
31.3932
7.19578
27.7386
42.97
40.9898
24.4965
13.0536
20.4882
13.5977
44.5229
62.7032
31.9351
52.2027
28.7622
53.2698
26.5412
45.4721
79.809
50.6221
47.1039
65.813
35.1016
24.0118
44.0062
64.696
73.7329
62.5947
69.7125
54.3939
73.9933
56.7382
96.4971
48.4967
120.977
4.28813
-0.139627
-0.0987166
1.07602
-0.422211
-0.305957
3.19945
1.16977
0.430315
1.49093
2.18849
0.978986
0.505958
1.90293
-0.0715158
0.151324
0.0514706
-0.107663
-0.0705836
0.0571199
-0.0179411
-0.047044
-0.00229963
-0.0115787
-0.187723
-0.207375
-0.276928
-0.139842
-0.196466
-0.218065
-0.152979
-0.0769633
-0.034562
-0.00736324
-0.0733402
-0.0444984
-0.0494053
-0.0684394
-0.0161202
-0.0531331
-0.0403661
-0.0699068
-0.0870201
-0.0262262
-0.0243799
-0.00972698
-0.0388682
-0.0597543
-0.0442064
-0.0233194
-0.0312577
-0.0527575
-0.0437677
-0.0380952
-0.0653431
-0.0622188
-0.032569
-0.256677
-0.307594
-0.224538
-0.187448
-0.16366
-0.225866
-0.250541
-0.200674
-0.175619
-0.530669
-0.510519
-0.615955
-0.451603
-0.537367
-0.579155
-0.502715
-0.331987
-0.260701
-0.338216
-0.160004
-0.182302
-0.236491
-0.230956
-0.291262
-0.456704
-0.546727
-0.188018
-0.155164
-0.187454
-0.356012
-0.320109
-0.43082
-0.154676
-0.301757
-0.180112
-0.665335
-1.07856
-0.590341
-0.562665
-0.491161
-0.331402
-0.505454
-0.976108
-0.374376
3.79629
3.35662
3.36202
3.42783
3.29478
4.91197
9.11807
3.13284
4.91433
-1.11009
-1.13756
-1.23402
-0.952044
-1.37146
-1.32384
-1.36817
1.59648
-0.13726
1.5223
1.41247
0.239409
1.39554
-0.191581
-2.73909
-2.87445
-3.2714
-2.52766
-3.24501
-3.54215
-4.218
-4.04755
-3.05774
-1.86838
-2.80948
-1.60918
-3.04402
-3.29351
-1.77398
-2.04209
799.36
808.969
821.592
780.866
791.124
784.566
768.395
726.074
345.038
206.827
665.752
699.102
289.082
647.72
-55.45
36.6009
543.416
549.611
502.872
615.103
533.478
604.23
351.396
734.259
810.281
934.103
781.348
744.833
643.977
501.15
609.178
825.781
502.712
540.192
484.352
464.233
484.402
441.64
442.626
72.9573
103.821
210.354
209.663
151.249
139.789
162.227
458.684
167.537
252.907
116.596
108.441
93.5754
45.7817
28.4572
27.719
85.692
195.528
150.138
135.481
28.7694
33.2859
-0.788182
9.87401
-4.56809
1.31604
104.929
192.424
37.0947
47.6638
76.4677
36.2704
48.6216
99.839
94.3624
91.3219
136.574
102.943
44.7662
111.734
58.6861
69.5162
57.7304
10.1018
9.28671
13.6869
12.5667
13.805
11.5342
9.00856
11.5684
5.06314
11.6784
6.99236
11.1947
7.93058
10.8644
6.20716
5.37376
5.4146
5.95695
7.97054
5.6212
6.54185
5.22575
5.31752
4.98897
4.96102
5.29812
5.39274
5.44927
126.166
31.8433
520.181
54.4458
508.274
23.0441
457.813
486.317
638.609
794.514
779.642
795.202
796.553
738.907
11.6287
13.4278
12.3637
26.9839
17.1591
12.6241
19.3231
7.08938
5.31156
6.8419
8.60102
5.61479
5.97705
6.76157
5.99015
5.8976
5.44503
5.38718
5.58228
5.96772
5.87676
-0.721117
-0.639475
-0.983812
-0.927642
-0.786132
-0.728588
-0.97906
-2.52328
-2.21857
-2.335
-2.35908
-1.64115
-1.74489
-1.46986
11.5967
17.1435
12.3974
17.904
19.1061
17.8367
18.7503
10.8716
16.6121
13.5651
11.3852
19.3477
11.7972
9.59867
5.75216
13.2444
5.90177
15.3309
2.34904
4.61151
3.67706
5.35296
2.15542
24.9841
5.81572
4.43621
8.31283
10.486
6.90635
6.3047
119.791
114.15
101.888
71.2747
66.486
86.952
92.3696
101.18
31.3668
102.839
101.147
97.0635
121.649
71.2834
30.0531
23.0121
32.1787
9.53454
4.16442
4.53448
11.0792
5.69447
15.7714
-3.24273
12.636
-8.21237
23.2369
-1.45523
25.0221
30.9554
12.7215
29.8232
36.3168
11.768
51.4944
45.5002
5.53635
25.8106
7.03147
6.3576
26.8401
72.5425
54.3663
54.7566
2.33843
5.30264
4.33923
2.07242
7.22758
0.0996047
-1.14544
-0.189495
2.05231
0.72008
-1.04172
1.64949
-1.50584
-0.23039
-0.822247
-1.48581
-1.83453
-1.6379
-1.65243
-1.25378
-1.65065
-1.42944
-1.49178
-1.65963
-1.36702
-1.2209
-0.489459
-0.440829
-0.397564
-0.512546
-0.61578
-0.178773
-0.222459
-0.226528
-0.185855
-0.225264
-0.214849
-0.256879
-0.600245
-0.51466
-0.493563
-0.46239
-0.496408
-0.527003
-0.586088
-0.2241
-0.190196
-0.239528
-0.23292
-0.185383
-0.225
-0.266164
-0.0492518
-0.0910102
-0.0524657
-0.0427497
-0.0218963
-0.0499608
-0.0969608
-0.0617368
-0.077574
-0.137332
-0.0334508
-0.0118234
-0.080178
-0.0116521
-0.0154913
-0.0224104
-0.0339954
-0.0425123
-0.0934204
-0.0524382
-0.0219453
-0.0151547
-0.00858498
-0.0347315
-0.0324386
-0.0102297
-0.0232231
-0.0408666
-0.0305999
-0.054639
-0.0146115
0.000974482
-0.0155711
-0.00457363
-0.00513226
-0.0141301
-0.00811082
-0.024968
-0.0738313
-0.00144097
-0.0485875
-0.0448189
-0.0237824
-0.0122958
-0.00605362
-0.0434242
-0.0295036
-0.0402853
-0.0518128
-0.0442141
-0.0411383
-0.18866
-0.0748354
-0.111144
-0.11247
-0.126541
-0.0938892
-0.148509
0.405882
0.669962
0.446435
0.120856
0.0352519
0.193972
0.27088
0.419612
0.505297
0.562992
0.467272
0.766672
0.451882
0.660816
0.0512579
-0.00161207
-0.0264829
0.153386
-0.0810221
0.0594519
-0.0402103
20.203
18.8501
20.7901
20.2454
20.9178
20.1845
20.6171
20.464
19.911
19.0174
7.19684
2.53561
15.305
19.0799
9.4087
6.55952
0.594921
6.66552
4.57643
6.04852
6.64479
3.83667
3.87309
-1.60134
-1.48854
-1.60571
-1.66153
-1.58729
-1.67009
-1.7036
-1.62691
-1.7217
-2.10209
-1.79169
-1.78155
-1.85763
-1.99667
-1.75476
-1.84249
-1.8359
-1.78332
-1.46703
-1.77842
-1.82265
-1.90678
-2.01132
-1.38481
-1.61542
-1.5715
-1.73082
-1.5398
-1.1745
-1.06553
-1.36799
-1.30481
-0.962328
-0.720746
-0.95364
-0.553308
-0.525256
-0.758907
-0.850364
4.9127
10.5108
14.324
5.2949
5.04669
3.88868
7.41127
7.61635
7.18731
8.98265
17.443
11.986
18.2073
16.3406
37.4136
23.5788
30.6736
40.0155
34.3353
34.174
30.6254
790.362
820.78
808.638
557.098
779.497
850.914
872.843
1115.86
985.927
982.189
717.701
1034.55
1083.6
696.417
806.83
834.705
758.485
894.347
54.0532
835.375
782.39
796.267
811.445
780.071
409.834
454.294
0.235367
34.7926
-15.6702
238.117
581.183
502.263
569.651
8.30034
11.0637
9.93045
9.57755
7.34174
6.43026
7.85952
99.3321
127.1
61.8264
98.1752
72.24
31.1002
100.528
106.879
92.617
45.2669
85.3948
125.07
145.974
78.3504
60.3746
93.0211
148.967
126.235
81.6993
93.8846
31.6981
43.5315
13.2353
30.0268
44.1396
44.2751
20.5047
23.0604
9.89409
10.14
11.4265
15.3687
10.8893
10.5701
8.17415
8.10336
8.141
8.06061
8.04061
8.00256
7.95061
71.9886
38.2871
76.5258
43.1101
38.9426
17.4498
25.5361
24.9194
18.8393
4.04641
7.27716
3.21215
111.584
44.1662
146.506
67.5034
7.48846
8.20696
8.04066
8.26092
8.09706
8.23847
8.01901
8.34018
8.25158
8.24093
7.80826
7.62186
7.9724
7.6236
7.55903
7.82135
7.55891
7.81886
7.03215
7.01753
7.14177
7.11316
7.09433
7.2564
7.23083
1.63671
1.78167
4.37017
0.298071
0.555445
3.51177
2.65446
4.55353
3.53641
9.99532
3.58873
7.06844
7.09368
4.92167
153.577
89.7799
213.606
136.975
137.907
207.439
106.956
90.875
126.794
132.59
123.141
118.951
145.712
85.9472
165.667
154.302
144.579
162.58
130.635
44.3659
114.311
117.818
102.515
94.3495
171.686
226.171
146.886
228.271
140.646
90.2848
38.0536
111.545
56.1138
97.8163
48.2388
86.0084
67.6845
9.31658
5.56239
19.8649
7.35249
5.75768
21.7652
17.8715
19.2693
16.4528
23.6387
19.3649
20.3525
38.0727
21.9526
20.8325
48.9765
49.2271
49.7743
51.0755
11.136
7.17358
6.76205
22.7775
21.2774
46.9686
11.8798
1.64451
-1.32252
-1.3443
1.03824
7.76701
-0.514101
6.03825
-1.09523
-0.98406
-1.08543
-1.17496
-1.07409
-1.26204
-1.12034
-0.263511
-0.200083
-0.275724
-0.173111
-0.171984
-0.233395
-0.234634
-0.0123195
0.000449414
-0.0309607
-0.0436079
0.0111329
-0.039697
-0.0462456
-0.0608019
-0.0491009
-0.0252699
-0.0171106
-0.0174721
-0.0343918
-0.00442799
-0.0143587
-0.00466327
-0.018827
-0.0270817
-0.0170202
-0.014068
-0.0314532
-0.0259136
-0.0415894
0.0385664
-0.235238
0.11471
0.0366264
0.0271535
0.170573
-0.255591
0.0693425
0.00248478
-0.50626
-1.20456
-2.2142
-1.6307
-1.49699
-1.8232
-2.17494
1325.06
2404.51
2706.19
2656.93
2707.08
2596.89
2535.46
-0.905896
-1.66927
-1.83802
-1.82884
-1.44894
6.03262
18.39
4.05782
46.9263
5.8224
44.8758
16.5548
150.835
20.3835
-0.683454
-0.207669
-0.446214
-0.200904
-0.120344
-0.148351
-0.293742
1.29347
0.50491
3.01698
0.191164
-0.22954
1.41503
7.32743
0.976925
0.190489
-0.271238
0.108917
0.00832653
-0.227805
-0.201654
-0.179067
-0.219236
-0.221467
-0.316379
-0.267191
-0.178406
-0.212284
-0.258949
-0.221858
-0.539034
-0.666681
-0.700038
0.65048
-0.0618205
-0.34594
2.11133
-0.856824
-1.12098
-0.832751
-0.896535
-1.03634
-0.835475
-0.711758
-0.358121
-0.445242
-0.597615
-0.382709
-0.432825
-0.510378
-0.676848
3.54691
0.175515
0.377079
7.02039
0.875447
-1.2839
-0.50101
0.346816
0.353321
0.860984
-0.213795
-0.338117
-0.138288
-0.141185
146.791
186.054
166.888
392.833
154.731
324.229
412.315
22.3365
54.1348
26.6106
329.07
94.2834
19.0746
41.4313
102.197
617.161
104.436
360.435
676.482
539.074
661.315
635.161
566.423
539.869
648.404
584.147
667.085
702.353
564.775
649.697
639.73
471.885
575.337
1010.77
687.731
577.393
624.57
654.18
324.312
388.549
46.5456
125.989
59.5857
89.2286
135.083
63.8255
72.9183
722.382
822.315
1070.9
845.878
944.46
1069.81
114.189
101.753
166.757
250.087
208.735
98.0493
257.203
5.29616
5.12606
5.26581
5.54933
5.45747
5.43792
5.40392
5.12376
5.33631
5.09939
5.1238
5.18746
5.37915
5.16955
5.74519
7.55137
17.4829
12.0037
5.99997
3.57941
8.85991
-9.9442
5.80922
13.4701
14.7004
-9.47983
10.4328
45.0022
1160.56
675.914
1322.18
568.023
730.597
646.378
1017.57
11.5434
-223.849
-4.00279
161.838
245.8
167.838
4.43049
4.61819
4.9694
4.71431
4.68385
5.08406
5.04314
5.39964
5.24601
5.92411
6.1384
5.76578
6.78637
6.80904
8.98269
9.29141
8.89516
11.1771
12.3287
11.6082
9.51207
600.996
20.1369
228.354
528.887
567.188
62.0024
261.331
157.494
237.56
249.893
181.303
262.676
144.701
167.743
174.442
119.001
236.302
9.67002
6.57672
6.86654
10.5338
8.18451
7.70484
6.48415
9.45713
7.18135
5.80819
5.40912
6.56273
4.09319
4.1534
2.78753
1.66299
6.05585
5.99126
6.21056
4.86798
4.35924
2.35703
2.44163
3.00057
1.80416
2.09321
2.11158
2.4943
-4.36678
-4.30375
-4.46605
-4.02188
-4.85917
-4.87769
-4.39775
-3.18345
-2.55124
-1.85827
-3.41098
-2.71037
-1.68601
-1.73519
-0.148737
-0.423701
-0.621455
-1.27032
-0.500862
0.805146
0.953012
0.199028
0.555612
0.961551
0.87478
0.378558
2425.59
1620.15
2430.21
2119.11
1450.65
328.489
2297.64
2.63985
9.138
10.3523
2.34152
2.98706
3.48401
5.06144
0.681998
-0.601976
-0.272053
0.0138975
-0.119608
0.151094
1.59139
-0.374359
-0.414419
-0.402434
-0.103086
-0.0287905
-0.0883788
-0.0355298
-0.0952937
-0.068833
-0.103183
-0.0878304
-0.00907481
-0.0725037
-0.0244203
-0.0676431
-0.0117119
-0.0579861
-0.0551841
-0.075792
-0.0222071
-0.0038665
-0.0088381
-0.0489783
-0.0371204
-0.0447683
-0.0465949
-0.0881868
-0.117202
-0.0879179
-0.0694498
-0.0963628
-0.0838867
-0.0590851
-0.314057
-0.27764
-0.226911
-0.263564
-0.285145
-0.285657
-0.282378
-0.0432696
-0.0530345
-0.0412349
0.0115769
-0.0486968
-0.0475543
0.0335965
0.391418
0.287307
0.499326
0.401857
0.257798
0.287445
0.397777
2.57419
5.05069
1.4324
2.20046
1.61558
3.24731
1.82314
4.56023
2.59627
15.307
13.8465
12.9609
14.7683
14.1449
12.582
14.4297
28.3275
34.2692
87.4958
35.8645
67.8662
17.4411
79.6104
116.205
117.599
52.8703
67.2329
64.4391
58.5858
50.3399
61.679
40.5936
58.6068
306.967
338.551
195.443
127.83
336.645
282.765
390.997
175.364
317.133
42.3825
177.154
68.6745
387.249
240.962
158.845
403.656
509.988
574.204
552.131
2.02049
1.99177
0.801911
2.62239
2.62161
3.82695
1.6604
8.45266
8.77949
2.59563
2.70666
3.35488
5.87377
5.95839
3.90912
3.91907
3.69469
3.90496
4.09967
4.92462
4.66828
4.96882
4.73952
4.33276
4.50973
4.74129
4.21651
4.33536
4.38102
4.58412
4.50806
4.43672
4.3628
4.45811
4.58144
4.61152
4.34172
4.21295
4.93292
4.91833
4.98523
5.11642
5.26491
5.03558
5.15452
4.99692
4.96338
5.21352
4.65655
5.13637
4.52943
4.93274
9.98908
9.80205
9.85608
7.80961
8.02458
6.34466
7.27535
634.12
351.768
548.063
3471.5
1452.62
2475.79
2479.77
1764.22
3439.14
2459.62
2486.94
516.925
2592.28
1969.89
2573.26
2777.1
1046.9
460.596
423.294
391.389
479.722
-348.5
235.86
952.263
4493.43
2863.28
880.535
693.76
329.845
299.481
653.155
814.751
806.862
870.585
617.125
692.685
12.4326
11.4509
13.1083
7.89194
8.64916
9.60425
8.20186
6.31042
6.42982
6.44615
6.44316
6.58734
6.52522
6.40487
5.6918
5.60738
5.89697
5.96474
5.72825
5.74264
5.9637
0.505623
1.91811
-0.749353
1.71268
4.00429
1.16678
2.28136
-0.464466
-1.96743
-1.03764
0.467817
-0.809906
0.80981
-0.660388
2.19077
0.549584
1.40262
0.79512
2.02895
2.82578
2.68792
2.53607
2.08203
5.55448
1.79867
1.84213
3.43134
3.19165
-0.271438
0.155184
-0.353733
-0.0282304
0.0653688
-0.516456
-0.515961
-0.300571
-0.080955
-0.216254
-0.108791
-0.0740304
-0.146952
-1.92601e-05
-0.121827
-0.0932899
-0.211513
-0.0780628
-0.247335
-0.13384
-0.257462
-0.247621
-0.264152
-0.0639628
-0.0921318
-0.104397
-0.0809876
-0.100655
-0.101532
-0.0847461
-0.0362959
-0.0485752
-0.0318096
-0.0479556
-0.0150608
-0.0451181
-0.0208081
-0.0415768
-0.0344146
-0.0446887
-0.0467545
-0.00624025
-0.0280545
-0.0214583
-0.0704293
-0.0105341
-0.0687597
-0.0383236
-0.0455031
-0.0242274
-0.00772233
-0.0254028
-0.0928998
-0.0610048
-0.0849445
-0.0832976
-0.684456
-0.624562
-0.789403
-0.74529
-0.679864
-0.836668
-0.971552
-0.794846
-0.898173
2.43649
0.780535
1.50421
1.55937
1.03659
2.3774
2.28469
9.26799
10.3262
10.6706
2.76543
6.87448
5.2756
11.1314
94.8826
104.468
89.8591
78.4525
97.635
40.0226
33.3673
75.5609
109.117
101.106
111.057
98.7088
97.4174
82.0027
44.0292
105.325
32.2449
78.0717
71.5201
75.1921
45.3629
19.101
29.9547
95.7586
59.929
168.747
-0.896556
-0.680667
-0.447998
-1.11851
-1.06362
-0.927803
-0.801989
-1.55586
-1.40033
-0.760586
-1.38777
-1.73341
-0.448075
-0.997541
0.225847
0.283074
0.281877
0.123688
-0.26928
-0.0443232
0.0731295
1.11307
0.0191518
1.04664
2.21455
-0.0121805
0.231882
2.02452
3.35189
3.40966
2.95213
3.49971
2.72968
3.8896
3.09216
2.98999
3.00741
3.20726
3.0136
2.88675
2.90213
3.07641
2.36006
2.13886
2.3233
2.77612
2.36887
1.90731
2.07545
2.94075
2.96611
2.80906
2.53532
2.68067
2.77112
3.00522
2.99056
2.97553
2.53117
3.0703
3.28115
3.75581
3.84563
4.00915
3.85812
3.68963
3.9632
3.77081
3.75665
3.74788
4.08556
3.84694
3.73045
3.81079
4.03736
1866.46
872.893
655.83
424.58
410.607
1059.45
-171.934
179.731
-207.466
59.8334
-749.444
123.529
868.866
213.266
217.409
-493.306
-89.3604
273.164
128.01
-360.197
100.122
-194.576
80.1129
-178.198
-151.026
-12.0221
124.803
255.8
61.6323
510.954
856.575
155.225
271.54
834.611
785.899
738.857
734.516
921.63
699.553
781.154
830.146
825.95
710.024
701.756
802.701
782.839
785.587
828.427
933.415
861.664
626.165
748.529
796.866
41.173
36.5366
42.5848
75.1976
65.0028
85.1248
52.6902
36.195
46.7532
19.2746
22.1517
17.7713
30.6684
16.7495
61.4426
30.1455
0.939498
0.89165
0.731029
0.871462
1.05997
1.33446
1.17908
0.812756
0.770909
0.89721
0.874067
1.02585
1.84241
2.90678
-0.238669
-0.271945
-0.29477
-0.28706
-0.231974
-0.24515
-0.276779
-0.0741166
-0.089887
-0.0377803
-0.251757
-0.256882
-0.211938
-0.24892
-0.307453
-0.293437
-0.236682
-0.125681
-0.0387864
-0.114779
-0.164787
-0.20126
-0.111557
-0.0316645
-0.0818682
-0.135944
-0.0988568
-0.0155023
-0.0678315
-0.0176094
-0.0638191
-0.0461116
-0.109951
-0.114027
-0.147507
-0.135899
-0.0945145
-0.128699
-0.1606
-0.261203
-0.0501938
-0.216352
-0.244994
-0.136162
-0.213172
-0.215727
-0.397272
-0.428524
-0.162895
-0.44347
-0.577493
-0.373462
-2.86956
-3.21164
-2.02928
-1.97292
-1.46377
-2.29733
-2.05864
27.3234
23.8412
18.4757
53.3215
24.5171
19.2097
99.6634
74.6521
86.559
30.2584
64.4265
89.3992
59.9945
48.5291
96.4083
99.8492
66.0416
7.83326
11.1655
7.30066
3.93627
6.77833
11.4985
10.3716
2.34699
1.22741
2.74817
1.04983
0.751566
1.33302
1.22274
0.523982
0.0993516
0.935059
0.970429
1.02366
0.285246
1.08838
-0.0831232
-0.122716
-0.290441
-0.881354
-0.288793
0.0186844
-0.568172
-0.283917
-0.196025
-0.407471
-0.789981
-0.746581
-0.22558
-0.491067
-3.03823
-1.98026
-1.71039
1.09365
-2.01839
-2.63022
-1.26984
-1.72971
-2.751
-2.61275
-1.5138
-2.04043
-3.04395
-2.5882
-1.44352
1.00665
-1.85607
-1.66202
-2.08711
-2.52751
-0.104877
-6.13339
-4.76809
-4.97612
-5.88778
-5.27472
-4.72039
-4.81414
-3.91737
-3.3211
-3.5464
-2.49517
-2.38055
-0.2864
-0.564715
-0.388751
0.860444
0.647722
0.950477
-0.462038
0.467245
-1.12107
-2.02632
-0.888765
-1.51587
-1.82815
-1.91441
-2.09858
-1.63237
-1.90716
-2.30483
-0.595555
-1.33522
-0.686537
0.0100893
0.0253888
0.296403
1.00666
1.60266
2.19602
1.57791
2.51381
2.35766
1.59161
1.838
3.83404
3.20168
3.5562
2.64029
2.78312
3.29418
3.55692
2.36041
2.92681
2.47025
2.87447
2.73094
2.42835
2.57631
2.66168
2.91962
3.30105
4.25779
4.25266
3.55372
3.70257
370.394
357.908
238.634
268.71
129.577
373.548
377.958
-363.826
38.085
-88.6964
117.588
-25.3499
59.795
94.6949
-21.1453
171.704
115.426
319.383
84.7291
73.9216
116.324
-193.166
25.5046
-114.08
95.9082
43.8835
109.79
144.789
216.675
123.806
119.499
34.0474
-67.1331
-9.9287
-28.9322
-11.9377
14.5092
4.98983
-64.0908
-24.0048
54.0202
9.98136
11.1002
12.6771
8.57183
10.3685
10.0344
12.9366
9.79787
10.1904
10.7103
9.82092
9.89246
11.0456
9.63723
9.98375
9.55717
9.83494
10.088
9.68001
9.80583
10.0289
9.8075
9.90132
9.64798
11.758
11.1254
10.8326
10.5205
9.55377
8.90342
9.32751
9.31555
67.1222
42.8781
24.9643
26.1266
33.3641
23.4965
27.1554
413.326
147.847
476.697
313.649
585.016
539.734
637.207
430.643
707.956
897.025
822.625
377.406
715.259
845.753
203.969
303.32
245.965
546.978
264.527
165.235
175.975
658.058
240.047
187.897
135.542
154.33
136.922
137.346
614.116
365.801
713.09
371.119
381.352
372.181
764.426
747.248
383.305
304.864
309.725
600.814
693.602
769.453
786.368
841.374
741.836
919.694
672.996
791.884
930.617
741.974
895.077
711.88
160.003
365.413
204.694
268.983
131.341
134.75
506.53
150.181
551.462
754.389
160.503
148.804
509.976
702.313
717.079
754.486
741.289
777.474
784.401
756.084
775.348
757.391
739.868
611.69
278.655
657.307
761.791
521.492
1748.82
1780.1
1778.33
1207.04
1603.59
1634.62
1531.52
1490.12
1572.86
1594.43
1431.52
897.782
1290.04
1358.92
1465.2
1545.24
1699.95
1598.06
1633.51
1643.92
125.15
53.2172
413.076
54.7964
142.443
447.326
77.5872
152.099
34.6943
141.09
40.4684
82.9157
31.0442
31.1925
126.057
88.9722
80.0421
175.551
152.905
119.892
82.1743
7.72319
7.19021
7.4458
7.4228
7.35724
7.1051
7.36518
7.00982
7.01262
6.81075
7.00959
7.02986
6.88531
6.71009
5.42068
5.04299
5.99938
6.68097
6.84404
5.40575
5.50908
6.74818
6.4468
4.55979
4.45465
3.54499
4.83263
5.05726
4.98788
4.47862
1571.13
1554.87
1415.48
309.732
1102.69
1536.57
1099.06
1500.81
1295.09
845.738
821.231
1104.02
1520.82
1531.08
1107.31
801.622
1519.63
1629.55
739.722
1651.55
477.71
16.8585
89.8692
32.8941
13.6766
19.0335
52.3776
96.5197
5.64234
24.0812
14.4316
4.9269
2.7154
1.46391
3.50665
3.62852
2.54304
1.38018
2.23152
3.82609
2.98448
3.55285
2.90735
2.83476
5.3275
-0.545384
-1.05382
-1.13567
-0.804642
-1.01469
-0.497745
-0.80332
-0.430462
-0.4929
-0.531582
-0.377343
-0.420859
-0.480567
-0.447039
-0.360874
-0.328677
-0.330304
-0.374801
-0.343899
-0.259195
-0.35259
-0.469458
-0.557697
-0.476334
-0.427708
-0.387917
-0.438207
-0.474884
-0.790834
-0.736302
-0.642645
-0.954962
-0.789941
-1.27444
-1.24601
-0.965885
-1.26756
-1.60549
-1.42162
-1.12238
-0.476756
-0.437485
-0.657135
-0.969627
-0.72223
-0.668485
-0.814803
-0.0639066
-0.32207
-0.330025
-0.832727
-1.34939
-0.801758
-0.370328
-0.843272
-0.512001
-0.994309
-1.24735
-0.712027
-0.275857
-0.457032
-0.128238
-0.752619
-0.937637
-1.58277
-1.19398
-0.896441
-0.457667
-0.204058
-1.21547
-3.18554
3.60165
-4.90112
-3.70905
7.42114
-0.749635
-1.51737
0.350605
41.0644
30.2084
45.0733
38.096
34.4937
42.7388
25.0365
30.721
18.5439
32.3023
40.8857
49.1911
54.403
46.826
40.8892
10.6753
9.04316
15.3924
1.2757
9.12153
2.16726
2.1033
12.146
8.60273
-0.698915
19.5859
31.9681
6.1865
10.8154
15.3659
8.59039
27.0254
1.14045
0.740549
0.767527
0.566523
0.789335
0.934155
0.643611
2.02461
1.27412
1.36544
1.09407
1.13913
1.42838
1.38926
0.753776
0.731606
0.391724
0.359626
0.156847
0.692049
0.533497
5.73778
3.12616
4.93472
1.66374
1.63093
9.30244
11.0705
9.2327
10.0522
6.73308
9.02682
7.83782
3.4767
9.80486
11.3248
3.30158
2.10168
5.98064
7.5681
0.324694
-2.47345
5.76623
-3.68827
4.64937
-7.35187
-3.9037
-1.78662
-1.66511
-1.91986
-1.70152
-1.77907
6.99508
9.34063
6.2582
0.0149934
-0.428292
2.04641
-0.229102
-1.19074
-1.02856
-1.65144
1.77161
-0.758394
-1.70707
-0.715147
-1.73068
-1.63174
-1.862
-1.49039
-1.58396
-1.44764
-1.52131
-0.97113
-1.20969
-0.855783
-0.864072
-0.928765
-0.86751
-0.859638
-1.03644
-0.969843
-1.63429
-1.33988
-1.3399
-1.23232
-1.26729
-1.13611
-1.23662
-0.528834
-0.565464
-0.64508
-0.097289
-0.285704
-0.616522
-0.701894
-0.763352
-0.667731
-0.893914
-1.00018
-0.864408
0.405936
0.466279
0.541302
0.512368
1.24904
0.567663
0.702939
1.51642
1.41368
0.717411
1.19426
0.30765
1.6057
1.22193
3.84915
3.80894
3.84705
2.73775
2.81556
3.9622
3.96921
3.39561
3.40485
1.97634
2.0865
3.06978
3.65646
4.09543
2.05313
2.51687
2.32545
2.8968
2.43475
2.72958
3.25658
4.00214
3.16629
3.02015
3.96515
3.65521
3.68649
4.18934
4.01753
4.23612
3.59448
3.66428
3.20186
525.727
111.33
550.74
283.005
15.1143
38.6472
442.197
148.779
-33.5918
11.5044
229.005
-16.1625
130.125
-117.179
24.2472
-80.676
29.8647
-120.756
101.839
-16.0028
157.218
77.7619
120.506
327.762
197.37
105.27
77.3747
107.544
7.69303
264.008
83.9118
96.4597
106.909
166.175
166.201
191.685
182.552
170.116
195.211
174.731
308.517
200.222
325.115
203.68
169.075
314.055
219.575
168.972
181.254
168.297
154.15
154.431
303.274
236.794
333.173
165.109
142.587
180.402
171.001
142.656
141.442
166.501
213.284
237.904
229.922
233.733
195.716
240.017
213.863
155.717
137.908
132.527
136.382
160.139
137.826
203.72
308.951
289.829
848.714
827.24
887.963
175.568
67.6608
405.991
371.654
379.162
557.605
716.12
518.736
295.745
672.116
378.096
468.451
903.992
709.215
700.305
1143.03
752.705
154.192
133.311
257.822
338.738
72.3123
126.254
265.326
395.564
91.9606