/*--------------------------------*- C++ -*----------------------------------*\
| =========                 |                                                 |
| \\      /  F ield         | OpenFOAM: The Open Source CFD Toolbox           |
|  \\    /   O peration     | Version:  v2012                                 |
|   \\  /    A nd           | Website:  www.openfoam.com                      |
|    \\/     M anipulation  |                                                 |
\*---------------------------------------------------------------------------*/
FoamFile
{
    version     2.0;
    format      ascii;
    class       volScalarField;
    location    "0.4";
    object      alpha.water;
}
// * * * * * * * * * * * * * * * * * * * * * * * * * * * * * * * * * * * * * //

dimensions      [0 0 0 0 0 0 0];


internalField   nonuniform List<scalar> 
24700
(
1
1
1
1
1
1
1
1
1
1
1
1
1
1
1
1
1
1
1
1
1
1
1
1
1
1
1
1
1
0.0201803
0.0200016
0.0200044
0.0200067
0.0392557
0.0201019
0.0265363
2.09036e-06
5.22803e-07
4.70311e-06
1.28145e-06
7.53085e-06
5.82959e-07
4.79644e-06
8.87781e-06
3.00415e-05
2.0384e-05
1.62738e-05
5.31267e-06
1.29727e-05
6.62502e-05
2.71787e-05
2.71575e-05
2.76674e-05
3.5647e-05
7.75625e-05
2.71737e-05
5.57915e-05
0.00109664
0.00073831
0.000749766
0.00221334
0.00294374
0.000603248
0.0025964
3.08476e-06
9.21224e-07
7.01081e-07
3.57707e-07
3.11398e-07
1.7387e-07
1.57622e-07
6.72711e-08
4.32074e-07
3.72166e-07
4.21946e-07
4.32074e-07
2.28832e-07
1.16178e-07
0.547672
0.079158
0.968139
0.580964
0.0642583
0.738573
0.941175
1.20847e-08
5.86673e-09
1.67159e-09
2.15537e-10
1.1729e-09
8.5015e-10
1.16624e-10
5.84905e-07
1.10473e-06
3.56222e-07
4.42459e-07
3.57615e-07
1.04428e-06
4.65304e-07
0.00288151
0.00340952
0.00283383
0.00649484
0.00370511
0.00327225
0.00677526
0.00228079
0.0022499
0.0022499
0.00385358
0.00951176
0.00313093
0.00926105
0.0531724
0.0531719
0.0531719
0.0836141
0.0829651
0.0531719
0.0691921
0.0531719
0.0617351
0.0531724
0.00104566
0.0010456
0.0010456
0.0010474
0.00104578
0.00143039
0.00104561
0.00112164
0.0014357
0.00143803
0.00104566
0.00104566
0.000443751
9.90049e-05
0.00049165
9.90107e-05
0.00011634
0.000458599
0.000195168
1.6556e-05
1.6554e-05
3.45653e-05
6.02016e-05
2.4135e-05
1.79286e-05
4.31527e-05
1.86963e-05
2.5627e-05
7.81543e-06
5.5768e-06
1.61462e-05
1.4196e-05
7.05783e-05
0.00151012
0.00282274
0.00150982
0.00208925
0.00472004
0.00591777
0.00258016
0.588527
0.588912
0.748806
0.674971
0.764213
0.868001
0.864497
0.0855092
0.0374246
0.0830717
0.0281936
0.0859588
0.0368115
0.0284681
0.000611901
0.000815484
0.000815484
0.000571686
0.000815361
0.00078297
0.000608102
0.00194344
0.00469363
0.00470088
0.00378652
0.00422351
0.0038815
0.000849376
0.000155523
0.000375363
0.000453478
0.000618573
0.000752076
0.00028022
0.000146904
6.56358e-06
6.81951e-06
5.79009e-06
2.13871e-05
2.59529e-05
1.31598e-05
7.19092e-06
0.867581
0.79046
0.967179
0.789813
0.9657
0.930224
0.929124
6.61593e-06
9.04865e-06
2.60441e-05
1.43181e-05
6.56499e-06
1.8405e-05
2.80146e-05
0.000107754
0.000107592
0.00010734
0.000350932
0.000269481
0.000281362
0.000192481
0.000193766
0.000241947
0.000193853
0.000411926
0.000201504
0.000148602
0.000200979
0.140288
0.566087
0.922037
0.0938138
0.15327
0.203642
0.213109
0.0131123
0.0128001
0.00411282
0.00566926
0.00615027
0.00446358
0.004024
0.548173
0.348551
0.348551
0.348551
0.372888
0.485666
0.824981
0.824981
0.730497
0.824981
0.824981
0.761056
0.203583
0.0887162
0.015769
0.0273455
0.0113666
0.0231653
0.0242985
0.00376499
0.0037724
0.00376505
0.00574373
0.0049299
0.0040118
0.00462606
0.00370459
0.00193501
0.00246249
0.00195677
0.00192525
0.00192525
0.00253081
0.00435905
0.00597749
0.00598065
0.00435905
0.00513522
0.00599673
0.00504771
0.0131103
0.0345364
0.0151748
0.0246922
0.0549524
0.0906345
0.0524148
0.14733
0.18913
0.149488
0.34117
0.14743
0.150022
0.343644
0.00611896
0.00613525
0.0108398
0.00814663
0.0224456
0.0159196
0.00615267
0.000394456
0.000393005
0.000664215
0.00512245
0.00256508
0.00147566
0.00235005
0.000167155
0.000242205
0.000140666
0.000141748
0.000240409
0.000116736
0.000180217
0.00136079
0.00109406
0.000441031
0.000691737
0.000440712
0.00108193
0.00091375
0.00744744
0.00314867
0.00744287
0.00250936
0.00701507
0.00135733
0.00523688
0.00119078
0.00119172
0.00182189
0.00135439
0.0028546
0.00130767
0.00276017
0.00755389
0.00512407
0.00512217
0.00515966
0.00981812
0.00346088
0.00834146
0.00326375
0.00331992
0.00326375
0.0033412
0.00817959
0.00337239
0.00739118
0.00843268
0.00622664
0.00289033
0.00289053
0.00292672
0.00534338
0.00951891
0.00191293
0.00191242
0.00191242
0.00287268
0.00319215
0.00238643
0.00191287
0.00203462
0.00268325
0.00264198
0.000398314
0.00104474
0.00103996
0.000520441
0.000706696
0.00128451
0.00110043
0.000596334
0.000681001
0.000509133
0.000595941
4.95982e-06
1.00087e-05
4.93254e-06
1.16669e-05
2.01523e-05
1.08997e-05
6.9805e-06
1.56937e-06
4.6651e-06
2.11983e-06
1.56934e-06
2.90152e-06
5.06983e-06
1.97501e-06
4.27174e-08
3.56075e-08
8.49698e-08
1.64215e-07
8.5865e-08
4.5943e-08
1.81787e-07
0.984617
0.755981
0.429688
0.982828
0.984675
0.919256
0.575333
0.000384864
0.000581273
0.000594337
0.000357733
0.000517893
0.000674763
0.000265501
0.000271604
7.72426e-05
0.000136872
7.72426e-05
0.000116403
0.000102233
0.000253714
0.53409
0.176853
0.524831
0.175802
0.175951
0.173346
0.173346
0.730803
0.635597
0.572825
0.392173
0.390994
0.389296
0.428127
0.398282
0.390768
0.389296
0.389945
0.552223
0.325454
0.328174
0.32808
0.491857
0.163578
0.365114
0.349041
0.331805
0.331615
0.330725
0.486757
0.778137
0.00522546
0.0067119
0.00423117
0.00361434
0.00361434
0.00362575
0.00362733
0.358799
0.495261
0.359251
0.948455
0.706121
0.876704
0.9485
0.000356198
0.00132127
0.00068491
0.000357144
0.000401257
0.000965518
0.000568181
1.63999e-05
7.40486e-05
3.64956e-05
1.30277e-05
1.37995e-05
3.00214e-05
1.64411e-05
0.000190305
0.000330982
0.00010784
0.000277674
0.000288156
0.000639055
0.000107725
0.00232616
0.00419916
0.00341202
0.00175743
0.00182511
0.00314794
0.00240495
0.00186719
0.000938624
0.000497336
0.000559996
0.000765922
0.00111416
0.000496232
0.0971084
0.14213
0.105048
0.410809
0.189457
0.270748
0.0998083
0.682158
0.68204
0.682069
0.78426
0.785631
0.785637
0.683708
0.0141685
0.0204523
0.0133537
0.0137851
0.0238211
0.00950488
0.0121531
1.27987e-09
3.10315e-09
5.15691e-10
8.13408e-10
4.70248e-10
1.65647e-09
7.26431e-10
8.88459e-11
1.73936e-10
6.15558e-11
1.4988e-10
8.13467e-11
1.86691e-10
9.33734e-11
4.26269e-07
1.096e-06
4.21393e-07
4.59044e-07
6.55385e-07
1.15821e-06
2.14672e-07
0.000459511
9.34728e-05
0.000172989
0.000113295
7.76812e-05
0.000230899
7.75054e-05
0.00750133
0.0143078
0.00597074
0.00691891
0.00597647
0.0189642
0.00937736
0.0107573
0.0102772
0.0102424
0.0252067
0.0173891
0.0117575
0.0247046
0.626385
0.0573343
0.164819
0.052992
0.0500021
0.0499807
0.0501037
0.019216
0.0334337
0.0189414
0.0209002
0.0195344
0.0311899
0.020176
0.00558502
0.00316865
0.00530354
0.00573259
0.00286737
0.00281707
0.00315044
0.069144
0.0701811
0.0228048
0.0664243
0.0339581
0.0292508
0.0143663
0.0469113
0.0467369
0.0835676
0.183251
0.0797984
0.0697986
0.178059
0.00131062
0.00224575
0.00132536
0.011811
0.00721884
0.00472462
0.0021778
0.927182
0.954542
0.954532
0.904589
0.791722
0.945328
0.932011
0.000277472
0.000525822
0.000275897
0.000604896
0.000273629
0.00052834
0.00027559
0.00239878
0.00145195
0.00239614
0.00131417
0.0013136
0.0024353
0.00172279
0.0560739
0.112585
0.033558
0.0561958
0.0335415
0.0866615
0.043554
0.834328
0.886314
0.834619
0.881027
0.882127
0.877217
0.856416
0.886698
0.333742
0.81843
0.886698
0.739408
0.796952
0.796941
0.796952
0.796865
0.796905
0.796941
0.796941
0.214695
0.335693
0.161032
0.796268
0.719834
0.740739
0.71368
0.682042
0.785631
0.741043
1.60774e-09
1.60618e-09
1.59857e-09
7.68472e-10
1.84589e-10
3.60959e-10
8.94961e-10
1.4763e-06
1.4763e-06
1.41765e-06
1.40684e-06
6.13963e-07
7.35896e-07
4.00814e-07
3.4758e-08
7.18938e-08
3.4636e-08
3.87109e-08
4.96e-08
9.51483e-08
4.23385e-08
3.17586e-08
2.29937e-08
2.29937e-08
3.13707e-08
2.79251e-08
3.73138e-08
4.84465e-08
0.000165904
0.000257444
5.24426e-05
0.000690822
0.000828265
0.000146638
0.000453074
0.00478645
0.00220052
0.00478617
0.00220424
0.00225775
0.00478207
0.0047879
9.814e-05
9.76713e-05
0.000190217
0.000125008
0.000128595
0.00010186
0.000316683
0.0012774
0.00144037
0.00125191
0.0015591
0.00125191
0.00332364
0.00187162
0.292628
0.292628
0.292628
0.90379
0.457659
0.292684
0.670231
0.905085
0.488932
0.905085
0.905085
0.746992
0.00563385
0.0104992
0.0145121
0.00696914
0.00730667
0.0104004
0.00656566
0.000651183
0.000563561
0.000678105
0.000668767
0.000678169
0.000559354
0.000560585
0.0144095
0.00993099
0.0144095
0.0144095
0.0144095
0.0059498
0.0131947
0.00956536
0.0079314
0.0143804
0.0801982
0.283256
0.0274958
0.100637
0.00167665
0.000535139
0.000230428
0.00020637
0.000325059
0.000318191
0.000743264
0.0019983
0.00124049
0.00191558
0.00550523
0.00903456
0.00275487
0.00479579
0.00520757
0.00549988
0.00938068
0.0100541
0.00519848
0.00302747
0.00652841
0.00168922
0.00177737
0.00091162
0.00130817
0.000919758
0.00208039
0.000586621
0.000154351
0.000105001
0.000105001
0.000354146
0.000179554
0.000107503
0.000150659
0.967743
0.965357
0.967743
0.947945
0.922238
0.966238
0.922076
0.791659
0.806491
0.792424
0.97106
0.973657
0.00611678
0.00940807
0.00615132
0.00907036
0.0203017
0.0248493
0.00931045
0.000830448
0.00271338
0.00123401
0.00175013
0.000807525
0.00186563
0.00185906
0.000703013
0.00136736
0.000837324
0.000770906
0.000806121
0.00164702
0.00093384
2.46756e-10
1.55109e-10
5.14127e-10
2.21717e-10
7.78138e-10
7.38992e-10
2.49539e-09
4.08273e-09
2.61355e-09
4.8706e-09
2.09659e-09
1.65152e-09
3.3117e-09
1.17028e-08
2.18331e-08
2.57764e-08
0.983362
0.992203
0.965339
0.988891
0.962105
0.992196
0.974189
4.56897e-06
3.32421e-06
1.32731e-06
1.2815e-06
2.29066e-06
3.22291e-06
3.3045e-06
3.80279e-09
3.7988e-09
4.7364e-09
1.072e-08
4.8647e-09
3.54918e-09
3.88907e-09
1.36198e-07
8.97123e-08
3.87787e-07
1.06313e-07
9.06214e-08
2.60164e-07
1.01375e-07
1.74347e-05
2.4862e-05
1.50338e-05
3.45469e-05
1.49382e-05
3.80429e-05
1.40471e-05
0.000881312
0.000881312
0.000881267
0.00136992
0.00156746
0.00114319
0.000881268
9.73523e-05
9.73523e-05
9.73523e-05
9.73523e-05
0.000105351
0.000130848
0.000123114
0.00111162
0.0106756
0.00111162
0.00144779
0.00111162
0.00610919
0.00111162
0.0484008
0.0724435
0.0483487
0.626624
0.207017
0.424937
0.072093
0.0054905
0.0572667
0.201106
0.00957055
0.0052672
0.0234728
0.0950079
0.808299
0.808299
0.808299
0.808299
0.277243
0.808219
0.797292
0.829125
0.73273
0.732166
0.829144
0.824007
0.816507
0.824131
0.768653
0.80821
0.578721
0.000194323
0.000235778
0.000364035
0.00019386
0.000285788
0.000172261
0.000188204
0.937787
0.864054
0.939848
0.939839
0.929068
0.863902
0.936436
0.839903
0.856905
0.856905
0.229609
0.0329335
0.0947442
0.750972
0.00263125
0.000957013
0.00405511
0.000655024
0.000984612
0.00230397
0.00198249
0.000921607
0.000373195
0.000844489
0.000921607
0.000740547
0.000373358
0.000920891
0.939584
0.967665
0.939517
0.958132
0.967577
0.939625
0.970478
0.967667
0.961777
0.958311
0.00170616
0.000964179
0.000978451
0.00238738
0.00125356
0.00249657
0.00170613
5.94535e-13
2.85654e-11
5.69169e-11
1.71148e-16
3.06613e-14
3.71534e-17
1.53501e-14
2.86117e-11
6.5121e-11
8.06733e-23
1.99951e-17
2.06508e-16
5.83402e-16
4.0679e-16
5.7043e-13
4.73583e-12
5.74962e-15
9.35885e-11
1.56343e-05
1.62308e-05
1.64216e-05
1.95117e-05
5.24493e-05
2.01598e-05
1.47903e-05
8.95475e-06
2.72589e-05
8.19265e-06
6.48242e-06
1.7868e-05
9.53676e-07
9.51335e-07
1.10782e-06
8.65594e-06
4.94875e-06
1.05794e-06
1.47162e-06
1.43434e-05
3.02181e-05
1.43838e-05
2.37865e-05
1.77774e-05
4.01631e-05
1.5031e-05
0.00667862
0.00551529
0.00330442
0.00331425
0.00482114
0.00243864
0.00483188
0.867991
0.859285
0.522046
0.522026
0.522261
0.541157
0.867991
0.911655
0.911672
0.919734
0.947869
0.959541
0.959205
0.97375
0.414999
0.753429
0.900319
0.904352
0.557902
0.700001
0.0872703
0.684153
0.918423
0.618185
0.84898
0.730983
0.918923
0.234931
0.0241414
0.0237268
0.0215078
0.0214457
0.0422615
0.0169396
0.0609946
0.829144
0.739169
0.781851
0.18392
0.567936
0.868173
0.86481
0.103978
0.684544
0.868132
0.868173
0.868173
0.868173
0.576491
0.868089
5.16389e-05
2.61501e-05
0.000119709
9.18341e-05
9.55107e-05
1.71213e-05
5.59688e-05
2.53526e-05
2.07138e-05
2.07037e-05
2.0677e-05
2.32043e-05
3.04514e-05
2.0677e-05
2.92446e-05
1.71601e-05
1.38853e-05
0.000154454
4.67031e-05
7.64581e-05
2.04104e-05
0.000983883
0.000275836
0.000939596
0.00121097
0.000463531
0.00022827
0.000355771
0.000876067
0.000297437
0.000943685
0.00100864
0.00164987
0.000408767
0.00241248
0.000701881
0.000427234
0.000986662
0.000542453
0.000987034
0.000427248
0.000986408
0.386302
0.385669
0.375355
0.915563
0.859469
0.889577
0.586572
0.961503
0.96168
0.910878
0.92684
0.944646
0.961689
0.961601
0.900404
0.9612
0.973304
0.869041
0.92835
0.96176
0.950927
0.597364
0.377191
0.377191
0.786596
0.783854
0.857087
0.916216
0.000469309
0.000847148
0.000414828
0.000543613
0.00112277
0.000563286
0.000564725
0.00135776
0.00107481
0.00121523
0.00330723
0.0032893
0.00149513
0.00316202
1.49507e-05
1.79586e-05
1.08086e-05
6.50715e-05
2.99736e-05
2.1935e-05
2.44082e-05
0.0002673
0.000821706
0.00109008
0.000209638
0.000100341
0.00020997
0.00043474
1.86598e-11
4.08267e-11
1.49401e-11
4.90321e-11
2.49399e-11
5.26026e-11
2.30213e-11
2.03169e-10
9.07723e-11
1.91827e-10
3.98621e-06
5.83849e-06
8.08295e-06
1.94931e-05
1.61873e-05
1.7604e-05
8.79544e-06
0.000971544
0.000971544
0.00107491
0.00111572
0.00105812
0.00178945
0.00193343
0.742329
0.486544
0.739046
0.867997
0.867998
0.867998
0.867998
0.0180763
0.0161257
0.0182301
0.0290387
0.0282463
0.0149691
0.0267549
0.00129115
0.00129242
0.00180884
0.00297389
0.00159332
0.00151428
0.00263749
0.000169891
0.000100736
0.000206811
9.8675e-05
9.82976e-05
6.97282e-05
0.000126795
0.000207479
0.000207479
0.000207479
0.000207479
0.000207479
0.000207479
0.000207479
0.000126781
0.000131133
0.000131133
0.000102858
8.46719e-05
6.43643e-05
0.000130632
0.68896
0.706969
0.690312
0.607598
0.0660334
0.687331
0.298505
0.131195
0.115144
0.234502
0.357948
0.920981
0.116997
0.483409
0.00083821
0.00160596
0.000249166
0.000211484
2.87526e-05
0.000472122
6.45504e-05
8.04757e-08
7.05994e-08
8.92008e-08
3.74158e-07
3.12142e-07
2.2655e-07
1.9064e-07
3.15225e-05
3.30249e-05
0.000114572
9.75133e-05
9.52551e-05
0.000280852
0.000155244
0.000585737
0.00190899
0.00204075
0.000754316
0.000573614
0.00137483
0.00148453
0.0021782
0.00303949
0.00303949
0.00303949
0.002976
0.00156356
0.00303375
0.164608
0.139559
0.14024
0.143402
0.208836
0.208836
0.141161
0.0725129
0.0322062
0.0601438
0.0305754
0.0725129
0.0236319
0.0197476
0.00015893
0.000421012
0.000762568
0.000254971
8.78173e-05
0.000330627
7.94531e-05
0.00054969
0.00087947
0.000525534
0.000587785
0.000527348
0.000217485
0.000315419
0.00701333
0.0126873
0.00876331
0.00701788
0.0139217
0.0235868
0.00683899
0.00771106
0.00776037
0.00771106
0.0091689
0.0258038
0.00564139
0.0202811
0.00157642
0.000633465
0.000330281
0.000241497
0.000378
0.000403597
0.000595975
0.00226415
0.00364818
0.00164962
0.000595826
0.00780689
0.0119287
0.000248014
8.18834e-05
0.000203424
8.1194e-05
0.000181532
0.00010496
7.88685e-05
7.91398e-05
0.920606
0.509136
0.486867
0.879942
0.714956
0.920606
0.876886
0.877785
0.920661
0.852864
0.920513
0.920297
0.855906
0.898093
0.30372
0.617371
0.919962
0.920606
0.00230825
0.00234125
0.00325671
0.00254711
0.00537726
0.00318287
0.00153826
0.000344375
0.000344375
0.000317333
0.000129607
0.000152257
0.000226826
0.000129599
0.00090685
0.000515091
0.00092114
0.00490859
0.00221224
0.00107587
0.00110189
0.00312383
0.00252983
0.00467423
0.0150556
0.00698674
0.00557358
0.00524839
0.961725
0.951588
0.715754
0.909842
0.876347
0.96825
0.727589
0.739512
0.66091
0.736984
0.596634
0.739512
0.719171
0.595282
0.739826
0.740362
0.598371
0.000280565
0.000438603
0.00126132
0.00199277
0.00101826
0.000450413
0.000397357
0.983303
0.983543
0.973016
0.461787
0.854622
0.965473
0.881807
0.00152409
0.00385476
4.89274e-05
6.65424e-05
7.37749e-05
0.00407959
0.0020923
5.94738e-06
1.57259e-05
1.68379e-05
9.51572e-06
4.14196e-06
8.91386e-06
1.18478e-05
3.50721e-09
3.03854e-09
4.46825e-09
1.49386e-08
3.45772e-08
2.73625e-09
2.59419e-09
4.51166e-07
4.47813e-07
6.16102e-07
2.81785e-06
5.28789e-06
7.14843e-07
5.68201e-07
2.75198e-05
7.17413e-05
2.59935e-05
0.000420016
0.000559065
0.00027759
0.000559065
0.00043468
0.000274243
7.49032e-05
7.46199e-05
0.000138084
7.57753e-05
0.00010761
7.46023e-05
7.46023e-05
0.000206649
0.000121963
0.000530978
7.69399e-05
0.000128109
8.0684e-05
3.70661e-05
4.58891e-05
6.44723e-05
2.90807e-05
7.29909e-05
5.70708e-05
6.50977e-05
4.29681e-11
7.38475e-11
4.29132e-10
2.17505e-09
5.28126e-09
8.15239e-10
2.0985e-09
0.00115451
0.000568614
0.00101834
0.000559567
0.000547871
0.000550967
0.000554971
0.259247
0.0233808
0.378905
0.101647
0.0979115
0.22609
0.268435
0.505556
0.361905
0.120315
0.132089
0.139341
0.00932593
0.00884405
0.00882196
0.0167223
0.00882818
0.0132849
0.00932671
0.0758641
0.0758641
0.0758641
0.0758641
0.0758641
0.0621459
0.0758641
0.000670277
0.000733605
0.000396391
0.000578748
0.000395844
0.00124077
0.000350195
0.00641232
0.000864348
0.0022625
0.00647541
0.00343825
0.00150813
0.00332222
0.873037
0.907571
0.907566
0.858762
0.902698
0.662327
0.050774
0.189303
0.039809
0.0319899
0.0315625
0.0778789
0.0243367
0.823535
0.895135
0.895674
0.210429
0.417343
0.856236
0.700718
0.747461
0.748416
0.749183
0.679719
0.748554
0.748334
0.68094
0.743823
0.67931
0.748166
0.00166954
0.000404732
0.00194974
0.0040024
0.00628083
0.000750487
0.00214014
3.84336e-05
4.38093e-05
3.84276e-05
6.47792e-05
9.91127e-05
0.000145215
0.000225075
0.000334319
0.000488136
0.000299137
0.000299137
0.000298597
0.000403027
0.000643473
0.928398
0.917978
0.644074
0.928373
0.929869
0.89478
0.913684
2.01066e-07
4.30115e-07
4.61852e-07
1.46041e-07
5.33357e-08
1.24515e-07
2.18531e-07
5.56086e-08
6.22105e-08
2.67648e-08
1.30533e-07
1.47853e-07
7.74628e-08
5.10428e-08
4.71702e-08
4.23824e-08
3.58264e-08
4.74258e-08
4.51722e-08
3.47429e-08
4.51806e-08
4.08165e-09
4.74117e-09
7.81866e-09
5.73336e-09
4.43815e-09
4.35607e-09
5.08087e-09
1.5641e-06
1.61002e-06
2.27955e-06
7.92903e-06
1.6722e-05
2.2001e-06
1.89232e-06
0.000107991
0.0001523
0.000106626
0.000191628
0.000111852
0.000189907
0.00036969
1.82269e-05
2.36564e-06
9.08653e-06
1.92863e-05
8.69722e-06
3.05608e-06
1.20617e-05
0.000675366
0.000631178
0.000305193
0.00034048
4.36753e-05
0.000546785
0.000353235
0.137274
0.376586
0.11759
0.099741
0.405095
0.404852
0.30655
0.40713
0.407129
0.40568
0.407125
0.407128
0.373598
0.405938
0.508241
0.50828
0.508278
0.225901
0.334694
0.508154
0.50828
0.407892
0.200776
0.100158
0.00226082
0.00225463
0.00589884
0.00384072
0.00383217
0.00451915
0.00358255
0.0153464
0.0536781
0.0459342
0.14779
0.0602794
0.015345
0.0341533
0.00156267
0.012829
0.00133603
0.000758479
0.00236658
0.00693541
0.000505995
0.000164085
0.000433439
0.000206686
0.000418351
0.000434495
0.000213411
0.000205843
0.000215929
0.000290125
0.000215929
0.000215929
0.000215929
0.000215979
0.000215929
0.000480362
0.000391558
0.000597345
0.00039124
0.000391445
0.000391293
0.000391146
0.00123245
0.00186474
0.00122458
0.00641606
0.00973571
0.00496048
0.00220517
0.821465
0.821465
0.821442
0.0406634
0.51511
0.185694
0.674277
0.83103
0.878217
0.878266
0.878273
0.878299
0.878224
0.878316
0.876772
0.878311
0.758301
0.878279
0.878297
0.746943
0.752081
0.877964
0.878224
0.878426
0.878334
0.878312
0.878356
0.878365
0.165112
0.776625
0.138137
0.527379
0.530298
0.0464969
0.0330862
0.0105652
0.010739
0.00922868
0.0182121
0.0162717
0.0436599
0.0434406
0.118039
0.138353
0.106453
0.075979
0.35137
0.0319203
0.0107871
0.00707668
0.0210874
0.0320011
0.0307365
0.00998629
0.00175904
0.0013378
0.00133851
0.00133758
0.00197873
0.00134054
0.00198845
0.00663192
0.00707573
0.00679141
0.00992665
0.0179803
0.0174978
0.0179954
0.946112
0.819729
0.930063
0.714264
0.0763631
0.661584
0.842554
1.13664e-05
9.96039e-06
9.51055e-06
1.27121e-05
1.2741e-05
1.78702e-05
9.34094e-06
0.000189401
9.2207e-05
0.000156688
8.79816e-05
0.000165457
8.78118e-05
8.77007e-05
0.000614974
0.000254725
0.000640517
0.00207423
0.00284471
0.000524188
0.00132643
0.0154364
0.0125278
0.0129249
0.249524
0.414936
0.119444
0.509521
4.99187e-07
9.17876e-07
3.40575e-07
1.51135e-06
1.56718e-06
1.68861e-06
6.30247e-07
5.53803e-05
0.00021847
0.000143038
5.42218e-05
0.000259145
0.000572925
0.000245607
4.47968e-07
1.42057e-06
8.28901e-08
6.78429e-08
5.07528e-08
4.84335e-07
2.82334e-07
0.0822456
0.0685393
0.376956
0.395126
0.134112
0.000267521
0.000376177
0.00035332
0.000287029
0.000125801
0.000645244
0.000187028
0.000474294
0.000475365
0.000504557
0.000932216
0.000670708
0.000679631
0.00120982
3.23346e-05
3.23346e-05
3.23346e-05
3.23346e-05
3.23346e-05
4.54366e-05
3.23346e-05
7.34014e-05
6.27965e-05
7.85151e-05
4.96403e-05
3.49295e-05
4.15573e-05
4.14999e-05
0.878299
0.874696
0.878311
0.651359
0.648484
0.651359
0.437531
0.453605
0.647357
0.309637
0.7743
0.774385
0.774385
0.77438
0.77438
0.771379
0.774222
0.650693
0.309637
0.384593
0.77438
0.7522
0.77438
0.477257
0.510115
0.476457
0.702011
0.482713
0.484192
0.695621
0.577845
0.701128
0.704125
0.539353
0.468398
0.693656
0.682791
0.685843
0.453337
0.704157
0.70421
0.701815
0.704246
0.704117
0.704232
0.70421
0.736209
0.736046
0.630441
0.736214
0.736209
0.736208
0.736208
0.608833
0.652293
0.608833
0.609858
0.632318
0.736222
0.736221
0.736222
0.708145
0.736221
0.736221
0.736213
0.735957
0.73606
0.706506
0.736053
0.736213
0.00716039
0.00719374
0.00716039
0.0125701
0.0101993
0.0072104
0.00719374
0.00265915
0.00267635
0.00161817
0.00133255
0.000924147
0.00153424
0.00100336
0.0292653
0.213489
0.133661
0.24872
0.877639
0.211048
0.369864
0.00583598
0.0047106
0.0036231
0.00356758
0.00796613
0.00287075
0.00538143
0.00358935
0.00778683
0.00136312
0.000935906
0.00127337
0.00162783
0.0012163
3.80944e-05
2.05909e-05
3.19303e-05
5.77843e-05
0.000113066
2.90124e-05
9.96295e-05
0.0016817
0.00497078
0.00120663
0.00132801
0.000804292
0.00280872
0.000937811
6.67987e-07
1.74063e-06
3.26847e-07
6.18486e-07
3.26847e-07
9.58164e-07
4.06837e-07
1.68825e-10
2.9314e-11
1.58372e-11
1.57938e-09
7.81175e-10
4.09095e-10
9.55471e-10
0.109084
0.109573
0.109084
0.166822
0.1098
0.167258
0.109187
0.136246
0.13687
0.167258
0.138515
0.169002
0.0719661
0.0796629
0.226291
0.3614
0.25967
0.0655094
0.0986386
0.128515
1.09548e-06
9.53231e-07
9.53231e-07
2.26867e-06
2.28655e-06
2.28767e-06
1.50016e-06
1.85588e-05
9.41818e-06
2.84325e-05
1.30417e-05
9.30696e-06
2.13653e-05
2.14671e-05
0.923766
0.954601
0.800287
0.954594
0.934593
0.945035
0.939405
4.27369e-05
4.27357e-05
4.46643e-05
4.27357e-05
4.27369e-05
4.31701e-05
4.66097e-05
3.5868e-05
3.5868e-05
3.5868e-05
3.5868e-05
3.5868e-05
3.5868e-05
5.32921e-05
3.77618e-05
3.77782e-05
7.33842e-05
4.77062e-05
3.77611e-05
5.00705e-05
0.000137667
0.81644
0.81638
0.816478
0.816473
0.816536
0.816438
0.816769
0.814354
0.814457
0.814354
0.814371
0.814354
0.814243
0.719146
0.816426
0.81646
0.630582
0.00630724
0.00632857
0.00630724
0.00631831
0.0122275
0.00631071
0.0121916
0.0124298
0.0225543
0.0226027
0.0119434
0.0187701
0.0225674
0.0225508
0.701617
0.701624
0.658073
0.701729
0.701653
0.701737
0.701757
0.701652
0.701737
0.701626
0.487053
0.686455
0.693062
0.702763
0.570465
0.703468
0.701574
0.701376
0.700483
0.558453
0.70119
0.704246
0.678158
0.674769
0.0185855
0.0184403
0.0185855
0.103367
0.0311243
0.0183967
0.0360855
0.591799
0.650151
0.650151
0.471448
0.482723
0.471755
0.592807
0.806464
0.807066
0.802631
0.805189
0.804608
0.809306
0.811173
0.619954
0.275709
0.812425
0.811127
0.814307
0.814329
0.815186
0.0130296
0.0268988
0.0460689
0.0281568
0.012095
0.0311824
0.0439246
0.451722
0.588835
0.487086
0.878285
0.87869
0.682563
0.878899
3.94568e-05
3.94404e-05
3.94568e-05
3.94045e-05
3.94404e-05
3.94917e-05
5.81779e-05
3.1453e-05
3.1453e-05
3.14082e-05
3.14732e-05
3.14732e-05
5.19481e-05
3.43747e-05
0.000153049
0.000148555
0.000170099
0.000121071
0.000144407
5.86353e-05
0.000151842
2.87856e-05
1.67676e-05
1.80734e-05
1.67605e-05
2.2166e-05
1.68329e-05
9.07694e-06
0.000174936
0.000159074
0.000157335
0.000850372
0.000253126
0.00010272
0.000381496
0.000420041
0.000815591
0.00056581
0.00041971
0.00102082
0.00117477
0.000399387
0.00232017
0.00122045
0.00234639
0.000147689
0.00133152
0.000144418
0.0024965
0.000135724
0.000136251
0.000107491
2.47187e-06
2.50572e-05
9.78037e-05
3.99927e-05
2.18027e-05
3.99449e-05
2.29859e-05
2.44805e-05
2.1665e-05
1.89956e-05
1.92618e-05
0.0940693
0.0910717
0.150847
0.0987258
0.149155
0.149124
0.150182
0.0200579
0.0822923
0.0292103
0.110424
0.171592
0.130145
0.130665
0.172458
0.172533
0.172545
0.152517
0.172559
0.130357
0.146241
0.130357
0.171868
0.172423
0.17228
0.130975
0.1724
0.167775
0.172528
0.136027
0.0937079
0.172544
1
1
1
1
1
1
1
1
1
9.62024e-09
3.99464e-10
1.24674e-09
0.0111558
0.0038356
2.60761e-05
3.22829e-05
0.000632929
2.19959e-05
3.81632e-253
8.62283e-08
6.28089e-05
1
1
1
1
1
1
1
1
1
1
1
1
1
1
1
1
1
1
1
1
1
1
1
1
1
1
1
1
1
1
1
1
1
1
1
1
1
1
1
1
1
0.568365
0.257449
0.971707
0.993674
0.993144
0.934399
0.956141
0.0731605
0.0731631
0.0731605
0.0731605
0.0302431
0.0731605
0.0731518
0.0731606
0.0442669
0.754997
0.755002
0.755002
0.755002
0.755002
0.617766
0.653089
0.754979
0.661237
0.617774
0.629108
0.754947
0.617728
0.75458
0.701328
0.0731632
0.0575926
0.0731365
0.0238953
0.0144591
0.0333396
0.0020771
0.00203602
0.00207849
6.70661e-05
3.26058e-05
3.24793e-05
0.000385431
0.00122006
0.0005085
0.000530477
0.000450594
0.00088151
0.000621678
1.26671e-06
1.27722e-06
1.2925e-06
0.00127857
0.000279611
0.000989725
3.75087e-05
0.00107247
0.000675202
0.000746689
0.000478196
0.000700456
0.00033647
1.33861e-09
2.36555e-08
1.71726e-08
9.91528e-07
2.26807e-06
2.719e-06
4.45523e-06
0.0486761
0.00186747
0.00949149
0.00502636
0.000392715
0.000966428
0.000802434
0.00128416
8.32481e-05
8.42267e-05
0.000207479
0.000123876
0.00017168
8.45174e-05
9.34973e-05
4.9863e-05
8.45432e-05
0.000130442
6.57255e-05
5.84385e-05
9.65143e-05
5.024e-05
0.00956006
0.00938807
0.139973
0.0648619
0.101736
0.0534709
0.0490828
0.0260968
0.056099
0.0277866
0.000207479
0.000144422
0.000207479
0.000184401
0.000207479
9.34252e-05
0.000517955
0.000922373
0.000725288
0.000497343
0.000968319
0.000711893
0.000710891
0.000532483
8.59306e-09
1.92601e-08
1.36948e-08
1.72419e-08
0.106805
0.0491278
0.142444
0.0430927
0.00232996
0.00304558
0.00305035
0.0145695
0.0145709
0.0145265
0.00899214
0.0100983
0.0152876
0.0146729
0.0367541
0.0144935
0.0112315
0.0309212
0.0209206
0.0114272
0.0210676
0.00527986
0.00949709
0.0187071
0.942846
0.826337
0.53895
0.146692
0.90398
0.437761
0.792622
0.903743
0.000121497
4.96422e-05
0.000656575
0.000214277
0.00178421
0.00129999
0.937642
0.937642
0.861648
0.744895
0.167603
0.126508
0.155506
0.0754001
0.0203904
0.011955
0.00738529
0.00414256
0.830201
0.834503
0.517537
0.544471
1.33829e-09
2.61451e-08
1.50328e-09
2.38852e-08
2.17666e-06
5.31901e-06
4.85395e-05
4.91825e-05
4.85371e-05
0.000185933
0.393683
0.023704
0.13062
0.0112486
0.0322932
0.0615218
0.0139982
0.0143101
0.973778
0.97375
0.999979
0.999999
0.000924045
0.00108662
0.00132865
0.00246319
0.0778864
0.101531
0.19845
0.376266
0.125208
0.0952682
0.476519
0.307258
1.67217e-07
1.44959e-07
1.10018e-07
3.03872e-07
1.06037e-07
6.7456e-08
0.917605
0.918097
0.940378
0.940121
0.000366327
0.000279309
0.151411
0.152634
3.23697e-05
3.23633e-05
0.973679
0.973682
0.973683
0.970687
0.619424
0.618918
0.617425
0.0433277
0.0782058
0.523798
0.704799
0.0315237
0.0316658
0.694925
0.423906
0.470016
0.0710076
0.687058
0.400292
0.239577
0.324268
0.0511066
0.741827
0.699193
1.78698e-07
8.65472e-08
0.120315
0.1221
0.132376
0.146421
0.378699
0.132671
0.0260004
0.0111363
0.151427
3.75756e-05
2.24657e-05
0.000136719
0.0103503
0.00654526
0.000120458
8.36911e-05
0.000350445
0.000224489
5.3077e-05
0.0001357
2.58381e-05
3.54816e-05
0.00334752
0.00870143
0.00197224
0.0132791
0.00187136
0.000520836
0.00197154
0.00146407
0.000148038
7.89372e-05
0.949443
0.93758
7.79586e-05
0.000158063
0.000795453
0.00156118
3.5148e-07
2.60181e-07
0.954594
0.828085
0.00485818
0.00175785
0.00950016
0.00311621
0.811534
0.954555
0.0033959
0.00639625
0.7709
0.962461
0.000640287
0.00181241
0.00099115
0.00189618
0.970728
0.970998
0.971039
0.971093
8.05967e-05
7.5987e-05
0.000184814
1.15608e-05
0.000166764
6.53814e-06
2.82302e-08
3.19995e-08
1
1
1
1
0.00106104
0.0019891
0.0006339
0.00184704
0.422403
0.0705956
0.264345
0.182568
1.58648e-14
1.9977e-13
2.62405e-13
3.5154e-13
0.0584152
0.076465
0.000183348
0.00059942
0.000351501
0.000447578
0.000351192
0.000619865
0.0084947
0.0118832
0.0103424
0.0254622
0.00042442
0.0007893
0.000246981
0.000329653
0.010393
0.0117112
0.0189755
0.00898502
0.000395
0.000342366
0.00349126
0.0033349
1
0.844911
0.881714
0.938108
0.816939
0.0353692
0.0299178
0.112838
0.105627
0.000153848
0.000108419
6.48997e-05
0.000111133
1.53288e-07
1.61314e-07
3.49737e-05
2.07762e-05
1.52144e-05
1.00667e-05
0.0125935
0.0256129
0.00363512
0.00389345
0.00603166
0.00728437
0.934594
0.937609
0.937642
0.00367257
0.00364236
0.00367257
0.00317701
0.00363542
0.00528585
0.00208047
0.00269545
0.000711423
0.000639531
0.00035775
0.000249829
0.00020548
0.000567856
0.000421012
0.000390104
0.000273933
0.000273933
2.11732e-06
2.04493e-06
2.23197e-06
2.03542e-06
0.00032865
0.000289322
0.00478739
0.00241308
0.0035508
0.00587404
0.0039407
0.0058728
0.000476913
0.000299686
4.13063e-07
2.65344e-07
0.000475388
0.000475351
0.000475351
0.000475388
0.000475419
0.000551222
0.892936
0.726326
0.939614
0.870199
0.000778987
0.000735287
0.000777765
0.000393883
2.95128e-09
7.97423e-09
2.72966e-09
5.70792e-09
0.000209128
0.000356656
8.13126e-05
0.00013473
0.00162086
0.0012786
0.000246802
0.000275936
5.87537e-05
9.99427e-05
1.47179e-05
1.80328e-05
0.000107696
3.91314e-05
7.45916e-05
5.4048e-05
2.02608e-05
2.6194e-05
7.40785e-05
0.000106215
3.04418e-05
2.36198e-05
0.000114294
8.77586e-05
0.000200017
1.14067e-05