/*--------------------------------*- C++ -*----------------------------------*\
| =========                 |                                                 |
| \\      /  F ield         | OpenFOAM: The Open Source CFD Toolbox           |
|  \\    /   O peration     | Version:  v2012                                 |
|   \\  /    A nd           | Website:  www.openfoam.com                      |
|    \\/     M anipulation  |                                                 |
\*---------------------------------------------------------------------------*/
FoamFile
{
    version     2.0;
    format      ascii;
    class       surfaceScalarField;
    location    "0.4";
    object      alphaPhi0.water;
}
// * * * * * * * * * * * * * * * * * * * * * * * * * * * * * * * * * * * * * //

dimensions      [0 3 -1 0 0 0 0];
oriented        oriented;


internalField   nonuniform List<scalar> 
49400
(
-5.66274e-06
-3.36846e-10
5.61763e-06
4.54402e-08
1.30557e-05
3.59794e-06
-2.23164e-05
1.2853e-05
2.02347e-07
-3.42555e-06
1.73114e-05
-8.26825e-06
2.0211e-05
-2.00387e-05
-2.07687e-05
5.09331e-05
-3.55317e-07
8.06827e-06
1.95837e-05
-4.99683e-05
-1.54539e-07
-6.09515e-07
-1.22902e-05
2.29017e-07
1.21488e-05
-8.76953e-08
2.62973e-05
1.15615e-05
-5.01489e-05
2.59168e-05
-1.31285e-05
1.51158e-06
2.37658e-05
-1.32604e-05
4.41404e-08
2.94727e-05
-3.11715e-05
5.6901e-05
-2.68309e-05
4.68513e-07
2.63964e-05
-3.39991e-08
9.21274e-06
1.5605e-05
-5.16486e-05
5.29589e-07
9.15167e-06
4.11771e-05
2.27069e-05
-4.82789e-05
1.73321e-05
5.02413e-05
7.66569e-06
-7.39479e-06
2.58691e-07
-3.72363e-06
2.0541e-05
6.25038e-06
9.06171e-06
1.98589e-05
8.83326e-06
4.87136e-07
-2.00169e-05
4.93911e-05
3.29167e-07
-7.10437e-08
5.07491e-07
-6.96163e-08
-4.28233e-07
9.86784e-07
-3.04471e-07
-8.3529e-07
-3.95587e-07
-1.0924e-06
-2.53211e-07
3.49678e-07
-2.47571e-07
1.82197e-07
-1.06241e-06
-8.91537e-07
5.83818e-07
-1.98667e-06
-2.98634e-11
-1.43458e-10
-8.04322e-11
2.63177e-10
-6.87665e-12
-2.11772e-11
5.93259e-13
-5.2525e-11
-6.65399e-12
5.47954e-11
2.56391e-11
-1.31575e-10
2.05381e-10
-1.20481e-10
1.37761e-11
-8.5151e-12
1.53102e-10
-6.21411e-11
-1.80979e-12
5.29585e-11
-2.68192e-13
8.88657e-11
7.63048e-12
-2.23823e-10
1.78502e-11
7.76915e-11
-4.25817e-11
-1.08462e-10
2.15043e-10
-2.79341e-11
-1.7408e-11
2.74592e-11
-5.83786e-11
-1.25638e-11
-5.64763e-11
-9.54813e-12
-6.2269e-11
1.20069e-10
5.13022e-11
-2.40509e-11
-9.71809e-11
-9.77049e-11
1.071e-10
-2.47037e-11
7.81819e-11
-1.53664e-10
2.29771e-10
-5.56351e-10
-1.27201e-11
2.39599e-11
-8.3233e-12
-1.02645e-08
-8.20353e-09
-9.18111e-09
3.53237e-08
-5.27293e-09
-2.45278e-08
1.82178e-08
-1.7495e-08
3.2459e-09
9.20953e-09
2.05319e-08
-6.70062e-08
4.76109e-08
1.51155e-08
8.89173e-10
-1.24523e-09
6.26232e-08
1.08899e-11
5.8897e-12
-1.69643e-12
-1.66256e-13
-3.48674e-12
-1.63978e-12
1.88098e-11
-2.33995e-12
6.11006e-12
2.24704e-12
3.3918e-12
-1.01278e-11
2.40403e-12
-1.97904e-12
-4.54986e-13
9.94299e-13
-1.35373e-13
9.8388e-15
5.1938e-14
5.99365e-14
-6.30174e-14
4.86488e-13
-4.42984e-13
3.01926e-14
-1.35899e-13
7.46453e-13
4.81312e-14
-1.67378e-13
-2.66491e-13
-6.02665e-14
1.75086e-13
8.09538e-14
-2.17898e-13
4.53939e-14
-2.25542e-06
-1.06331e-05
-5.51858e-06
1.88826e-05
9.09809e-08
-2.40171e-06
-2.68564e-08
-1.32042e-05
2.63058e-06
2.90699e-06
2.71719e-06
-8.14065e-06
2.85343e-06
-2.59611e-18
-1.0365e-05
7.86505e-06
-2.08704e-05
1.27111e-14
3.90477e-15
-3.19304e-16
1.36091e-15
-2.97915e-15
-2.05059e-15
2.24008e-14
-3.81327e-16
2.28998e-15
7.51515e-16
4.44525e-16
-1.11722e-15
3.23003e-15
7.49085e-16
-2.53604e-16
2.27166e-15
-5.85461e-17
-3.05554e-12
-2.8428e-13
1.52474e-12
8.31472e-13
3.22703e-12
2.75126e-12
-1.05505e-11
-1.75277e-13
1.36384e-12
9.72249e-13
-2.59598e-12
-5.61599e-13
-7.6887e-13
2.03211e-12
2.36327e-12
-5.53253e-12
1.87427e-12
2.32857e-08
-3.06563e-09
-3.74979e-08
6.36521e-09
-3.93556e-08
-1.14041e-08
6.59902e-08
-4.04547e-08
-9.26157e-09
3.72955e-08
2.52139e-08
-1.11278e-07
1.34798e-08
2.11402e-08
-3.24151e-08
2.97464e-08
-5.72865e-08
1.6926e-08
1.38033e-08
1.80335e-08
-5.01877e-08
6.07718e-10
1.79888e-08
-2.061e-09
1.43313e-08
-6.68375e-10
-7.01814e-08
-2.23206e-08
1.13495e-07
-4.66177e-08
-6.98604e-09
-2.57071e-08
2.69863e-08
-4.08542e-08
2.30351e-07
-3.84239e-08
-1.68595e-07
-2.83742e-08
-7.13631e-07
-1.44271e-07
1.0815e-06
-1.11836e-07
-6.63869e-07
-8.56338e-07
8.30359e-07
-2.67593e-07
7.05875e-07
-2.49404e-06
1.67424e-07
3.63099e-07
8.09635e-07
-7.76397e-08
3.92092e-07
1.12204e-06
-3.00647e-07
2.57545e-06
9.94671e-10
-7.93848e-09
-1.20217e-08
1.88267e-08
-1.03524e-08
-1.9419e-08
3.05856e-08
-7.72724e-09
-1.08633e-08
-5.84578e-09
1.82219e-08
-2.02541e-08
1.85414e-08
-3.54772e-08
8.23799e-09
-8.2414e-09
1.46229e-08
-2.58905e-08
4.71355e-08
2.29887e-08
-4.24314e-08
7.49087e-08
-1.04792e-07
-5.26149e-10
-4.93171e-08
6.71947e-08
-1.21114e-08
3.96822e-10
-2.28014e-10
6.27718e-10
-9.62729e-10
-4.33509e-10
-2.73968e-12
3.44906e-10
6.61752e-10
-2.65999e-09
3.72953e-10
-4.73683e-10
-1.85918e-10
-8.49672e-10
1.36064e-09
1.11165e-10
-2.91354e-10
-1.41083e-10
4.52763e-11
-1.01629e-11
-1.38191e-10
2.62832e-12
-6.42333e-11
-2.63973e-11
7.8389e-11
-6.33589e-11
-1.19266e-10
1.36356e-10
1.38715e-10
-6.12914e-10
5.69712e-11
1.06471e-11
-4.66954e-11
3.66645e-11
-8.05781e-11
-8.15367e-11
2.66717e-12
1.24367e-11
7.84715e-11
5.77625e-11
8.82699e-12
-1.99332e-10
-1.19388e-13
4.96268e-11
4.20442e-11
-3.09967e-11
-1.24591e-11
-1.13379e-10
2.10597e-10
2.10915e-11
-5.1579e-11
-5.2858e-11
-5.69521e-09
-6.59558e-09
-4.09062e-09
9.62026e-09
3.18464e-10
-1.39339e-08
-2.72845e-09
8.22949e-10
-1.77639e-08
-1.59469e-08
7.14209e-09
3.26611e-09
1.45197e-08
-6.57057e-08
1.34735e-08
-2.56636e-08
1.08127e-08
2.30889e-07
2.82709e-06
-3.51377e-08
-3.95332e-06
4.65522e-06
-4.69149e-06
2.64329e-07
-4.22864e-06
1.18718e-05
-3.26436e-06
4.81988e-06
-9.62615e-08
3.34157e-06
-1.1153e-05
2.4308e-06
-4.21023e-06
2.94121e-06
4.74492e-07
9.57112e-08
-4.12638e-07
-1.03637e-07
-5.116e-07
-1.58373e-07
1.11876e-06
-5.18051e-07
2.59063e-07
5.83731e-07
2.17467e-07
-1.08355e-06
6.39102e-07
-1.20531e-07
-2.93924e-07
7.55402e-07
-4.90114e-07
7.70937e-10
-7.64835e-10
-4.26853e-09
2.77656e-09
-1.70952e-09
-1.82719e-09
4.36774e-09
-2.33515e-10
-2.13931e-09
7.15334e-10
1.21546e-09
-2.17187e-09
5.03826e-09
-6.36871e-09
2.25839e-10
-1.88621e-10
6.54294e-10
2.47406e-09
1.61219e-08
2.63049e-08
-4.33407e-08
3.78617e-08
6.00833e-08
-8.86959e-08
2.93468e-08
3.70996e-08
4.94544e-09
-5.19754e-08
8.06659e-08
-2.79997e-08
7.84186e-08
1.02721e-09
-1.17052e-08
-8.56926e-10
3.19955e-10
2.12889e-10
4.81032e-10
-6.2349e-10
1.49926e-11
6.72303e-10
-1.65165e-10
-3.00121e-11
4.06361e-11
-2.37833e-10
-3.08607e-10
6.45234e-10
-6.67834e-10
1.51463e-09
-4.01859e-10
9.26271e-10
-3.24391e-10
-4.00747e-11
-3.06926e-11
-7.89097e-12
7.04302e-11
-7.83642e-13
-5.01037e-11
6.13547e-12
-1.30148e-11
-1.51372e-11
1.03591e-10
-2.47488e-12
-1.63176e-10
6.55977e-11
3.27109e-11
-2.62983e-11
8.03008e-11
-4.10917e-11
-1.00703e-05
-1.44644e-05
-9.00559e-06
3.29643e-05
-9.76456e-08
-8.60464e-08
-1.16602e-05
-1.41667e-05
-4.83287e-07
-1.35588e-05
1.24377e-05
-9.52456e-08
8.95295e-06
-3.46443e-05
1.022e-05
-1.60853e-05
1.30864e-05
3.83891e-11
1.29365e-11
-3.75853e-11
-4.91075e-12
-9.39822e-11
-7.90113e-11
2.18356e-10
-2.22823e-10
1.67805e-10
3.93307e-11
8.86489e-11
-1.44769e-10
4.5227e-11
-5.83044e-12
-5.35798e-11
5.47231e-11
-1.58291e-10
-4.19689e-10
-2.14834e-10
-2.89492e-10
7.73352e-10
1.85333e-10
-6.48005e-10
-2.22579e-10
-3.96683e-10
1.94807e-10
4.20653e-10
6.7763e-10
-2.17362e-09
1.03848e-09
-5.49066e-10
3.95382e-10
-3.52386e-10
1.01772e-09
-6.6131e-10
-6.01958e-10
-1.0328e-10
1.29508e-09
8.96908e-11
-3.23491e-11
-7.02197e-10
-8.12506e-10
1.77216e-10
1.42058e-09
6.52143e-10
-4.18012e-09
5.75133e-10
5.62379e-10
4.8329e-10
-8.00267e-11
1.08973e-09
-3.87964e-07
-3.13329e-06
4.02632e-07
1.02349e-06
-3.83863e-06
1.90596e-06
-2.10053e-06
2.92327e-06
-1.33024e-05
5.20838e-07
-5.71712e-07
1.16823e-07
-2.63469e-07
1.24861e-06
-7.42743e-07
2.1521e-06
-3.84168e-07
1.4121e-07
-4.81743e-08
-5.34096e-08
1.32653e-07
-1.829e-07
8.42615e-08
3.51502e-07
1.52694e-09
-2.19228e-07
1.95737e-07
-7.78866e-08
-1.31276e-07
-1.73683e-09
4.06166e-07
-1.02249e-07
1.91059e-07
-1.71322e-07
1.71419e-05
1.4113e-05
1.71293e-05
-4.75169e-05
8.73438e-07
-1.03977e-06
1.06051e-05
1.0945e-05
6.89794e-07
1.08456e-05
-1.45926e-06
-4.84835e-06
1.72026e-05
1.46672e-06
2.40479e-05
6.49773e-07
-5.99167e-07
-2.40977e-05
-2.77593e-05
-2.90334e-05
8.08413e-05
-2.67227e-05
-7.87448e-07
-2.93868e-05
-2.44987e-07
2.77226e-05
-8.12065e-05
3.1347e-07
4.59712e-06
4.2878e-07
-7.57238e-07
-1.45647e-07
-6.46994e-07
-6.39359e-07
8.74803e-06
-2.14819e-07
7.86821e-08
3.44731e-07
2.69359e-07
-9.63665e-07
3.56042e-07
2.45273e-08
-5.73672e-07
5.36279e-07
-1.04221e-06
-1.51614e-07
-1.37169e-07
-1.42854e-07
4.08481e-07
-1.00388e-08
-2.02599e-07
3.8633e-08
-1.72693e-07
-7.11213e-09
1.73845e-07
8.44495e-08
-4.48238e-07
1.61096e-07
1.92964e-07
-3.25027e-07
1.9501e-07
6.12117e-08
7.19012e-08
4.72005e-08
-1.77737e-07
6.29666e-09
-6.20225e-09
5.64094e-08
5.26564e-08
1.20402e-08
7.72245e-08
-4.45492e-08
-2.89709e-08
-3.1405e-08
1.61635e-07
-5.50179e-08
7.41337e-08
-5.36913e-08
-1.97771e-08
7.1384e-08
-6.7377e-09
-6.35693e-08
1.88378e-07
-1.57654e-07
-3.21672e-08
-5.71571e-08
3.32145e-07
-1.83927e-08
5.66409e-08
-5.68295e-08
4.50954e-08
-1.33997e-07
1.05938e-07
-2.0342e-07
6.65401e-08
-2.07998e-07
-8.88615e-08
8.08276e-08
1.027e-07
9.48083e-08
-1.67108e-07
-2.63386e-07
1.56557e-07
-2.07908e-07
-5.19769e-07
5.87201e-08
5.93692e-07
-2.23852e-07
-5.16045e-07
6.79666e-07
-9.7534e-07
1.0271e-06
7.38823e-07
-6.6701e-07
-1.58736e-06
6.79105e-07
-1.50447e-06
4.81552e-07
2.52598e-06
-2.88656e-07
-2.34648e-06
3.10588e-06
-1.06438e-06
-1.74398e-06
2.00796e-07
3.07298e-06
-2.60692e-06
3.01474e-06
-2.96183e-06
-2.88887e-08
-3.99685e-08
6.22637e-09
3.75231e-08
-2.11815e-08
2.74887e-08
-8.05041e-08
-2.39868e-08
-9.0592e-08
-1.30201e-07
5.10131e-09
1.17815e-07
-1.3517e-08
-3.03824e-07
5.28124e-08
-1.5548e-07
4.00043e-08
-8.41554e-10
-4.38213e-09
4.70832e-10
4.51812e-09
-5.38252e-09
5.25722e-09
-9.13193e-10
9.58866e-09
-1.98828e-08
4.44836e-08
-4.07404e-08
-7.89515e-10
-9.84447e-09
5.99263e-08
-2.83e-08
2.37788e-08
-6.29741e-08
-2.29613e-09
-1.02598e-09
-2.96493e-10
4.98873e-09
1.67933e-10
-9.49477e-10
-4.19085e-10
-5.6711e-10
7.8996e-11
1.7561e-09
4.3491e-10
-2.44086e-09
2.03145e-09
3.88329e-10
1.02017e-09
-1.48779e-09
3.34756e-09
-7.86169e-10
-5.15449e-10
4.11771e-09
-6.00262e-09
1.73504e-09
3.09267e-09
-7.56992e-09
-3.81429e-10
6.16933e-10
4.82685e-10
-1.42732e-09
8.85944e-10
-1.10063e-09
1.56097e-09
-1.90345e-10
1.63597e-09
1.0834e-09
-2.92012e-08
-1.07034e-08
-6.59229e-10
4.98769e-08
4.27119e-09
-1.12386e-08
-3.89735e-09
-8.24711e-09
1.69346e-08
2.67701e-08
1.03013e-08
-3.02605e-08
1.82319e-08
3.94086e-08
1.23663e-08
-9.24087e-09
4.10204e-08
3.40501e-09
6.38944e-10
-7.9819e-11
-6.27405e-09
-1.46392e-09
-1.70539e-09
5.0389e-09
-5.18319e-09
3.74406e-09
-4.55517e-09
2.2218e-09
1.64084e-10
7.20028e-09
-2.80856e-08
-1.78118e-09
1.46446e-09
-2.43859e-09
-2.48386e-09
4.33967e-09
-2.46876e-08
4.4911e-08
2.36828e-08
-1.21157e-09
-2.15727e-08
-1.61206e-08
4.61464e-08
-2.41092e-08
1.95232e-08
-5.85522e-10
4.71294e-08
-1.01451e-07
-5.12411e-09
6.06297e-09
-5.09394e-09
2.78997e-08
1.96262e-08
1.95917e-08
-6.81128e-08
5.8333e-11
3.32644e-08
-1.16898e-08
1.93456e-08
-1.13988e-09
-3.23622e-08
-7.48695e-09
6.15581e-08
-2.66653e-08
-1.25542e-08
-3.50433e-08
5.87298e-08
-3.38552e-08
1.12167e-08
6.00874e-09
-2.55986e-08
9.54479e-09
-1.83546e-08
-1.49536e-08
4.54598e-08
1.9651e-09
-1.6014e-08
-2.33614e-08
2.44385e-08
-3.48989e-10
3.47344e-08
-7.70692e-08
-1.4901e-08
2.30099e-08
-5.29239e-09
2.16987e-09
1.68875e-08
-9.52013e-09
-1.07226e-08
1.22833e-08
-1.37385e-08
1.81586e-09
-7.0056e-09
3.47857e-08
2.59566e-08
6.4944e-09
1.90991e-08
9.21813e-09
-9.91532e-09
2.30155e-08
-1.3856e-08
-3.49101e-09
-1.21118e-08
4.08502e-09
8.86919e-09
-1.47135e-08
-2.23644e-09
7.57324e-09
2.79575e-09
-3.37711e-08
4.63125e-09
-3.03762e-09
-3.75241e-09
-1.13486e-09
1.07372e-08
-3.99371e-09
5.13456e-09
-4.51251e-09
-3.69091e-09
1.12435e-09
8.44112e-13
4.27911e-09
8.15291e-09
3.03094e-09
-1.45821e-08
5.29584e-09
2.42245e-09
2.49857e-09
-3.06175e-09
1.77554e-09
-1.12148e-09
1.29472e-08
2.86522e-09
-3.22415e-09
7.23631e-09
-1.78436e-11
5.93804e-12
1.80353e-11
-1.55756e-11
2.49307e-11
1.03817e-11
-6.60119e-11
1.42022e-11
1.0324e-11
-5.06904e-11
-6.67744e-12
6.36274e-11
-2.6508e-11
-5.96551e-11
2.10139e-11
-4.25441e-11
2.31832e-11
-1.53634e-11
1.36226e-12
4.88309e-12
-1.98086e-12
1.46726e-11
1.34648e-11
-6.28581e-11
5.33503e-12
2.3807e-12
-7.30584e-12
-3.51063e-12
8.89757e-12
-1.41784e-11
-7.2724e-12
1.21799e-11
-2.8466e-11
7.92513e-12
2.02835e-13
1.31714e-13
-3.72694e-13
-1.11323e-13
-1.01095e-13
-2.19185e-13
4.70769e-13
-8.95764e-13
6.48091e-13
-1.73077e-14
1.14307e-12
-1.8465e-12
2.79791e-13
-5.49985e-13
2.89324e-14
-1.79822e-14
-3.2414e-14
1.15045e-05
4.70185e-08
-1.14003e-05
-1.50674e-07
-7.4831e-06
-8.09382e-06
2.84087e-05
-7.64975e-06
5.03271e-08
1.31276e-05
9.04637e-06
-3.357e-05
1.34893e-05
-5.12145e-07
-5.9984e-06
1.12717e-05
-3.97935e-06
2.9374e-10
-1.36326e-09
-8.65994e-10
2.44385e-09
-2.4305e-09
-1.63005e-09
5.54304e-09
-1.03721e-09
-1.79463e-09
-6.24258e-11
4.29479e-10
-9.6991e-10
5.57454e-09
-7.89608e-09
-4.25725e-10
3.45418e-09
-1.12002e-09
-8.48647e-11
4.0718e-10
-1.19971e-09
1.8004e-09
4.36552e-10
-8.76497e-11
-6.76561e-10
-8.77988e-10
2.30838e-09
-5.97492e-10
6.59951e-10
-3.32965e-10
1.24172e-09
-2.22678e-09
-1.39189e-10
1.57694e-10
8.27607e-12
-7.92702e-06
-1.18221e-06
7.02067e-06
3.3475e-06
3.53008e-06
1.43128e-06
-1.38408e-05
-4.28719e-07
4.53388e-06
2.03012e-06
-2.4284e-06
-1.74788e-06
-6.80734e-07
6.2607e-06
2.91736e-06
-4.94374e-06
8.22806e-06
8.34535e-06
1.92296e-05
8.25724e-06
-5.15172e-05
4.01154e-07
-6.12754e-07
3.48253e-06
1.39954e-05
1.60877e-06
4.0355e-06
-4.61335e-06
-1.78517e-07
-2.47981e-06
9.93225e-06
3.60028e-06
-1.34995e-05
5.26629e-06
-1.03743e-05
1.20936e-05
-1.80264e-05
2.12007e-05
-2.39003e-05
5.11481e-06
-6.61747e-08
-1.53878e-05
3.04073e-05
2.54732e-07
6.74385e-06
1.18389e-07
-6.00387e-06
-5.4313e-08
-4.57684e-06
-2.65767e-06
1.4436e-05
-4.14014e-06
1.41663e-07
7.31799e-06
5.35936e-06
-1.83467e-05
7.49599e-06
-1.30855e-07
-5.32915e-06
1.25547e-05
-4.18343e-06
-6.62423e-06
-2.73805e-07
7.21869e-06
3.59641e-07
4.52294e-06
-1.43684e-05
5.95509e-06
-1.04264e-05
9.83696e-06
-9.0109e-08
4.96478e-09
6.36203e-08
-1.2463e-09
5.2941e-08
3.16445e-08
-2.35323e-07
1.14066e-08
9.83869e-08
4.84786e-08
-3.88722e-08
-1.81882e-09
-4.75788e-08
1.89852e-07
3.07835e-08
-4.45055e-08
4.31023e-08
1.84706e-06
-1.88052e-06
-4.45302e-06
2.20695e-06
-5.51425e-06
2.88969e-06
4.90822e-06
-1.18069e-06
-7.68055e-06
1.14851e-05
-3.46039e-06
-1.24238e-05
1.22924e-06
1.34943e-05
-9.62848e-06
1.37566e-05
-1.44189e-05
-2.75991e-09
1.3198e-09
1.01942e-09
-9.36305e-10
3.10139e-09
2.23106e-09
-1.06104e-08
2.38732e-10
2.75698e-09
-3.57983e-09
1.13965e-09
2.64457e-09
-1.57494e-09
-4.62921e-09
2.92723e-09
-4.33394e-09
3.33142e-09
-4.21126e-10
8.58763e-11
1.22009e-10
-6.92723e-12
6.48906e-10
1.65978e-10
-1.77784e-09
1.26588e-10
3.48666e-10
-8.35043e-11
-4.41786e-11
1.31269e-10
-1.31119e-10
-6.04556e-11
1.55304e-10
-2.76519e-10
1.37903e-10
-3.6417e-11
-3.20785e-10
1.89994e-10
7.43773e-10
-9.35806e-10
1.80981e-09
3.12386e-10
1.55121e-10
-1.14929e-09
9.62966e-10
-5.58172e-10
5.92916e-10
-1.61019e-09
4.20597e-09
-5.00811e-10
1.91192e-09
-7.05077e-10
-2.18241e-08
-2.89906e-09
3.31291e-09
8.10222e-09
1.35195e-08
4.92344e-10
-3.51872e-08
-6.94961e-09
4.26378e-09
1.55462e-08
-5.91321e-09
-1.46291e-08
-1.88637e-09
2.09625e-08
8.41092e-09
-1.67216e-08
4.41992e-09
-2.31425e-10
-1.89563e-09
-1.85937e-10
8.20838e-09
-2.67162e-09
1.14001e-09
4.9033e-09
-2.37147e-09
-2.58585e-09
4.70424e-09
4.66518e-10
-4.62932e-09
-9.36837e-10
1.49265e-08
-2.33378e-09
3.33799e-09
-4.3277e-09
-2.8312e-07
-6.37912e-07
-7.30457e-08
5.84801e-07
6.83457e-08
-4.18343e-07
-4.66815e-07
-1.71849e-06
2.55802e-07
2.22261e-06
1.64567e-07
-4.10381e-06
2.89579e-07
4.69067e-07
5.32875e-07
-1.89665e-06
3.87178e-07
-5.45437e-06
-8.89976e-06
-4.24837e-06
1.85491e-05
5.73844e-07
-5.6278e-06
-4.41453e-07
-8.59198e-06
1.21742e-07
1.484e-05
1.3622e-05
-3.68182e-05
1.52717e-05
-2.63377e-07
-2.00641e-06
1.30464e-05
5.90701e-06
-6.60333e-09
3.92087e-08
-1.01679e-07
3.52328e-08
3.02885e-08
-9.77792e-08
-3.73323e-08
-6.31219e-08
9.15511e-08
1.00203e-07
4.44892e-08
-2.8795e-07
1.27929e-07
-1.41794e-07
5.98289e-08
-1.45028e-07
9.56715e-08
-9.14195e-15
-1.39063e-15
-6.33446e-16
8.22464e-15
2.07344e-15
-3.16868e-15
-1.38269e-14
-1.68895e-15
3.80649e-16
3.10281e-15
1.05529e-15
-8.32276e-15
1.14013e-15
1.05778e-15
3.87062e-15
-9.25045e-15
2.85854e-15
-6.92069e-16
-1.36607e-16
-9.93924e-17
6.47475e-16
1.3527e-16
-4.06847e-16
-8.9309e-16
-3.3019e-16
4.68199e-17
4.68015e-16
1.03175e-16
-1.34468e-15
1.4044e-16
1.77565e-16
4.11911e-16
-1.08807e-15
2.68608e-16
-3.92383e-12
-1.24375e-12
3.35379e-12
1.82021e-12
2.68603e-12
1.78068e-11
-2.36352e-11
3.20382e-12
-1.68977e-12
-7.00104e-13
-2.74436e-12
6.43202e-12
-4.75111e-12
5.58798e-12
-9.88363e-13
1.39295e-11
-5.92089e-13
1.0969e-09
-1.25928e-09
4.56792e-09
-5.6158e-09
-9.32998e-10
1.30953e-09
2.53625e-10
8.92547e-10
-3.58175e-09
-8.68736e-10
-9.99842e-10
2.89746e-09
-9.12802e-10
9.39018e-12
-7.39042e-10
3.82737e-09
-9.74036e-10
-4.80872e-08
-1.15466e-08
3.57813e-09
3.3182e-08
4.16952e-08
-3.82633e-08
-9.66974e-08
-2.0358e-08
2.77237e-08
8.03151e-08
5.75315e-09
-1.25571e-07
1.46481e-08
7.78038e-08
6.88277e-08
-1.47985e-07
6.22743e-08
1.38357e-08
-6.74108e-08
-1.31688e-07
1.56062e-07
-8.39705e-08
-9.23235e-08
1.6353e-07
-1.26366e-07
-7.52353e-08
6.29423e-08
1.60212e-07
-4.7137e-07
1.36956e-07
-2.59855e-07
-3.6718e-08
5.82025e-08
-5.71845e-08
9.74523e-07
4.06395e-06
-2.58423e-06
-2.09634e-06
8.15002e-07
-9.85055e-08
3.23901e-07
-1.75072e-07
4.37084e-06
9.95228e-07
2.75665e-07
-1.69689e-06
4.67451e-07
7.6413e-07
-8.52777e-07
1.04881e-06
-3.30262e-06
-4.65858e-07
-3.50192e-07
-3.71288e-08
9.72498e-07
7.94704e-08
-4.11623e-07
-2.42236e-07
1.52753e-07
-1.93764e-07
-4.72019e-07
1.77231e-07
4.95505e-07
2.3228e-07
-7.35699e-07
1.77559e-07
-2.8464e-07
3.44938e-07
1.05207e-09
7.43572e-08
-2.12535e-09
-8.92538e-08
9.35639e-08
-8.96886e-08
7.78321e-09
-8.0091e-08
2.48764e-07
-1.30558e-07
1.20481e-07
-4.84489e-09
6.65093e-08
-2.8972e-07
6.24447e-08
-8.91082e-08
1.04748e-07
-5.00656e-09
-6.73516e-07
2.39717e-08
9.05405e-07
-1.17228e-06
1.10253e-06
2.32713e-07
1.85145e-07
-1.95145e-06
1.30069e-06
-8.90896e-07
8.78827e-08
-4.68019e-07
3.14677e-06
-7.60292e-07
1.97581e-06
-9.58771e-07
2.81932e-07
-3.16067e-07
-6.65198e-07
1.59387e-07
-4.69471e-07
5.53764e-08
3.84505e-07
2.08606e-07
-1.65676e-06
9.99075e-07
-7.64693e-07
-1.88943e-06
4.03256e-09
6.96969e-07
-7.23956e-07
4.41348e-07
-2.10966e-06
-1.6966e-08
1.56406e-10
1.64761e-08
-1.3719e-10
1.97731e-08
3.6615e-08
-7.55323e-08
-7.17039e-10
1.98632e-08
1.08024e-07
-1.15493e-07
1.09101e-08
-3.82262e-08
1.71275e-07
4.38526e-08
-1.18965e-07
2.1676e-08
-8.06167e-09
-1.78571e-05
1.81053e-05
-2.92157e-07
-1.44963e-05
1.46089e-05
-1.10008e-07
1.06372e-05
-4.29843e-05
-1.69482e-05
-1.03859e-05
4.08807e-05
-1.70387e-05
-2.75498e-07
-1.48372e-05
2.25774e-05
-2.144e-05
-2.13866e-09
-1.09788e-09
7.34724e-11
3.02496e-09
5.57554e-10
-2.24753e-10
-2.74685e-09
-1.11381e-09
3.47316e-10
1.75721e-09
2.75063e-10
-4.31092e-09
1.0606e-09
8.5638e-10
1.5288e-09
-2.31971e-09
2.53176e-09
-3.76192e-09
2.37627e-09
1.21769e-10
1.03691e-09
2.34046e-09
-5.46109e-09
-2.76343e-10
4.49625e-09
-2.2983e-10
-5.03775e-09
9.44759e-11
8.5853e-09
1.30929e-09
-7.288e-09
6.73902e-09
-9.17909e-09
8.54781e-09
-3.56879e-07
-1.17516e-07
8.71027e-08
2.11143e-07
3.47604e-07
8.70411e-08
-1.35607e-06
-9.25665e-08
1.31187e-07
1.41955e-07
-2.17608e-07
-1.9402e-07
-1.94467e-09
1.45727e-07
1.32702e-07
-4.21494e-07
1.17694e-07
-8.81379e-06
1.92391e-07
8.09967e-06
4.52509e-09
7.69128e-06
4.62108e-06
-2.11212e-05
7.5372e-06
1.3573e-07
-1.3503e-05
-1.16879e-05
3.33022e-05
-1.31881e-05
-2.83804e-07
6.16239e-06
-1.49275e-05
2.11228e-06
9.70122e-08
1.24908e-05
-1.24402e-05
7.01705e-06
-5.65552e-06
1.18649e-08
2.20012e-05
1.31402e-05
-4.66893e-05
-9.90598e-06
9.66723e-06
-9.75142e-08
-9.21481e-06
-3.33921e-07
-7.56791e-06
-3.26122e-06
2.05018e-05
-7.79313e-06
1.34177e-07
1.91127e-05
1.69012e-05
-4.52113e-05
1.90792e-05
-2.82182e-07
-8.24955e-06
2.40727e-05
8.6367e-07
4.7492e-06
-6.15161e-08
-5.26683e-06
-5.18781e-06
-5.1255e-06
5.43661e-06
-1.40928e-07
-9.52073e-06
2.35608e-05
-1.89203e-05
-5.9499e-06
-1.04321e-05
3.55607e-05
5.78917e-07
-1.91909e-05
-8.01061e-07
3.33276e-05
-3.94222e-05
4.0674e-05
-3.40187e-15
1.06855e-15
3.2326e-15
-1.38497e-16
4.65406e-15
9.42924e-16
-8.57451e-15
2.27081e-15
3.76578e-15
-7.12778e-16
-8.70816e-16
4.98036e-15
-6.4242e-16
-2.52566e-16
7.03445e-16
-4.38906e-16
2.12757e-15
1.27886e-12
-4.25337e-14
-1.35426e-13
-4.5404e-13
-1.11573e-14
-1.09698e-12
2.75676e-12
-1.5786e-12
2.68341e-12
-3.90038e-13
1.24587e-12
-5.04404e-13
4.77385e-13
-3.30549e-13
-1.568e-13
1.94532e-13
-5.39154e-13
-3.28591e-13
-7.2504e-14
2.69693e-13
1.13101e-13
1.85074e-13
6.09643e-13
-1.14963e-12
2.84509e-13
-1.8082e-13
-1.27813e-13
-3.82647e-13
7.72775e-13
-7.48307e-13
6.81041e-13
2.86217e-13
-4.78316e-13
1.54285e-13
2.07036e-13
2.86194e-13
2.23784e-14
-4.73393e-13
5.46738e-14
-8.86479e-14
1.55431e-13
1.11031e-13
3.21352e-13
-3.02547e-13
-2.81272e-13
-6.64457e-14
3.81109e-13
-4.42546e-13
2.70971e-13
-6.99764e-13
-2.10197e-09
-6.70564e-10
-6.79013e-10
3.75049e-09
-4.26323e-12
-1.89176e-09
-1.6249e-10
-7.58829e-10
-3.90133e-11
4.33461e-09
1.24293e-09
-7.10117e-09
2.31819e-09
1.99677e-09
9.76871e-10
-7.05581e-10
2.36272e-09
1.21802e-08
2.00061e-08
-5.29013e-09
-2.63514e-08
3.92782e-09
6.66205e-09
-3.22407e-09
5.36568e-09
1.92073e-08
-8.97057e-09
-1.95496e-09
1.45888e-08
-7.09545e-09
-9.7236e-09
-1.22578e-08
1.60795e-08
-2.42367e-08
4.83981e-10
-7.99889e-11
-5.83893e-10
1.73481e-10
-8.6378e-10
-2.60925e-10
1.58601e-09
-1.31322e-09
-2.16546e-10
1.74075e-09
6.09065e-10
-3.08092e-09
5.58577e-10
1.18584e-09
-1.59522e-09
1.80461e-09
-2.64507e-09
-5.60526e-09
1.33749e-09
7.45275e-09
-3.55887e-09
5.69142e-09
1.22868e-08
-2.46065e-08
2.30515e-09
3.78854e-09
3.75218e-09
-1.38834e-08
1.12468e-08
-7.03913e-09
1.40021e-08
4.88544e-09
-7.82492e-09
5.19222e-09
1.60025e-08
-1.92162e-06
1.11242e-07
1.73581e-06
-2.85052e-06
2.52609e-06
3.01267e-07
3.57486e-06
-8.38842e-06
3.34013e-06
-3.75673e-06
5.31749e-07
-1.37694e-06
6.4876e-06
-2.25088e-06
3.37182e-06
-2.80976e-06
3.86279e-06
-3.5191e-06
1.91887e-07
-4.09352e-06
1.09439e-05
3.72189e-06
-1.00483e-05
4.21832e-06
-3.02797e-07
3.8269e-06
2.68835e-07
4.28046e-08
-1.6272e-09
-3.0379e-07
-1.89537e-07
4.16174e-08
5.37581e-07
-7.07786e-08
6.70107e-08
1.3993e-07
-3.25522e-08
-2.39045e-07
7.3853e-08
2.16188e-07
-1.59476e-07
3.38083e-07
-2.0523e-07
-3.59548e-09
1.63669e-09
8.13262e-09
-5.18536e-09
2.61574e-09
2.36696e-09
-8.59789e-09
1.68715e-09
3.39924e-09
1.49608e-10
-3.26933e-09
5.42537e-09
-4.31493e-09
8.28979e-09
1.61293e-09
-2.51547e-09
5.42528e-09
-1.96436e-07
-1.50649e-07
-1.1948e-07
4.7002e-07
1.04508e-08
-1.38079e-07
-1.13969e-08
-1.29439e-07
-4.99913e-09
8.72304e-08
6.57246e-08
-2.78941e-07
1.09051e-07
-2.31733e-08
8.66401e-08
-1.53807e-07
1.0199e-07
3.89585e-08
-1.4815e-07
3.88846e-07
-3.10559e-07
-3.29074e-07
3.24522e-07
1.77976e-08
6.10417e-07
-1.12603e-06
-3.14862e-06
-8.38428e-07
4.35453e-06
-3.35834e-06
-2.159e-09
-8.52442e-07
4.71004e-07
-3.08205e-06
6.22646e-09
4.14539e-09
5.75939e-10
-2.05136e-08
-1.31659e-09
6.30256e-10
3.3268e-09
1.0853e-09
-5.026e-10
-1.55931e-09
4.88024e-10
1.12114e-09
-1.22457e-09
-3.29776e-09
-2.64146e-09
1.9849e-09
-7.67688e-09
-2.97654e-08
-5.51944e-08
-2.87358e-08
1.08967e-07
-1.06796e-09
-1.96806e-08
-9.08257e-09
-5.79003e-08
-4.9784e-09
1.56074e-07
2.84915e-08
-2.51286e-07
1.40552e-07
-8.17803e-09
4.59444e-08
-4.08284e-08
1.48745e-07
5.76548e-08
1.12823e-09
-1.07105e-07
-1.29054e-09
-6.7678e-08
-4.04863e-08
1.41892e-07
-1.07076e-07
1.86699e-08
8.24984e-08
9.1008e-08
-3.22087e-07
4.98061e-08
1.19876e-09
-2.85837e-08
3.117e-08
-5.03954e-08
-3.81779e-10
-3.00583e-09
-4.66091e-09
1.06119e-08
-3.71604e-09
-7.32486e-09
1.2282e-08
-1.86819e-09
-2.54045e-09
-2.12147e-09
8.35028e-09
-7.7022e-09
3.6236e-09
-6.78551e-09
1.32866e-10
1.04267e-09
2.18942e-11
-8.15972e-11
-2.88535e-12
3.72501e-11
1.43489e-10
-7.95531e-12
2.00603e-10
-2.76138e-10
3.61467e-10
-3.74425e-10
1.35289e-10
-1.88014e-10
5.39596e-10
-2.251e-10
7.55323e-10
8.83266e-11
-2.34848e-11
2.64179e-10
-1.05507e-05
-1.0761e-08
1.01286e-05
4.61901e-07
9.80568e-06
6.39772e-06
-2.69909e-05
9.74665e-06
5.99625e-08
-1.53236e-05
-1.31556e-05
3.69522e-05
-1.62307e-05
5.79777e-07
6.98348e-06
-1.71551e-05
3.54008e-06
1.83152e-07
1.36988e-05
-1.54273e-05
8.53176e-06
-1.16745e-05
1.20046e-06
2.47153e-05
1.85284e-05
-6.06604e-05
-1.0301e-05
-4.12917e-09
2.86354e-08
6.08621e-09
-8.49923e-08
2.91408e-08
-6.06642e-08
-2.26167e-08
-1.14046e-08
3.69699e-08
-7.73971e-08
2.42867e-08
1.83469e-08
3.90971e-08
-2.90974e-07
8.03768e-08
-1.90755e-07
5.78484e-08
-1.35713e-08
2.55589e-09
1.0792e-08
-6.5386e-10
1.84072e-08
4.24718e-09
-4.09015e-08
7.41856e-09
1.1648e-08
-1.55985e-08
-7.88789e-09
3.27637e-08
-9.02651e-09
-6.85214e-09
9.96313e-09
-1.58349e-08
8.39799e-09
-3.76258e-09
-1.12664e-09
2.15456e-09
6.69892e-10
8.57301e-10
5.38468e-09
-1.0961e-08
4.35677e-09
-6.0647e-09
-1.5372e-09
-1.69006e-09
4.03816e-09
-4.65843e-09
1.4461e-09
9.69571e-10
-1.96144e-09
2.38496e-09
-1.62044e-16
1.1472e-15
-9.91429e-16
2.52748e-16
1.26484e-15
-1.27068e-15
-9.7019e-17
-4.50734e-15
-6.6301e-15
7.37932e-16
-2.91615e-15
-5.65293e-15
2.29507e-15
-1.11444e-14
-6.0685e-15
-1.16127e-14
-1.50197e-15
2.00075e-14
-2.21738e-15
-7.54035e-15
5.55959e-15
-9.16797e-16
-8.97177e-15
1.17156e-14
-2.48579e-14
7.54586e-15
-1.72124e-14
2.8254e-14
-1.38541e-14
-4.42661e-14
-9.15704e-14
-1.68745e-13
-1.39271e-13
6.90172e-14
-2.90494e-13
-1.23266e-05
-1.00447e-05
-1.03652e-05
3.27888e-05
-3.3032e-07
-1.28635e-05
8.68147e-07
-9.79777e-06
-5.2991e-07
9.55239e-06
7.54804e-06
-2.69067e-05
1.02574e-05
-1.18893e-06
5.46892e-06
-1.07839e-05
5.38138e-06
-6.09471e-11
-1.84467e-12
3.71858e-11
1.6266e-11
1.8996e-11
1.23447e-11
-9.41569e-11
-9.23503e-13
2.27778e-11
2.4875e-11
-2.27418e-11
-2.01708e-14
-9.10017e-12
5.94326e-11
4.64774e-11
-4.90416e-11
6.7857e-11
1.1538e-14
-3.74451e-14
-3.33072e-14
4.04809e-14
-6.29708e-14
3.08928e-14
3.21197e-14
1.06888e-14
-1.24781e-13
1.3829e-13
-4.17168e-14
-1.97512e-13
-1.07135e-14
1.63359e-13
-4.49949e-14
5.49751e-14
-8.96617e-14
7.02495e-13
5.60293e-13
1.23114e-12
-3.14531e-12
-1.80931e-12
8.89096e-13
8.17945e-13
3.81311e-12
-6.79165e-12
-1.30481e-13
-1.83307e-12
2.30332e-12
-1.02987e-12
1.21344e-12
-4.95393e-13
1.66372e-12
-4.78843e-13
-5.14538e-11
-1.09638e-10
-1.04087e-10
2.0738e-10
-2.09226e-11
-2.06917e-10
9.60398e-11
-2.01219e-10
-1.41385e-11
1.54523e-10
3.0777e-10
-7.64455e-10
1.30675e-10
-4.42537e-11
9.40853e-11
-1.59003e-11
7.16647e-11
6.45841e-10
4.74991e-09
-3.04903e-10
-5.16463e-09
3.77745e-09
-6.3784e-09
3.20414e-09
-2.59285e-09
1.10822e-08
-5.95091e-09
6.746e-09
-6.96627e-09
7.30921e-09
-2.40251e-08
3.28176e-09
-6.55056e-09
7.40652e-09
6.80299e-10
3.48168e-10
3.26636e-10
-1.35519e-09
-1.32914e-10
3.35374e-10
4.77755e-10
2.16182e-10
-1.07774e-12
-2.83172e-10
-2.83223e-10
7.82495e-10
-3.81695e-10
6.67959e-10
-7.07129e-10
1.08931e-09
-7.31536e-10
1.26715e-09
1.51434e-09
1.46872e-09
-4.25022e-09
-5.12314e-10
1.33271e-08
-3.95194e-09
2.09625e-09
-1.09424e-09
-2.01121e-09
-1.35849e-09
5.90508e-09
-3.39112e-09
2.85658e-10
-7.29484e-10
1.55859e-08
-2.65188e-09
-6.52247e-08
-8.57323e-08
8.77057e-08
1.0871e-08
1.57155e-07
4.37153e-07
-7.78308e-07
-1.80214e-07
1.62158e-07
3.53102e-07
-1.59852e-06
6.89897e-07
-4.2795e-07
8.15043e-07
3.93528e-07
-1.67317e-06
1.60054e-08
2.13581e-07
-1.00177e-07
-1.48112e-07
1.85784e-08
-2.39148e-06
-7.28915e-07
3.53038e-06
-2.70259e-06
6.98795e-07
2.17308e-07
4.43732e-07
-8.2895e-07
2.29408e-07
-3.59524e-09
-7.91345e-07
3.93806e-07
-2.55358e-06
-8.77161e-06
-5.59265e-08
8.6793e-06
1.73126e-07
1.89179e-05
5.54976e-06
-3.32061e-05
1.8923e-05
5.5096e-08
-1.70606e-05
-2.73327e-05
6.34242e-05
-2.24704e-05
-8.54691e-08
-5.18197e-06
-1.34355e-05
-2.24505e-05
8.73219e-06
-1.60203e-07
-8.75686e-06
2.12826e-07
-1.46302e-05
-5.58856e-06
2.86077e-05
-1.53987e-05
-6.36187e-07
5.93204e-06
-3.21523e-05
1.75005e-05
-3.16265e-05
3.20695e-05
3.12238e-05
-7.72993e-05
-8.38353e-07
1.29463e-05
3.07164e-05
-7.178e-05
-2.07715e-07
1.46344e-07
-3.27971e-11
5.55136e-10
2.55933e-10
-4.51138e-10
6.01495e-10
-6.81697e-10
4.13052e-10
4.51414e-10
1.61659e-09
-4.01783e-10
7.07758e-10
1.48883e-10
8.91789e-10
-1.47013e-09
1.46331e-10
-6.4976e-11
1.53797e-09
-1.19263e-05
-1.26691e-05
-8.24441e-06
3.33964e-05
9.90296e-08
-1.19343e-05
-1.14745e-07
-1.26083e-05
4.74071e-08
1.70444e-05
1.24948e-05
-4.21406e-05
1.71708e-05
-1.01466e-07
8.67434e-06
-9.01503e-06
1.78061e-05
1.26842e-05
1.56582e-05
5.66692e-06
-3.30349e-05
4.65735e-07
1.43634e-05
-3.21209e-08
1.6676e-05
7.26791e-07
-1.8423e-06
-4.86327e-06
2.23765e-05
-1.86806e-06
-2.78435e-08
5.52039e-06
-1.62548e-06
1.70904e-05
2.33456e-08
6.34392e-08
1.36851e-08
-1.03117e-07
-2.26805e-09
1.30327e-10
2.38931e-08
5.54846e-08
1.33105e-09
1.7555e-08
-1.70505e-08
-1.3095e-09
-1.26557e-08
5.30198e-08
-3.41528e-08
7.51791e-08
-3.93595e-08
3.88927e-10
2.23701e-09
1.84322e-10
-2.23391e-09
1.17301e-09
-1.07774e-09
2.93389e-10
-2.03961e-09
4.49555e-09
-3.28971e-09
3.03031e-09
7.75963e-10
1.47763e-09
-7.22614e-09
9.05523e-10
-5.08817e-10
2.15222e-09
-6.5766e-06
-1.40358e-05
-4.07934e-06
2.46872e-05
4.36899e-07
-6.75993e-06
-2.45026e-07
-1.39085e-05
2.93829e-07
-4.16558e-06
-2.40582e-05
2.41512e-05
-2.30703e-05
1.21482e-05
2.42867e-05
-6.12967e-05
6.39779e-07
1.16403e-05
2.97123e-07
-2.41725e-05
3.00028e-07
-1.60601e-08
-1.26239e-08
-1.03539e-08
3.45836e-08