/*--------------------------------*- C++ -*----------------------------------*\
| =========                 |                                                 |
| \\      /  F ield         | OpenFOAM: The Open Source CFD Toolbox           |
|  \\    /   O peration     | Version:  v2012                                 |
|   \\  /    A nd           | Website:  www.openfoam.com                      |
|    \\/     M anipulation  |                                                 |
\*---------------------------------------------------------------------------*/
FoamFile
{
    version     2.0;
    format      ascii;
    class       volScalarField;
    location    "0.4";
    object      p;
}
// * * * * * * * * * * * * * * * * * * * * * * * * * * * * * * * * * * * * * //

dimensions      [1 -1 -2 0 0 0 0];


internalField   nonuniform List<scalar> 
24700
(
-406.717
-446.019
-356.877
-420.925
-439.067
-318.956
-369.642
-427.392
-458.632
-469.538
-433.756
-460.532
-451.518
-389.214
-415.85
-440.349
-424.076
-230.47
-260.736
-270.108
-210.533
-195.415
-263.081
-246.946
-178.941
-223.661
-214.226
-214.38
-208.05
-64.7383
-48.0113
-63.5544
-86.3695
-77.6781
-98.8614
-84.5226
-1.45012
-1.78647
-1.85395
-1.65825
-1.83946
-1.76391
-1.79568
6.33323
6.37103
6.32822
6.23287
6.33428
6.37954
6.29124
4.29401
4.30796
4.41424
4.20843
4.3279
4.25445
4.37266
-4.41194
-3.05931
-4.89762
-6.32545
2.32346
-4.19034
-4.72644
-1.26683
-1.00487
-1.199
-1.33772
-1.38865
-1.2144
-1.30137
-2.14092
-2.1298
-2.19421
-2.08953
-2.12522
-2.15311
-2.10957
-42.1495
-7.79029
-32.0919
-24.538
-4.42852
8.43322
-47.9949
-2.54447
-2.48376
-2.55032
-2.55526
-2.52948
-2.50691
-2.5633
-2.14676
-2.06358
-2.11673
-2.09951
-2.15454
-2.0774
-2.15141
-2.53776
-2.20029
-2.49213
-3.13348
-2.5574
-2.46286
-2.77964
2.0154
2.59024
2.26878
1.90179
2.01392
2.42108
2.11731
-6.8331
-12.8907
-6.32258
-3.0668
-4.30702
-4.46624
-6.43304
-7.92363
-9.12617
-16.4584
-6.23551
-6.35186
-5.77083
-5.09806
-5.47204
-5.6098
-6.44228
-6.00435
-5.99554
-7.15023
-7.37904
-6.50812
-2.63966
-2.73666
-2.70894
-2.75617
-2.85574
-2.76881
-2.73396
-2.07665
-2.12799
-2.07578
-2.02699
-2.06777
-2.09817
-2.0444
6.31648
6.36942
6.33153
6.32794
6.22694
6.38014
6.28975
7.84278
7.66919
7.83674
7.95036
7.88031
7.94969
7.86439
-24.7871
-1.26788
4.83613
-65.056
-24.2355
-13.4332
-29.6653
-122.019
-114.989
-133.082
-128.537
-130.579
-123.228
-129.665
-168.921
-168.76
-168.742
-168.604
-168.653
-168.676
-168.735
-166.541
-165.457
-165.781
-164.532
-165.958
-165.202
-166.384
7.18164
7.15244
7.17897
7.20585
7.21052
7.18263
7.20724
6.7733
6.83215
6.80015
6.85318
6.81774
6.76234
6.82258
-2.78534
19.4407
25.6898
13.1488
0.0483933
13.9465
3.25231
5.6087
5.56181
5.61287
5.66167
5.62745
5.58928
5.61818
7.07079
7.07999
7.0492
7.04406
7.09315
7.03878
7.07663
7.67645
7.73589
7.7321
7.76784
7.79988
7.72932
7.74296
10.4164
-6.50944
8.6729
10.4421
12.8759
7.09322
7.07503
-138.633
-146.719
-143.742
-138.047
-133.659
-140.024
-141.979
-202.574
219.222
-153.052
-285.844
-158.776
-253.991
7.68095
-141.107
-13.7299
-236.625
1.81932
-86.1525
-160.571
-159.541
-153.53
-155.039
-158.136
-161.619
-159.754
-160.284
-161.912
-160.351
-160.344
-158.483
-160.584
-155.948
-165.683
-165.426
-165.296
-164.304
-164.586
-165.807
-165.162
-160.72
-160.888
-164.54
-158.58
-156.749
-159.484
-162.286
-158.924
-159.457
-156.759
-158.427
-155.151
-157.699
-160.564
-130.04
-147.265
-149.536
-122.026
-117.978
-133.218
-137.424
3.96893
3.59013
3.27576
2.61378
2.32378
3.27279
3.48338
6.88442
6.98692
7.08836
6.8084
6.72431
6.97772
7.06411
0.798429
0.707676
0.703141
0.618028
0.706953
0.668733
0.72502
-0.460915
-0.469282
-0.449299
-0.430943
-0.492929
-0.44739
-0.47901
-1.77224
-2.32634
-2.11071
-1.93233
-2.5066
-2.03477
-1.89065
-2.02004
-2.04784
-2.01925
-2.01882
-1.95716
-2.05023
-1.96114
-3.70832
-2.91058
-2.4159
-2.44021
-2.88419
-2.49947
-3.01406
-1.53132
-1.17465
-1.53522
-2.13674
-1.91552
-1.61572
-1.68825
-2.68067
-2.79095
-2.39119
-2.44644
-2.64835
-2.67467
-2.71281
-3.03346
-3.08207
-3.25579
-2.92055
-2.91199
-3.05784
-2.88152
-2.65989
-2.45652
-2.63373
-2.53966
-2.60981
-2.68367
-2.6289
-2.77152
-2.73145
-2.74073
-2.81913
-2.75727
-2.80631
-2.75482
-2.61359
-2.58707
-2.60988
-2.64904
-2.62125
-2.60435
-2.63137
-2.11907
-2.0638
-2.15037
-2.15173
-2.10105
-2.08175
-2.15422
-2.15072
-2.17911
-2.07722
-2.13289
-2.20277
-2.24322
-2.10388
10.5637
-3.72058
7.17222
-7.52812
7.50903
0.434055
12.4724
7.27206
7.24205
7.31416
7.36889
7.35922
7.20057
7.21214
7.40076
7.49332
7.49035
7.56995
7.51843
7.50738
7.47257
-76.6379
-54.5143
-34.0106
-44.0132
-11.3948
-60.6489
-40.537
-73.0747
-114.042
-95.7882
-103.289
-107.901
-44.1344
-77.0507
-79.9367
-87.9381
-51.0415
-73.8328
-72.482
-113.484
-110.567
-126.552
-115.855
-110.765
-117.8
-131.186
-155.67
-130.884
-137.444
-125.839
-136.315
-125.668
-130.271
-130.698
-135.475
-138.267
-131.705
-130.301
-78.5523
-100.075
-101.891
-66.9457
-67.8966
-77.4389
-85.1799
6.0937
5.76116
6.06307
6.5754
6.4296
6.10287
6.36651
7.66629
7.72149
7.52509
7.7378
7.76145
7.75232
7.65585
0.5973
0.582993
0.555379
0.613382
0.638364
0.651853
0.585644
-0.423084
-0.606609
-0.490398
-0.526326
-0.264106
-0.617373
-0.383987
-1.65455
-1.66516
-1.76395
-1.56999
-1.91406
-1.73895
-1.71447
2.10672
0.598599
9.61186
6.86942
5.13106
5.3297
-0.815182
16.0081
26.2112
62.4252
41.652
8.22896
-4.35066
-35.9363
-2.13209
-2.1422
-2.06713
-2.63276
-2.03555
-2.4047
-2.34054
-2.82636
-2.80074
-2.78841
-2.75381
-2.77844
-2.78
-2.80392
-2.69999
-2.6752
-2.66811
-2.63054
-2.6557
-2.65022
-2.67503
4.68474
4.8555
4.75901
4.5062
4.63071
4.72362
4.65546
7.68459
7.69369
7.71038
7.54911
7.68874
7.50051
7.67202
8.72482
8.39186
8.38766
8.74744
8.22748
8.42496
8.50115
10.3529
11.4133
14.0616
14.008
14.0029
11.7446
10.6585
-67.9873
-47.2849
-25.995
-67.2465
-64.9584
-47.0868
-66.8604
-109.551
-122.509
-124.426
-134.758
-122.197
-123.803
-122.741
-160.64
-159.797
-159.943
-159.507
-158.739
-158.683
-160.464
-156.255
-152.63
-157.563
-160.576
-152.365
-143.111
-154.509
-7.48195
-22.9359
-15.0912
9.63395
5.68912
-0.488205
-1.58437
7.67884
7.87565
7.87033
7.90109
7.58321
8.31836
8.04972
17.0397
15.1346
4.24879
0.710141
20.8287
-2.68684
4.92951
2.17212
2.01769
2.05996
2.04853
2.10691
2.02688
2.10798
0.386823
0.0491581
0.0207685
-0.101116
-0.211791
-0.054726
0.158637
-2.1692
-2.98424
-1.06719
-1.63801
-2.33688
-2.34279
-3.01444
38.2344
66.4513
22.8375
23.6236
31.4865
35.6208
14.4162
28.0077
6.97455
3.03138
27.5986
40.1157
-75.6424
-40.6396
3.84642
6.22203
-33.8595
12.5169
28.5806
28.4346
39.3447
0.0923832
24.2021
26.4175
6.45515
-12.1028
-17.6529
30.6986
22.4058
-2.65434
-2.61632
-2.64113
-2.68689
-2.66131
-2.63589
-2.66037
-2.14786
-2.14944
-2.11092
-2.18347
-2.15396
-2.16474
-2.13445
3.21159
3.38681
3.29934
3.03175
3.17931
3.28942
3.17403
3.48104
3.3384
3.32549
3.39111
3.18714
3.26371
3.45143
6.10456
6.19689
6.14996
6.25904
6.23175
6.2129
6.17018
6.54954
6.57889
6.60268
6.39914
6.44105
6.46981
6.62837
7.50455
7.61071
7.49518
7.47019
7.48607
7.59897
7.4852
7.34232
7.24617
7.39954
7.51987
7.54402
7.28434
7.47263
175.771
168.862
161.657
152.101
177.9
181.069
146.101
142.692
144.397
135.014
133.677
153.151
-138.888
-145.151
-136.165
-134.85
-129.863
-136.643
-137.682
-168.14
-168.647
-168.157
-168.206
-167.874
-168.588
-168.196
-162.358
-159.558
-158.837
-160.767
-161.05
-158.156
-161.208
-35.0447
-29.9879
-34.7535
-53.365
-37.1026
-42.8714
-43.3703
17.2366
16.8689
17.3548
17.3974
17.5963
17.1052
17.4574
16.0808
16.1061
16.5719
15.6925
16.5179
16.1934
15.5803
4.83235
5.04532
5.00989
5.28919
4.80236
5.19026
5.26501
2.39659
2.32947
2.38305
2.2964
2.40921
2.33192
2.36763
1.56201
1.56865
1.48568
1.56424
1.64204
1.6073
1.52269
65.8658
127.16
48.647
74.8228
47.9954
69.9695
51.8311
75.9423
38.6055
50.1144
79.9042
82.0331
-1.23555
-1.05579
-1.28698
-1.59649
-1.96624
-1.22086
-1.5596
-2.28071
-2.33077
-2.33628
-2.29628
-2.27233
-2.3757
-2.32253
-2.24397
-2.27927
-2.26548
-2.31294
-2.25262
-2.239
-2.27863
-2.89154
-2.90213
-2.93355
-2.87729
-2.90271
-2.90196
-2.92503
-2.89434
-2.88867
-2.89476
-2.92567
-2.90226
-2.87452
-2.93727
-2.90349
-2.90368
-6.11822
8.20139
6.5218
-0.946459
10.9514
2.91757
3.19768
-0.227354
-0.0596304
-0.243236
-0.251836
-0.505992
-0.156359
-0.423641
2.02645
2.06581
2.23517
2.02561
1.72677
1.89648
2.13348
4.81565
4.64985
4.82178
4.56831
4.41931
4.72348
4.61977
6.24787
6.37492
6.3467
6.45656
6.30052
6.38656
6.25375
7.72373
7.76642
7.65417
7.49454
7.77711
7.77027
7.40852
7.66378
7.65758
7.67769
7.79702
7.61264
7.74996
7.63702
8.17716
8.2283
8.21043
8.07949
8.14806
8.15926
8.19935
17.231
12.9512
16.0381
13.9976
17.8237
15.2737
12.9438
-26.6144
-47.1742
-34.3772
-28.9114
-28.8194
-38.9089
-32.746
18.0256
-118.251
-91.2033
216.919
61.8825
71.5558
-41.0416
71.7667
4.53515
-42.8574
119.803
24.7925
188.41
10.2582
252.781
65.8102
-56.119
17.9321
17.7957
17.8829
18.0037
18.0316
17.9139
17.9217
16.9421
25.4893
19.2131
14.1005
19.3515
21.1532
20.2143
-9.47002
30.0541
17.5668
1.94569
4.04017
-0.434162
-9.24901
5.45797
5.80217
6.09074
5.3431
5.40756
5.13109
5.45573
1.47044
1.46259
1.50044
1.47954
1.40568
1.43652
1.52324
85.8737
122.374
127.439
111.795
166.306
122.659
115.971
119.497
39.7519
87.8343
-2.23387
-2.27684
-2.09102
-2.26964
-2.21014
-2.20183
-2.22992
-2.8827
-2.82764
-2.86571
-2.92366
-2.90378
-2.90504
-2.87995
-2.83806
-2.88724
-2.93796
-2.90186
-2.91178
-2.92464
-2.89599
-2.86762
-2.79291
-2.86859
-2.8834
-2.93887
-2.8585
-2.37906
-2.62636
-2.97267
-2.90543
-2.50571
-2.29355
-2.34595
-2.39275
-2.56687
-2.71148
0.405317
0.480859
0.293814
0.239478
0.00436698
0.33159
0.186669
5.81676
5.84431
5.7138
5.52252
5.54479
5.68567
5.663
8.71572
9.00062
8.88947
8.8444
8.25505
8.73796
8.25629
-1.73849
2.15009
5.31004
-0.471235
-2.66023
2.42102
3.35224
50.5066
30.1362
39.7726
71.0865
57.4804
76.3067
49.0405
-151.012
-96.6332
-148.259
-145.166
-143.08
-101.392
-129.181
-22.8764
-31.7098
-13.4302
-25.2307
8.27908
-31.7675
-10.5063
-15.8698
-17.9637
-11.7365
-0.0403434
-7.1501
-5.34303
-14.509
172.074
129.454
290.058
73.9162
62.5796
26.4013
84.8359
16.2867
-17.905
79.339
75.7624
165.512
30.2601
55.6291
11.1777
5.09801
4.98883
5.07757
5.03126
5.13234
5.00767
5.10347
4.29205
4.20946
4.24812
4.37985
4.32889
4.25704
4.3054
2.98407
2.94302
3.01572
2.88217
2.89096
2.93113
2.95672
2.33813
2.2989
2.34795
2.46881
2.37197
2.34269
2.34642
1.7561
1.83757
1.94193
2.0895
2.06391
2.00407
1.86071
1.44306
1.51425
1.50032
1.3454
1.40301
1.38645
1.39345
4.90227
21.311
9.63976
-7.3155
2.44101
-6.58478
17.2662
1.46607
12.0021
73.8248
-0.216705
7.87549
-59.8984
-35.2147
40.2385
66.0572
1.22923
22.5491
-4.8492
47.317
-5.84423
-31.7718
-15.9716
-31.2432
-34.9489
-44.5849
-25.2231
-35.912
1.44367
1.39288
1.43664
1.4825
1.42425
1.42216
1.47916
-0.264568
-0.281235
-0.208285
-0.174321
0.0427435
-0.259593
-0.0540871
-1.97579
-2.03424
-2.01688
-1.96127
-1.96512
-1.9881
-1.94406
-1.95751
-2.00805
-1.68917
-2.0077
-2.06458
-2.00909
-1.91338
-2.85403
-2.66545
-2.65312
-2.64301
-2.86632
-2.54571
-2.70744
-2.72471
-2.91839
-2.71494
-2.11415
-2.15016
-2.27627
-1.99432
-2.11613
-2.12726
-2.05219
9.44371
9.24937
9.42712
9.40745
9.19576
9.12268
9.34984
-7.60641
-8.7005
-7.61127
-2.34203
-3.15956
-3.49484
-0.0453798
14.2448
12.8834
13.0064
12.1578
13.9317
12.3836
13.1641
8.31222
8.41235
8.10038
8.0863
8.08919
8.02578
8.105
5.49296
5.49552
5.43048
5.51099
5.56814
5.53994
5.47475
5.17705
5.19202
5.1002
5.2922
5.19307
5.25952
5.16746
4.20642
4.31201
4.3387
4.40629
4.29151
4.24675
4.37152
-116.912
-103.704
-89.2394
-142.043
-131.272
-112.31
-130.056
-23.6183
-11.421
-30.7962
-42.4852
-62.6946
-17.2688
-46.2309
1.15653
1.48278
1.52411
1.26093
1.67217
1.66524
1.46736
-0.50002
-0.253105
-0.254694
-0.0853787
-0.31921
-0.171815
-0.390585
-3.21417
-3.09942
-3.28202
-2.93001
-3.08049
-2.84061
-3.11595
-3.22368
-3.30452
-3.19713
-3.60556
-2.85881
-2.99249
-3.4252
9.43195
9.75567
9.25795
9.85017
9.77958
9.28583
9.55384
16.4828
7.99702
14.7821
13.8005
14.851
11.2233
6.88846
10.2749
8.6388
9.02941
7.83897
9.25545
8.03058
8.35504
7.64125
7.62816
7.53966
7.52948
7.65623
7.54381
7.64325
7.77165
7.75742
7.75459
7.74603
7.66498
7.73868
7.72269
7.66649
7.2032
7.62104
7.77332
7.18322
7.84139
7.56386
7.10522
7.45835
7.23891
7.75969
7.46944
7.35283
7.47524
7.43089
7.36425
7.55465
7.45754
7.41857
7.35914
7.39719
6.88926
6.26163
6.93085
7.16253
6.96356
6.92335
7.10308
17.9795
18.0826
18.0935
17.9699
17.8111
17.9682
17.9805
1223.87
887.428
818.475
1456.48
433.181
1312.78
501.43
675.639
1573.69
1644.29
1688.76
1401.72
215.471
276.088
473.145
101.87
1406.07
1454.18
6.0081
5.95238
5.89633
5.50512
5.06944
6.14427
5.76237
5.48329
5.46369
5.33276
5.5017
5.64144
5.55248
5.41925
4.42528
4.19292
4.34386
4.22236
4.45551
4.22947
4.41635
3.44894
3.7382
3.51262
3.29586
3.30651
3.63212
3.38158
-18.3199
-53.7512
-23.5688
-43.9837
3.04013
-42.6255
-18.815
-201.468
-212.879
-152.695
-204.815
-223.95
-10.7239
-103.981
-262.364
-81.7061
-232.879
1.41979
1.54171
1.5435
1.57608
1.57964
1.60679
1.51179
4.23684
1.68091
-11.1114
-4.0312
-5.2748
-5.10978
-0.988947
2.9503
2.41976
2.8545
3.17613
2.15578
2.77567
2.40385
3.10934
3.25384
3.04865
2.97761
3.15037
3.20103
3.06625
1.42048
1.3171
1.25097
0.993285
1.23917
1.15514
1.34399
0.484119
0.418717
0.294234
0.00608077
0.266747
0.205174
0.354988
-3.01742
-2.91705
-2.88519
-3.73507
-2.99228
-3.76417
-3.65034
-3.91845
-3.58065
-3.75834
-3.63188
-3.45761
-3.46957
-3.52309
-3.64756
-3.73781
-3.61991
-3.71738
-3.90299
-3.63361
-3.74052
-3.84994
-3.78767
-3.55859
-3.66662
-3.07128
-3.58048
-3.67478
-3.34402
-3.95064
-4.34085
-3.66989
-2.9641
-2.98915
-3.61179
-3.57506
6.16636
6.58563
6.14657
6.17133
5.33118
6.50086
5.83963
2.70242
9.94708
21.735
27.738
9.359
19.7659
22.8389
5.61374
12.6367
18.5804
5.17792
5.95056
10.2711
10.1744
10.2446
9.88464
10.0321
10.002
10.0238
8.611
8.23771
7.93792
7.82041
7.49598
7.47419
8.38731
6.42208
5.98635
6.35895
6.42914
6.61529
6.20343
6.43807
16.1724
15.8092
15.2826
15.7478
15.5761
15.9186
14.5951
-109.267
30.16
-35.3079
30.7989
-55.9894
35.301
2.47684
1.87532
3.30463
2.54762
4.58095
2.73554
3.44491
-120.048
-150.213
-146.406
-207.394
-223.594
-179.48
-180.348
-86.897
-71.8559
-32.1513
-97.0449
-47.4519
-78.0658
-34.0744
-122.394
-140.732
-113.836
2.55641
2.41863
2.56753
2.42463
2.47188
2.3788
2.48171
0.577291
0.609854
0.625763
0.718487
0.651509
0.668034
0.611317
0.00854383
0.0279545
0.0438462
0.132364
-0.0493211
0.0209916
-0.0495879
16.0912
-7.73842
10.3637
-0.504331
17.6426
7.65785
-0.133016
4.25218
4.43896
4.30953
4.02669
4.21983
4.301
4.16399
3.19432
3.02299
3.21283
3.37087
3.22659
3.11995
3.29488
3.90504
4.01683
3.87225
3.96589
3.75157
3.99911
3.80336
2.02696
1.68151
2.01935
2.22809
2.06348
1.89718
2.12834
2.37125
2.2504
2.15453
1.76967
2.18078
2.01163
2.26703
-3.61368
-3.86333
-4.21269
-3.6714
-3.71807
-3.6876
-3.95373
-2.12408
-1.81408
-1.60181
-2.04915
-2.01925
-1.93778
-1.86635
2.23486
1.45928
1.09511
0.0612641
0.772206
0.501297
1.78812
19.3491
9.85597
49.8821
13.4205
31.4382
11.0036
-10.1291
-4.46587
1.32749
-14.1239
8.70116
13.4293
0.429312
8.00054
12.2819
12.466
33.9233
17.6774
7.63892
29.1016
23.7349
7.90595
8.62521
8.57716
10.4457
10.3051
10.4155
10.4293
10.5321
10.4213
10.369
8.90378
10.6108
9.28451
10.9965
10.505
9.54415
9.40215
7.67839
8.09925
7.58573
7.53219
7.76533
7.96562
7.62966
7.41168
7.38338
7.42502
7.38118
7.36215
7.35766
7.39236
7.34258
7.41241
7.2157
7.53177
7.43486
7.32325
7.324
7.14914
7.17627
7.20121
7.1967
7.14024
7.16385
7.16232
7.94275
7.87763
7.53598
7.65683
9.26485
8.59847
8.05218
21.3362
-4.63638
22.7766
3.17357
-4.09646
2.8868
3.61968
8.64477
25.5981
25.7757
56.6407
8.1697
-5.02499
36.7656
61.7776
122.257
67.6734
33.4213
36.7302
32.4476
-19.1408
47.5177
49.89
-25.9104
21.9415
47.7758
-99.6571
19.4176
71.6829
36.9989
21.0282
131.812
97.2913
-3.48589
-6.88335
-10.87
-23.5994
-10.3747
-11.1759
-22.9776
-40.0586
-8.78839
-27.0841
-50.1561
-70.7751
-32.5602
-44.8399
-229.786
-231.036
-230.232
-229.728
-225.426
-231.369
-230.999
-236.743
-236.879
-235.821
-237.401
-235.353
-237.096
-237.09
-208.305
-200.864
-220.797
-236.744
-237.67
-227.309
-223.936
-128.248
-201.683
-182.033
-227.623
-217.408
-203.204
-183.529
2.779
2.82987
2.82755
2.89119
2.81694
2.86544
2.80285
1.71389
1.84182
1.79543
1.96091
1.83149
1.92918
1.79154
1.91001
1.98275
2.0772
1.94147
2.12578
1.98423
1.9792
3.23967
5.57685
3.98938
11.2154
-15.8111
5.29897
8.26836
4.67188
4.52868
4.65848
4.83702
4.71122
4.6398
4.73297
-0.711951
0.0861708
-1.45052
-1.17805
-0.387255
-0.440724
-2.19419
-1.71443
-1.97562
-1.97434
-2.08103
-2.35569
-2.14109
-2.30211
12.9881
8.59347
16.4951
12.9698
3.55403
6.83121
6.85525
6.8605
6.87695
6.85311
6.87877
6.84163
7.053
7.06883
7.06349
7.01983
7.06226
7.01866
7.06047
5.51462
5.45745
5.51448
5.57884
5.52645
5.49704
5.54507
5.67909
5.71896
5.67631
5.65928
5.61643
5.68219
5.64518
25.3318
43.02
-47.667
-101.184
-16.5705
-96.5087
-133.64
-150.651
-142.722
-108.289
-356.938
-233.34
-369.998
-242.188
-213.616
-77.1052
-293.971
-110.338
-100.665
-115.578
-106.94
-110.106
-164.337
-154.288
-157.308
-115.667
-170.816
-118.29
-61.8793
-110.917
-196.883
-194.813
-156.164
-85.6718
-100.557
-192.696
-71
-75.1796
-179.71
-182.523
-120.96
16.6149
33.223
-3.4654
-37.2404
-154.924
1785.46
2090.74
1290.73
1711.87
1212.64
1440.2
1410.82
1268.94
1952.81
1548.01
2249.3
1684.41
755.892
643.367
1473.09
795.704
731.793
618.371
1347.14
1703.23
1006.93
1088.27
874.613
884.493
-191.327
-210.291
-203.671
-212.448
-210.579
-207.533
-195.819
-228.327
-228.253
-227.338
-227.433
-229.131
-228.755
-227.209
-6.11634
1.37678
-4.96703
-18.1898
-29.7963
-11.6986
-2.32552
3.40857
3.69
3.35665
3.33889
2.91947
3.4727
3.20603
4.41263
4.31916
4.34734
4.45909
4.24589
4.26512
4.44531
4.04389
3.92582
3.95782
3.83326
3.94099
3.85159
3.96036
2.02757
1.98697
2.08352
2.0581
2.1935
2.03018
2.09738
5.36583
5.46074
5.44746
5.52959
5.45267
5.50587
5.41719
-3.62928
-4.30229
-3.92597
-2.85387
-2.94068
-3.58477
-3.49236
-59.494
-51.2632
-79.618
-87.484
-107.5
-61.8275
-79.197
-139.77
-91.6775
-53.4108
-78.1838
-100.968
9.56782
4.36563
26.7259
-7.75818
18.3079
2.13494
-3.20142
13.9944
6.84383
6.8142
6.83301
6.77708
6.79635
6.8204
6.80716
7.01173
7.02404
7.05153
7.01273
7.02367
7.02032
7.03076
7.44657
20.5855
25.7497
4.85837
14.1594
6.76233
6.66993
5.18839
5.18636
5.10749
5.20184
5.2944
5.25035
5.16935
5.25585
5.30301
5.22566
5.18459
5.12782
5.23624
5.18494
5.4923
5.56307
5.50566
5.42781
5.49152
5.53765
5.473
-75.2054
-247.085
-84.3379
24.4774
-100.432
-59.0198
-24.1557
-59.8454
7.22918
-77.9406
-84.5105
-258.288
-394.598
-150.321
-356.658
-118.147
-181.157
-208.635
-201.024
-201.205
-210.151
-194.429
-206.275
-198.433
-227.758
-235.508
-231.015
-216.857
-240.637
-231.238
-241.938
-125.93
-241.051
-134.344
-195.321
-133.646
-138.731
-160.49
-183.15
-186.827
-273.635
-27.3962
-278.951
-207.108
-159.227
-205.951
-38.7237
-441.942
-308.686
-242.351
-240.607
-307.948
177.779
26.1691
134.903
-182.765
-187.515
-168.231
-156.854
-177.263
-177.098
-155.655
-18.0412
-374.96
-48.0266
-144.359
-177.765
-81.447
-167.407
-433.845
-163.886
-128.826
-42.3176
-248.609
-122.645
-94.147
-222.122
-181.244
-247.34
-57.086
-132.877
-101.548
-202.626
-194.8
-201.58
-199.318
-205.304
-189.236
-197.82
-207.332
-28.595
-69.2579
-78.0282
-30.1155
15.4921
-32.5829
-57.0425
5.49519
5.47988
5.62713
5.34607
5.45216
5.53505
5.4251
4.688
4.67079
4.56155
4.77413
4.66473
4.73072
4.61971
4.22905
4.2021
4.27345
4.29598
4.39138
4.25124
4.30632
6.81696
6.81463
6.85017
6.79071
6.79266
6.77435
6.83145
6.33992
6.27591
6.26726
6.38204
6.40576
6.33265
6.30303
7.11705
7.13188
6.98871
7.17192
7.31912
7.23087
7.00707
9.82916
9.14179
9.49384
9.73071
9.65125
9.29795
9.69193
8.77283
9.19538
8.81623
8.63609
7.65228
8.21841
8.43002
-1.35086
-1.91877
-2.06616
-0.896269
-0.304895
-1.03921
-1.47235
-22.8691
-17.6333
-21.4967
-46.4762
-18.5569
-18.4011
-32.93
-65.1983
-53.6416
-34.6171
-153.932
-331.952
-220.299
-225.075
-172.927
-224.942
-360.136
-326.995
-211.052
-201.596
-181.695
-235.487
-193.149
-158.582
-154.396
-174.218
-127.041
-129.875
-187.461
-384.643
-121.293
-221.966
-153.936
-147.172
-136.807
-110.147
-140.088
-156.781
-188.111
-134.699
-129.283
-3.18473
-3.40497
-3.52221
0.313467
-6.50612
-2.78326
-3.93007
-4.14163
-2.89437
-3.0448
-2.12862
-2.08569
-178.398
-147.045
-161.199
-489.059
-509.33
-489.34
-484.923
-470.082
-471.957
-478.636
-490.025
-507.731
-501.791
-516.358
-494.252
-490.3
-478.105
-491.46
-501.087
-475.684
-492.778
-481.228
-510.771
-489.768
-490.086
-457.847
-481.446
-488.074
-470.71
-497.08
-520.895
-507.881
-512.848
-501.406
-495.15
-506.309
-497.492
-486.836
-501.572
-495.454
-488.117
82.9035
-13.865
5.9536
-12.0813
-23.0994
-0.823449
-44.1708
-26.7814
-24.2724
-34.9234
-28.8567
-8.99582
-16.5597
-38.8201
-49.7709
-16.073
2491.14
2925.42
2702.88
2695.87
2664.86
2805.38
2968.27
2944.88
2755.03
2702.31
2705.42
2775.57
2762.73
2887.58
2340.39
-19.0631
-17.9103
-14.5915
-50.9051
-7.19502
-26.1132
2.98719
2.85902
2.86044
7.16466
7.18118
7.14925
7.25889
7.2062
7.24417
7.22983
2.95279
2.83406
3.01614
4.64991
4.58858
4.44801
7.19901
7.14415
7.19593
1.90391
1.93947
1.66026
2.97429
3.03215
2.88193
2.92446
2.67283
3.90744
2.64666
4.6479
4.81406
4.72698
4.80098
3.04381
2.67107
2.64831
2.26084
7.1414
7.11357
7.20506
7.16946
5.20115
5.16555
5.30731
5.25468
5.38278
5.32823
5.39218
5.35982
5.32589
5.31607
7.1579
7.15498
7.1801
7.18667
2.48554
2.77979
1.93537
-0.469063
2.14547
-0.912006
-0.17233
-0.703336
-4.03475
1.74593
5.19102
5.16322
5.39106
5.35839
5.31902
5.32334
7.21276
7.31296
7.27673
7.24457
7.32955
7.22325
7.37455
7.27893
3.1179
3.26758
3.16858
3.32091
-40.1584
-77.2556
-28.0352
-49.3443
-3.48522
-3.37602
-3.10787
-2.14626
-2.50392
-1.9869
-2.34584
22.0443
19.8606
19.4866
20.0941
4.32501
3.8702
3.94313
4.03172
-2.57528
-2.35472
-2.65498
-233.005
-232.311
-29.1595
-24.3327
-2.22991
-8.89209
19.5301
6.2556
12.7567
29.9013
-0.645889
-1.33124
-4.69529
-3.82859
-4.29102
-3.22456
3024.81
2585.24
2269.44
1886.75
-41.9049
-9.55846
-14.5246
-9.0337
4.43748
3.70398
5.19353
5.41161
86.9809
84.644
82.3201
76.3627
-2.18204
-2.19208
-2.1092
-2.11558
4.13344
4.30864
5.84992
5.83927
5.79427
5.67438
4.04167
3.4533
2.28385
3.74806
4.09492
4.51492
5.18219
5.27843
44.6354
51.9815
-102.455
-94.4657
-3.97865
-3.3221
-3.54448
-3.63447
4.06279
6.74695
-6.18715
3.78195
6.28288
4.352
3.56207
-4.0063
4.67338
4.78813
-2.68537
-2.70889
-2.66779
-2.70202
-101.693
-65.6224
-76.6738
-39.5981
-4.07821
-3.8388
-19.7078
-35.6396
5.55608
5.53209
78.3502
137.923
88.0084
124.374
2159.83
2007.45
2703.08
-179.461
-218.617
-149.306
-149.966
-211.669
-199.371
-218.011
-182.91
-175.99
-154.807
-69.8346
26.8038
2.84361
18.6643
21.559
56.9087
87.9754
-2.08413
-2.12198
14.7907
10.7004
11.9222
19.2637
17.7833
14.5004
-12.2436
-20.7391
-32.6318
-2.6025
-2.82969
-2.79639
-2.07448
-1.80883
4.97674
5.03728
4.94409
5.02529
5.05206
5.02658
5.05155
4.9064
9.28164
13.0122
7.92894
10.8601
3.21582
3.11784
3.1605
2.98359
7.70231
7.70621
59.8225
66.9742
7.72564
7.74086
-236.069
-236.687
4.76112
4.69024
6.00273
0.172732
6.48308
6.92739
7.27198
7.29622
6.87637
9.49589
-0.218865
-1.7662
33.3482
-25.3989
3.62229
3.69276
3.31663
3.57024
-39.8731
-21.2262
-75.0297
-67.136
5.67942
5.64451
-1.66536
-1.65351
-1.70817
-1.72337
3.55573
3.62259
-184.891
-185.294
-146.214
-153.272
6.52231
6.95033
6.91666
7.1783
76.7655
58.6085
218.96
81.6027
-5.31175
-2.28404
-5.5985
-4.69141
18.3632
18.0946
7.32194
7.34253
7.08256
7.03314
7.35721
7.20252
-197.043
-195.189
-203.779
-217.228
4.6674
4.62556
5.13397
5.25357
-4.6109
-3.65546
-0.108547
2.42986
-2.54878
-2.58611
-159.275
-157.444
-398.837
1.65936
-2.98721
9.393
9.20107
1.86732
1.93653
4.00412
3.00901
8.68383
8.90154
7.1961
7.20884
4.81848
4.64954
7.01029
7.00549
6.99231
6.98423
4.19701
4.72219
-144.292
-137.289
-146.343
-141.417
2150.02
2337.31
2624.59
-1.55838
-1.57525
-1.55066
-1.69009
7.57923
7.64357
7.65337
7.72731
3.42566
3.87864
3.1881
3.67914
7.08536
7.085
9.73039
9.84183
9.83052
9.95809
7.48913
7.51421
7.45772
7.49046
6.03997
6.12649
6.47442
6.47517
0.445215
0.381229
0.517418
0.415102
5.93303
5.87284
5.04278
5.10146
-2.29974
-2.2514
-2.06754
-2.08488
-2.13721
-2.20351
19.8785
12.112
8.98041
16.4764
-0.16956
-0.20829
-0.20216
-0.0659044
-2.63057
-2.62641
-2.67059
-2.6813
3.70376
3.3866
3.64013
3.03639
7.12497
7.09258
7.39931
7.4001
2.87181
2.80659
2.91813
2.82645
2.80762
2.87311
2.82465
2.91389
3.27193
3.22355
3.26625
3.17182
3.22656
3.27265
3.16918
3.26242
-3.23796
7.04555
7.07597
-168.335
-167.395
-168.866
-167.73
-2.20667
-2.10728
-1.9491
-1.94228
12.9642
24.223
14.765
12.0807
-184.91
-181.063
-205.023
-192.137
-166.542
-167.955
-166.637
-168.147
-201.583
-202.619
-206.649
-224.12
-1.91535
-2.02741
7.34443
7.37047
-45.2897
-18.8103
4.05724
1.60568
8.09436
7.42092
6.75847
6.70257
6.78818
6.73372
2.76133
-5.12011
6.1955
7.90158
-78.8327
-84.6348
-163.631
-161.096
-2.8744
-1.83525
-5.13414
-0.886768
-123.607
-114.794
-2.08818
-2.11087
-167.004
-167.181
7.38751
7.43439
7.36814
7.39801
-73.6216
-62.1916
7.4228
7.39002
7.37908
7.2988
6.75023
6.78387
-2.71129
-2.73456
-165.189
-166.099
-240.05
8.1193
8.23469
9.69681
9.60117
-214.544
-217.426
-211.975
-216.752
9.3976
10.9245
6.70517
6.73912
6.6599
6.70446
6.56294
6.47195
6.82796
6.54898
-2.42017
-2.23471
6.53683
6.65558
6.509
6.67358
-2.77798
-2.75733
-2.75997
-2.76119
-0.147467
-0.22146
-0.495333
-0.500404
7.30737
6.8465
6.73378
6.71144
6.76954
6.72674
-4.40777
-3.64914
-133.586
-133.872
-124.627
-132.204
4.51107
4.56159
-63.6698
-68.9265
-47.8446
-48.1865
-72.9584
-64.3336
-53.3771
-44.4645
4.40244
4.03093
0.111158
-0.0230487
-0.450001
-0.983145
1.72417
2.19471
1.39783
1.28225
1.47814
1.41263
4.54744
4.48977
-2.21762
-2.17404
-177.053
-185.817
-217.802
-213.341
3.52595
3.61991
8.37907
16.5472
4.66151
17.8534
6.52758
6.9461
6.8668
7.17958
6.85371
6.82554
-216.355
-214.121
-217.109
-211.14
4.82571
4.90959
4.85804
4.99986
2.03305
2.16773
2.56677
2.98362
-1.80729
-1.86583
-2.18405
-2.22699
-239.136
-238.755
-236.516
-234.65
-2.18402
-2.22634
-170.01
-169.465
-170.849
-171.114
6.81079
6.84476
5.82455
5.84916
18.1599
0.37451
6.97194
1.28152
-1.99032
-2.03265
-48.6886
-35.5718
-79.4036
-77.525
3.69032
-146.678
-188.332
-200.231
53.4412
42.6101
6.76282
6.69615
6.71203
6.66412
-36.7582
-81.879
-33.8194
-77.6879
-164.563
-160.181
-168.913
-166.71
9.28304
10.6969
-2.282
-2.26832
0.62331
0.580934
-164.977
-163.743
-166.194
-165.3
-162.643
-164.781
-164.821
-166.165
-2.2825
-2.26836
-1.94176
-2.10202
5.77884
5.78027
-6.60259
-8.0151
-18.3592
3.32384
3.61371
7.45637
7.48293
7.3912
7.43143
3.00184
3.06503
7.44432
7.42416
7.42635
7.41498
0.140097
-0.00343271
0.443458
0.0858505
-420.874
-408.623
4.44966
4.45228
7.00557
7.00154
6.87152
6.8768
7.09549
7.06358
8.15109
5.69468
0.590022
0.401221
0.612308
1.05673
0.539219
0.298501
1.41096
1.40486
1.42513
1.38986
1.47775
1.5095
5.41243
4.42193
4.10328
3.82092
1.0904
0.517327
1.28935
0.732571
-348.59
-352.548
16.395
10.979
36.98
19.6101
0.582629
0.400077
-1.06747
-1.26394
3.04881
2.79095
2.12572
2.49513
7.28688
7.4824
8.02776
8.04633
7.89166
7.86898
6.41898
6.34016
16.8223
7.71778
7.93676
14.2616
-224.034
-225.266
2.5116
2.45081
2.48796
2.4231
-2.26341
-2.16612
-2.36639
-2.34292
-2.35958
-2.32375
-1.50984
-1.54272
4.81589
4.89466
-392.558
-157.936
-154.262
-154.438
5.84378
5.82816
7.12881
7.14583
-130.599
-82.2951
-6.70901
-6.74756
3.57327
3.50253
3.31448
-6.6701
-6.72478
-1.89073
-1.96253
-2.3023
-2.33539
5.18714
5.13919
82.2189
71.9089
9.87692
44.6712
-25.3695
4.64457
5.58835
5.4785
6.50422
5.45882
5.27274
4.74768
6.87541
6.87348
-3.75282
-3.91488
-3.7749
-4.15811
6.76761
6.74048
7.26556
7.27175
0.80968
0.816172
7.58507
7.43751
-1.47389
-1.99188
-1.47288
-1.38745
5.83594
6.92173
8.95357
8.8241
6.1163
5.53993
6.27161
6.25173
-2.45025
-2.51503
8.59065
8.70503
6.4862
7.02429
6.75075
6.75878
-156.445
-156.243
15.6226
15.8077
3.84825
3.85032
-8.7081
-13.5064
3.7687
3.84708
-211.078
-216.056
-207.607
-213.742
5.84552
5.82654
-217.916
-211.304
-213.643
-207.203
7.28498
7.31707
5.68595
5.69381
-0.633043
-0.62163
-17.509
-32.9406
-2.40786
-2.3177
-2.67131
-2.64952
-2.37293
-2.32134
9.0904
9.12247
8.87792
8.88007
4.04846
4.0371
4.06902
4.0621
18.213
18.1969
-2.2504
-2.20775
18.2451
18.1986
44.6
30.7931
31.9112
26.8576
7.30099
7.29654
4.94307
5.01565
-2.23732
-2.42352
-1.98906
-1.86495
3.02615
3.03552
-0.882219
-10.0296
-14.0027
-17.0921
-199.646
-196.077
9.16835
7.24422
9.45974
8.02992
3.47737
3.91195
-2.12017
-2.11083
7.30099
7.29563
4.9086
21.0434
2.74103
2.80173
10.4147
10.5467
-1.93423
-2.02437
-0.420313
-0.79757
-1.91651
-1.28907
16.0544
16.4303
2.97131
3.07107
313.158
112.005
114.428
21.5903
2.15799
17.6541
-233.59
-233.384
1.43811
0.0885446
16.1154
16.4771
0.0646984
-0.253807
9.31277
9.07218
7.19587
7.4545
1.46335
1.51899
8.44622
8.16869
8.51055
8.98849
7.77963
8.42025
8.30353
8.54558
-2.84005
-3.37968
-30.7987
-47.1042
4.40284
4.73505
-187.999
-193.17
-14.3769
9.23285
23.5177
21.5129
-1.50577
0.857291
-1.46017
-1.53482
6.1309
6.10693
2.62269
2.52959
1.77003
1.78682
4.16582
4.2348
3.71634
3.6498
-170.217
-170.523
-8.27888
-18.4098
-76.4237
-59.0539
-82.9742
-105.998
-97.9828
10.0208
9.90659
-3.00354
-3.0882
-3.07073
-2.98636
-2.78318
-2.88447
6.55076
6.51906
3.40528
3.47556
15.5323
15.618
3.41374
3.48341
-2.35068
-2.42837
7.71396
7.62032
-2.5877
-2.56756
4.20531
4.22317
2.39372
2.30624
-159.126
-162.036
17.2709
17.7018
-159.395
-161.864
-1.48197
-1.52714
-1.64686
-1.58418
7.93583
6.78421
-2.53694
-2.51589
3.588
3.62791
3.71746
-2.11193
-2.07794
-2.09516
-2.05229
-2.65524
-2.63192
-1.62469
-1.56598
-0.694911
-1.14857
2.5816
2.63633
2.63647
2.58346
7.41615
7.39603
9.32955
24.1079
7.41016
7.39264
-7.68099
-6.03684
-133.419
-135.31
-2.39699
-2.37964
-153.436
-149.001
-2.6263
-2.63066
3.60383
3.59932
7.1128
7.10157
13.4011
12.5106
12.8899
13.4561
1.80051
0.794784
6.50707
5.97996
-122.35
-98.3979
-122.073
-114.649
2.63243
0.398622
-1.63959
-1.66853
5.40353
5.46745
35.0861
52.96
62.0348
43.9799
-1.85277
-1.71883
-2.88626
-2.69006