/*--------------------------------*- C++ -*----------------------------------*\
| =========                 |                                                 |
| \\      /  F ield         | OpenFOAM: The Open Source CFD Toolbox           |
|  \\    /   O peration     | Version:  v2012                                 |
|   \\  /    A nd           | Website:  www.openfoam.com                      |
|    \\/     M anipulation  |                                                 |
\*---------------------------------------------------------------------------*/
FoamFile
{
    version     2.0;
    format      ascii;
    class       volScalarField;
    location    "0.4";
    object      p_rgh;
}
// * * * * * * * * * * * * * * * * * * * * * * * * * * * * * * * * * * * * * //

dimensions      [1 -1 -2 0 0 0 0];


internalField   nonuniform List<scalar> 
24700
(
2811.88
2792.16
2859.76
2778.1
2779.53
2868.32
2837.21
2821.87
2761.27
2760.15
2785.56
2788.16
2777.59
2809.02
2801.96
2797.03
2793.73
2841.94
2831.24
2792.55
2881.44
2876.99
2797.55
2794.13
2901.28
2837
2845.14
2815.63
2841.55
-2.7105
13.4931
-1.8873
-25.2362
39.4708
-37.2959
-4.18545
1.21905
0.896939
0.844417
1.05457
0.871734
0.934065
0.895164
7.92909
7.97755
7.93846
7.86245
7.9278
7.9721
7.9871
5.00771
5.0258
5.10937
4.95477
5.0846
4.98109
5.10011
1.47713
1.86357
0.0497345
2.85069
13.5123
0.367387
5.42786
0.91012
1.14408
0.967888
0.854975
0.785551
0.945413
0.876803
0.404045
0.410065
0.369934
0.427676
0.410417
0.397248
0.422102
1498.43
219.024
2706.96
1633.35
180.277
2092.31
2624.14
0.215151
0.255582
0.207393
0.226686
0.234091
0.245614
0.207605
0.242924
0.308932
0.275664
0.298127
0.261287
0.309218
0.252226
5.87865
7.4416
5.82077
12.953
7.62865
6.8254
13.9798
7.83414
8.41396
8.11934
10.7342
20.9476
9.86659
20.4204
146.501
141.437
146.91
235.497
230.884
147.871
192.243
145.475
169.097
138.435
-0.291156
-0.37008
0.167966
0.821775
0.405518
1.4456
-0.541023
0.17789
1.1014
0.00465622
-1.41276
-0.584782
1.41637
0.375878
1.50898
0.379077
0.308371
1.34561
0.659864
0.354584
0.328104
0.40476
0.485371
0.378042
0.348375
0.443521
7.92406
7.96907
7.92571
7.92188
7.8563
7.97462
7.99248
10.1433
11.102
10.1442
10.8604
13.1626
14.2544
11.1935
473.329
509.002
639.634
491.147
619.458
727.006
691.885
-61.5655
-88.2569
-76.1383
-107.953
-67.6685
-96.3386
-109.25
-168.231
-168.016
-168.007
-167.999
-167.921
-167.964
-168.064
-165.11
-162.585
-163.051
-162.245
-163.558
-162.789
-165.504
8.41458
8.64504
8.72691
8.91161
9.02466
8.54613
8.40777
8.16591
8.20273
8.17318
8.22168
8.21122
8.15167
8.18521
1734.15
1619.37
1979.59
1615.08
1976.03
1905.72
1875.69
7.49698
7.47524
7.53963
7.54165
7.51158
7.50698
7.53505
8.55552
8.58743
8.55374
8.91015
8.82346
8.79409
8.68834
9.06186
9.15434
9.0931
9.34617
9.16526
9.02653
9.12135
140.34
504.327
857.113
99.8511
155.516
194.349
206.928
-129.812
-138.149
-140.66
-133.845
-129.021
-136.553
-138.879
-36.0644
334.842
-40.6442
-170.225
-24.8015
-88.547
12.7403
-120.87
4.1926
-208.799
22.0567
-53.4779
-141.097
-149.352
-151.648
-151.56
-156.391
-158.398
-156.847
-159.416
-160.955
-159.481
-159.166
-157.557
-159.664
-155.02
-164.456
-164.671
-164.329
-163.609
-163.846
-165.029
-164.288
-159.343
-159.266
-162.789
-157.084
-155.15
-157.768
-160.691
-154.559
-147.809
-151.401
-149.742
-135.21
-126.21
-143.19
-70.1327
-74.9857
-89.5616
23.4773
-57.5872
-73.9676
4.12316
8.45801
8.05136
10.9588
8.13601
16.9088
14.0442
7.90584
8.57772
8.68422
9.14649
14.2369
10.9849
9.96971
11.174
2.61714
2.66608
2.50679
2.44627
2.67022
2.4416
2.57687
4.19562
3.62286
2.36058
2.83562
2.31571
3.60104
3.27772
17.9948
7.30649
17.4453
6.12846
16.0479
3.4149
12.6386
3.05391
3.07589
4.52514
3.42109
6.87671
3.3107
6.70352
16.7903
11.7241
12.3685
12.2549
22.724
8.21499
19.2486
9.51548
10.097
9.59667
9.30711
22.1112
9.86325
20.1848
22.7363
16.8151
8.05464
7.99798
7.82103
14.474
25.5288
5.00906
4.94624
4.83886
7.64987
8.60723
6.29393
5.10934
5.70185
7.70151
7.33406
1.32907
3.0837
2.97246
1.55954
2.06051
3.68495
3.19748
1.70424
2.03677
1.45056
1.77609
0.0853757
0.105434
0.0875832
0.0888445
0.120816
0.102136
0.0831608
0.276222
0.317139
0.24298
0.267028
0.302469
0.314452
0.253041
0.166979
0.135578
0.219188
0.187561
0.135896
0.0831643
0.204425
2147.99
1620.65
939.283
2149.86
2150.84
1989.02
1268.47
9.15437
9.36205
9.48325
9.24183
9.42502
9.46195
8.94451
9.04614
8.88064
8.98244
8.95278
8.93094
8.93931
9.07806
289.987
64.0766
332.444
79.8188
115.793
57.8136
81.1292
363.103
282.937
256.775
142.614
144.469
192.798
191.34
165.386
145.568
193.524
181.915
279.259
65.8264
76.1512
54.0655
140.059
-22.2846
82.2449
53.6438
23.785
42.3573
45.2921
156.294
298.129
-124.062
-128.423
-129.343
-134.227
-136.934
-130.501
-129.011
40.4612
52.7203
15.6477
268.917
169.248
204.891
237.692
7.04134
7.32978
7.23284
7.55425
7.41448
7.45735
7.47616
8.45087
8.52384
8.31848
8.54119
8.5468
8.5341
8.44603
2.47951
2.69268
2.33202
2.62584
2.64363
3.22442
2.34515
5.82333
9.25172
7.78018
4.63089
4.96771
7.19125
5.96369
4.5615
2.57127
1.48111
1.77629
1.90614
2.8505
1.50669
216.852
311.259
239.527
890.313
417.214
591.467
218.473
1560.26
1557.64
1592.88
1779.42
1763.49
1759.36
1486.66
36.3511
52.2583
34.6127
34.5674
60.8702
24.1352
31.1309
0.0330647
0.0403051
0.0447233
0.05588
0.0496415
0.0467953
0.0412558
0.0805847
0.086979
0.0905122
0.103264
0.0964955
0.0963379
0.089921
6.78285
6.92763
6.84815
6.63338
6.7399
6.8157
6.76397
9.56063
9.10197
9.19681
9.0086
9.08176
9.09999
9.05252
18.9652
26.5489
16.8359
18.3546
16.8196
32.3133
21.1095
24.9317
25.1897
27.7093
45.7826
35.9613
27.1937
42.2574
371.43
-6.63076
93.1916
-31.2447
-30.013
-11.5096
-32.1365
-96.4697
-100.861
-111.966
-121.155
-109.82
-103.981
-109.311
-159.423
-158.92
-158.732
-158.398
-158.031
-157.921
-159.711
-148.631
-146.966
-155.231
-151.919
-148.519
-140.386
-152.842
4.87305
-11.5598
6.61573
61.4211
26.9144
17.3756
46.8856
9.47383
10.4564
9.66601
17.7389
13.7438
12.7939
10.4761
943.204
963.657
975.263
880.269
805.332
930.03
941.666
3.8182
4.01159
3.7017
4.10476
3.71555
4.0019
3.73313
6.17927
4.2735
5.88834
3.90777
3.83864
5.90966
4.83627
114.545
227.203
68.8177
113.019
67.542
174.574
87.7232
1728.26
1845.61
1713.7
1833.96
1827.85
1814.18
1766.61
1822.59
687.344
1683.59
1797.71
1531.4
1654.54
1705.2
1735.04
1720.3
1694.97
1749.77
1751.17
496.407
779.116
351.386
1738.05
1602.45
1690.89
1597.75
1514.66
1802.62
1707.53
0.104106
0.117218
0.110804
0.0924926
0.099675
0.109394
0.103304
0.394647
0.388834
0.408792
0.383324
0.3924
0.386911
0.39795
5.52894
5.68031
5.61115
5.37053
5.49972
5.5952
5.49809
5.77388
5.65515
5.6367
5.70749
5.5219
5.58376
5.75311
8.47327
8.74179
8.30771
9.67679
9.89355
8.55064
9.1054
17.3454
12.5762
17.2917
12.408
12.6102
17.2128
17.4885
9.32204
9.4505
9.46805
9.30672
9.34921
9.43104
9.64992
10.767
10.871
10.7946
11.3902
10.9913
13.7658
11.8307
488.123
477.762
465.161
1114.2
674.038
492.6
845.788
1108
679.859
1073.03
1088.34
954.99
-134.889
-138.01
-126.47
-129.829
-124.476
-129.4
-133.015
-167.316
-167.895
-167.356
-167.45
-167.082
-167.862
-167.44
-158.493
-157.018
-154.878
-156.751
-156.751
-156.451
-157.464
-33.8781
-28.8078
-33.0041
-44.5976
-11.6336
-39.4377
-32.9913
18.3398
17.5301
17.8534
17.8827
18.1049
17.6569
18.1548
17.4425
17.1649
17.9657
18.9613
21.3753
18.0253
18.301
9.62378
9.91909
12.9839
14.0617
9.60792
8.26119
11.1431
5.59753
5.68635
4.70211
5.14441
4.74288
6.09084
4.27517
3.21793
3.15904
3.0964
3.49962
3.30638
3.18548
3.18347
1812.26
1851.81
1795.36
1813.55
1722.66
1815.88
1734.99
1503.64
1502.04
1502.63
1803.94
1830.51
14.1959
21.5366
14.3683
20.1944
43.7338
54.5358
20.8707
1.95887
6.1779
2.82461
4.13118
1.91969
4.22608
4.31667
1.95091
3.49513
2.2504
2.08481
2.19933
4.24633
2.49558
0.0177496
0.016352
0.00332121
0.0228
0.0157741
0.0165242
0.00756054
0.0198691
0.0200155
0.0194511
0.00691767
0.0156152
0.0249714
0.00208549
0.0175084
0.017334
2541.06
2596.52
2528.54
2607.05
2530.67
2606.65
2541.8
2.46871
2.61463
2.44634
2.44222
2.20923
2.53147
2.28287
4.49182
4.52792
4.67888
4.49737
4.21691
4.37416
4.59276
7.05489
6.89392
7.04318
6.81598
6.68533
6.95736
6.87168
8.37815
8.50189
8.47509
8.62876
8.45025
8.55336
8.38915
11.3911
11.4798
11.3328
12.0633
12.7738
11.9742
11.0643
9.53556
9.54955
9.57464
9.71766
9.52693
9.71363
9.56661
11.3115
25.7665
11.3932
11.8215
11.3375
18.9265
11.3598
84.0449
110.932
83.1147
869.078
305.051
588.785
112.705
-25.8977
-40.8828
-16.2688
-27.7091
-27.9913
-35.96
-22.9418
26.4528
-94.952
-63.4432
237.243
73.9831
79.9822
-18.0598
81.4277
13.0743
-39.7138
144.719
49.5541
206.938
28.9585
269.753
68.7842
-43.3356
18.3274
18.2323
18.3398
18.3718
18.4518
18.3124
18.3037
369.607
366.352
398.591
413.551
397.138
372.465
383.762
472.3
502.886
493.313
123.848
22.6018
53.1419
397.713
7.81591
7.02673
9.2801
6.37617
6.60975
7.18024
7.36037
4.36707
3.5397
4.32383
4.36436
3.98682
3.49282
4.43407
1728.42
1796.16
1750.86
1769.11
1822.14
1720.34
1783.91
1794.48
1731.08
1755.45
4.08682
2.27536
2.49052
5.48823
2.99322
5.84476
4.04791
0.0229023
0.0503768
0.0306813
0.00490075
0.00640894
0.0143367
0.0210461
0.0491453
0.0183463
0.000447115
0.0273529
0.0174404
-0.00460549
0.0148535
0.0386394
0.0857723
0.0284725
0.0320304
0.0466517
0.120495
0.600495
0.358135
0.108151
0.0726485
0.456719
0.639804
0.618624
0.535334
0.368534
0.244701
3.01886
3.07598
2.90861
2.87439
2.64809
2.93661
2.81119
8.07409
8.15588
7.99099
7.84595
7.83588
8.03551
7.93746
23.5171
21.6796
17.2781
17.3578
19.6344
15.4832
19.5875
1367.66
1342.02
831.919
828.669
836.467
854.451
1384.99
955.191
907.524
941.83
1016.79
1032.47
1013.4
1018.24
130.749
428.214
481.587
509.802
250.982
397.115
-68.0307
419.438
544.947
373.324
487.06
462.903
533.501
138.803
-9.41624
-12.071
-5.93221
5.85621
5.00956
-0.816356
2.27267
201.057
162.097
310.198
80.9699
82.7204
41.1989
127.473
23.3855
20.2728
111.77
98.9981
188.748
35.8612
69.9624
50.3814
5.75705
5.65079
5.7773
5.70893
5.79213
5.65012
5.75102
5.08427
5.01974
5.03962
5.14745
5.11721
5.0633
5.08524
4.00331
3.95334
4.00112
4.05338
3.93371
4.01019
3.96088
4.74609
3.87135
4.70059
5.14227
4.11513
3.84073
3.9749
4.21283
3.51313
4.44415
4.63561
5.47114
3.8084
6.29226
3.92121
3.56647
4.34902
3.52223
4.24339
3.41921
4.25856
587.567
610.129
576.37
1368.79
1278.52
1337.43
893.205
1542.71
1535.84
1514.4
1442.67
1495.82
1449.03
1491.27
1464.16
1606.36
1543.01
1375.11
1457
1573.24
1485.41
871.827
562.091
538.457
1146.46
1118.29
1273.02
1334.93
3.65886
4.13201
3.56105
3.84559
4.63436
3.76262
3.85055
3.81979
3.35132
3.61961
7.24508
7.35244
4.07294
7.09516
0.37749
0.353202
0.335213
0.485676
0.420214
0.396534
0.427495
1.1652
2.51766
3.46449
0.945612
0.642349
0.981409
1.60581
0.0785573
0.248746
0.255563
0.27119
0.0662648
0.353787
0.210437
0.196233
0.0209381
0.205998
0.728537
0.697568
0.596548
0.864239
0.751847
0.754277
0.785877
13.866
13.6633
14.0342
14.1631
13.8599
15.4058
15.9032
1184.43
764.19
1161.94
1351.09
1366.25
1362.18
1381.6
38.2957
34.7899
37.7274
51.3672
51.5693
32.9798
48.4502
11.093
11.2513
11.5269
12.8193
11.226
11.106
12.4938
6.05133
6.02194
6.02978
6.02849
6.06526
6.03497
6.01689
5.84154
5.85694
5.78733
5.92378
5.84686
5.90264
5.83278
5.01837
5.10244
5.13298
5.15223
5.04511
4.99967
5.15048
876.861
911.607
919.183
729.91
-36.4622
884.482
298.163
158.556
146.499
289.436
438.975
1190.9
142.075
616.816
5.64579
7.89392
4.60285
4.27523
4.21327
5.30891
4.08334
2.20922
2.4377
2.43156
2.58103
2.36544
2.508
2.30754
-0.190506
-0.0713517
-0.00695206
0.266726
0.109675
0.89906
0.25728
1.15005
4.65245
5.176
1.27261
1.48824
3.53589
3.45026
16.3365
18.516
18.1072
18.5169
18.3832
14.8668
18.26
348.087
292.028
300.448
309.843
441.185
435.244
296.768
121.029
58.516
99.7453
55.5106
121.592
45.3332
39.3942
9.10987
9.45789
9.80498
9.17453
9.06234
9.27277
9.02625
9.53237
9.85803
9.49339
9.55914
9.43721
9.11361
9.23232
15.0319
19.4922
16.5666
15.3246
20.9616
30.247
14.8521
14.2635
14.8182
14.6003
16.5707
30.2
13.0138
25.2219
9.60657
8.71392
8.68055
8.53645
8.59067
8.53785
8.76668
9.17045
9.40816
8.77348
8.31661
13.1674
15.8666
7.98996
18.3376
18.4758
18.427
18.3656
18.2016
18.335
18.3275
1266.81
906.511
850.173
1469.2
456.675
1334.55
538.303
724.661
1608.17
1648.21
1701.46
1414.42
235.154
305.001
492.743
130.278
1439.92
1479.58
6.69907
6.56976
6.7071
6.16075
6.13081
6.90279
6.26939
6.12599
6.11201
5.99227
6.03667
6.16594
6.1273
5.96934
5.62711
5.17583
5.54474
7.88341
6.3871
5.54595
5.71068
6.33253
6.2253
7.61451
14.5123
8.73962
8.19938
7.83778
959.133
895.904
687.897
841.268
871.86
912.467
712.52
696.173
577.318
743.239
519.631
687.298
883.434
625.4
634.75
795.622
487.432
3.28391
3.60925
4.78505
5.84704
4.42324
3.66893
3.52425
2138.81
2142.55
2124.76
997.548
1830.77
2083.35
1922.9
8.55044
13.2781
5.20728
5.58682
4.56305
14.1778
9.28914
5.4402
5.58171
5.39777
5.33849
5.48023
5.52578
5.41637
3.93691
3.85192
3.78922
3.55235
3.77989
3.70155
3.872
3.07795
3.03094
2.90775
2.64421
2.89287
2.82771
2.95874
-0.0294097
0.189575
0.107815
0.394941
1.55619
-0.0128672
0.869465
0.26736
0.137404
-0.665549
-0.520138
-0.151681
-0.321417
-0.302225
-0.522719
-0.632725
-0.0767688
-0.443459
0.563381
-0.490832
-0.469427
-0.718704
-0.801762
-0.518453
-0.562728
-0.0515655
-0.451774
-0.611899
-0.238312
-1.24146
-1.65006
-0.984382
-0.302229
-0.30888
-0.935445
-0.880313
11.3084
10.3012
10.9706
9.90528
9.0656
10.1948
9.57166
593.614
64.8598
873.866
260.808
232.129
524.554
626.705
1150.23
825.991
260.232
272.727
289.369
29.8421
28.6512
28.6513
42.6671
28.3936
36.5995
29.4416
124.148
124.071
122.062
125.435
123.698
102.114
124.999
7.58169
7.15802
7.33466
7.53868
7.62203
7.7475
7.39357
19.715
16.6903
16.7643
19.3666
17.8064
17.1423
16.6242
-79.8212
52.421
-29.7427
67.6629
-33.8477
51.5533
32.1415
107.414
25.8071
20.0515
22.4564
45.5623
17.6673
460.036
496.711
479.938
-60.4647
59.4405
428.413
304.368
780.036
782.413
821.614
678.914
793.2
754.078
735.759
748.081
641.846
741.065
5.40358
3.95001
5.72779
7.653
10.2149
4.26584
5.80823
2.24272
2.2647
2.26802
2.37629
2.38293
2.46597
2.55705
2.44293
2.7154
2.38577
2.44947
2.2907
2.54094
2.93213
1894.86
1870.7
1317.07
1858
1896.25
1827.42
1841.23
6.42373
6.58479
6.47384
6.22785
6.40239
6.4667
6.34829
5.51176
5.36187
5.53323
5.66481
5.53897
5.44439
5.60086
6.14929
6.24082
6.11463
6.21226
6.01634
6.2344
6.05707
4.49233
4.17165
4.4911
4.67181
4.52559
4.37486
4.58762
4.81858
4.71626
4.62481
4.27423
4.68846
4.48998
4.72619
-0.477305
-0.583563
-1.08316
-0.329267
-0.579052
-0.320674
-0.103715
0.610575
0.874257
1.08598
0.693644
0.713631
0.766854
0.843925
6.44997
5.59327
4.40798
3.49663
3.4283
4.44539
5.21412
349.95
919.563
333.278
255.088
998.15
981.354
730.842
982.227
976.769
969.063
983.507
980.744
902.041
979.973
1152.22
1153.27
1164.59
521.429
759.095
1155.72
1164.67
912.676
462.518
234.274
17.0394
16.819
24.3475
20.3211
20.3176
21.5343
19.6808
39.5761
113.1
98.2104
286.921
125.272
40.0382
75.6296
12.1061
31.9221
11.5684
10.5766
13.6541
21.7346
10.2165
9.31297
9.75537
9.41802
9.75716
9.73877
9.35305
9.39749
9.08594
9.23272
8.95376
9.29752
9.17824
9.05023
9.07327
9.05214
8.93961
9.2587
9.00052
8.96992
8.95129
8.97516
9.66671
10.1556
9.26417
13.2158
17.5091
13.2584
10.4994
474.635
466.57
478.857
25.9633
268.724
107.355
369.075
56.7481
60.2732
57.9112
69.0033
36.6905
17.9566
75.9077
72.6076
133.106
71.4606
60.4274
63.7368
43.0501
-8.46539
76.1293
78.5101
-10.8245
37.0258
52.2389
-79.0349
50.6615
77.7879
72.7226
29.9769
146.376
121.699
0.472375
-3.41629
-9.60313
-22.2722
-9.03024
-8.97765
-21.3188
-28.541
2.87516
6.34496
-14.3275
-45.1228
-13.1248
50.5994
-209.223
-223.419
-225.161
-216.43
-204.952
-211.286
-224.248
-234.795
-235.245
-234.127
-235.775
-233.336
-235.43
-235.019
-206.511
-198.818
-218.789
-233.655
-232.653
-222.328
-219.17
538.072
371.612
490.104
256.295
-163.645
266.655
399.161
3.87836
3.90912
3.90369
3.94431
3.88872
3.93593
3.88294
3.2679
3.24885
3.2841
3.33729
3.32722
3.31662
3.19885
3.94945
3.59061
4.18774
5.95744
7.07726
3.95389
4.94212
34.4066
30.9801
30.0926
475.512
762.685
230.022
970.167
6.77014
6.65684
6.767
6.91001
6.80275
6.75141
6.82395
1.96733
3.18296
1.47573
1.49771
2.78499
3.54087
0.982279
1.09838
0.858331
0.858367
0.771506
0.478407
0.700899
0.52091
209.428
173.968
918.789
955
322.385
8.77238
8.93739
8.90168
8.7911
8.54836
9.34817
8.64554
9.05567
9.07637
9.07957
9.68826
9.33902
9.31912
10.046
6.00742
5.97305
6.01108
6.04347
6.01006
6.00025
6.02299
6.11057
6.12664
6.11378
6.09501
6.06509
6.1012
6.08332
56.0318
81.64
-25.0457
401.896
472.359
407.771
209.377
213.294
369.186
131.266
313.135
422.559
284.476
413.705
428.029
553.541
353.242
391.431
135.655
170.68
571.276
534.868
492.507
55.7705
57.79
78.7819
101.281
77.8168
151.225
182.25
37.7921
102.746
79.4116
104.784
55.1551
52.1467
157.448
146.354
-24.8195
52.3834
133.403
236.536
266.864
230.133
209.355
99.4384
1812.62
2115.05
1299.95
1742.26
1256.58
1474.51
1431.59
1280.47
1965.16
1551.25
2263.78
1708.02
783.05
687.304
1503.48
806.057
756.102
652.687
1367.9
1717.15
1020.85
1092.04
892.081
911.97
-190.03
-208.838
-202.178
-209.71
-208.524
-205.997
-194.436
-226.848
-226.683
-226.268
-226.542
-228.36
-227.706
-226.417
13.4184
135.874
79.1051
131.754
513.924
118.154
231.596
8.35015
7.71323
6.58926
6.44636
9.18352
6.16235
7.75709
7.17205
9.76331
5.82436
5.67923
5.72041
5.93146
5.81005
4.8257
4.71323
4.75657
4.68368
4.81534
4.66684
4.81128
5.3358
9.24146
4.76111
4.83665
4.38043
6.61757
4.46758
7.33709
7.41568
7.39718
7.45476
7.39568
7.44337
7.37203
-0.943773
-1.6115
-1.21678
-0.17361
-0.278805
-0.908422
-0.79762
251.77
259.353
231.883
387.594
208.192
412.575
233.502
252.556
298.634
419.474
316.483
383.065
206.054
223.06
636.535
954.55
717.67
181.235
266.94
360.375
8.25871
8.25016
8.26611
8.23532
8.23617
8.24814
8.2522
8.24686
8.24988
8.27971
8.26582
8.25357
8.2725
8.26427
905.631
969.166
818.729
975.936
947.719
939.19
950.83
5.76266
5.76027
5.70204
5.7665
5.83988
5.80602
5.7461
5.82575
5.85387
5.79813
5.76484
5.72711
5.8044
5.78202
5.98766
6.03282
6.01126
5.94817
5.98786
6.02359
6.02037
-66.6935
-223.554
-56.2971
32.9897
-76.8963
-38.491
11.4086
-50.3563
16.7195
-74.4446
-60.0381
-233.817
-376.121
-134
-338.633
-115.143
-167.23
-207.294
-199.545
-199.868
-208.853
-192.326
-204.907
-196.207
-224.311
-229.394
-224.454
-213.858
-235.694
-225.493
-235.764
260.544
126.06
222.124
205.419
254.139
236.187
227.353
205.495
208.322
134.363
194.831
46.7033
125.003
123.989
18.7729
225.358
-86.3923
27.4038
77.0587
24.4116
37.5902
409.754
230.842
350.972
-180.609
-184.965
-166.021
-147.672
-173.847
-174.803
-151.951
-3.51697
-353.024
-44.0381
-124.101
-165.914
-69.864
-151.866
-412.711
-159.753
-116.973
-30.4261
-219.762
-93.6298
-63.9353
-191.653
-162.582
-224.556
-17.2364
-104.411
-65.5904
-181.629
-192.21
-196.244
-189.452
-199.968
-187.08
-192.012
-198.399
88.1577
71.5526
47.4609
216.808
246.364
139.999
181.277
5.98751
5.97691
6.10033
5.86655
5.95353
6.02217
5.94043
5.33803
5.31604
5.23053
5.39683
5.3064
5.38032
5.27749
5.12306
5.11376
5.1774
5.15962
5.25193
5.07953
5.18628
8.21429
8.19874
8.21423
8.19741
8.18802
8.1687
8.19662
8.37155
8.28505
8.29467
9.57661
8.54672
8.23166
8.7071
10.0936
10.8947
10.263
10.1787
11.5609
11.7651
9.95119
17.1998
14.1127
16.9984
12.3326
14.8918
11.877
17.5028
11.4867
11.9123
11.4423
11.0548
10.1066
10.8551
10.9088
1.31757
0.807286
0.6343
1.76669
2.33196
1.61022
1.19652
246.094
242.653
410.562
235.446
403.166
404.296
395.524
-4.01899
187.572
53.4287
170.39
173.579
160.7
157.2
327.502
280.159
148.186
121.546
292.857
179.341
242.599
145.652
308.169
341.158
343.65
208.748
371.352
358.324
317.675
17.7233
155.069
284.441
2849.84
2836.79
2845.41
2851.72
2841.59
2827.22
2776.07
2826.82
2852.05
-0.277473
-0.479406
-0.617387
35.4408
7.38074
0.196455
-0.951281
0.616275
0.0845321
-0.108439
0.789653
0.992573
2806.15
2867.2
2833.27
2804.08
2803.38
2805.06
2808.22
2803.48
2793.09
2805.98
2785.16
2787.03
2794.92
2798.67
2801.2
2804.46
2836.23
2803.99
2813.94
2789.24
2801.51
2803.28
2801.94
2803.37
2804.32
2807.2
2803.17
2805.06
2802.85
2798.37
2794.13
2788.84
2781.91
2773.78
2800.3
2808.72
2797.27
2827.5
2792.72
2769.47
2796.39
1721.83
734.796
2829.04
2892.67
2861.98
2716.61
2718.98
187.17
191.049
180.527
188.365
81.9452
198.754
177.831
167.451
115.686
2532.82
2953.2
2729.27
2704.21
2687.08
2828.12
2980.29
2953.21
2774.5
2715.96
2719.31
2778.35
2792.3
2916.74
2386.85
196.122
150.482
199.835
22.1999
37.9176
74.0929
6.20512
6.08981
6.14788
8.46216
8.41619
8.4031
9.0461
10.0299
9.14899
9.2044
4.49695
4.87447
4.74511
6.89532
6.83757
6.71546
9.96826
8.69783
9.57457
4.46278
7.08658
5.78199
4.81387
4.57298
4.70412
4.34223
5.15721
6.37146
5.11268
6.90052
7.05677
6.96504
7.0301
41.3599
4.92921
10.7472
7.05765
8.84915
9.54548
9.3817
9.95212
5.7866
5.76188
5.93522
5.8525
5.97016
5.88484
5.94004
5.89125
5.88216
5.90357
8.47646
8.45314
8.51656
8.45546
10.6723
10.6737
114.485
51.0149
84.1676
41.7971
38.4931
19.8006
39.8585
23.3387
5.84355
5.79264
5.99598
5.95786
5.94652
5.88417
9.1649
9.7667
9.54183
9.19719
9.87735
9.51154
9.62974
9.31563
5.4539
5.58281
5.50116
5.6327
-25.2959
-69.3842
-9.26336
-42.7292
5.76497
7.83423
8.03406
31.5755
31.5963
31.6532
19.5451
23.4867
21.5867
21.49
24.0145
13.1616
10.6292
22.4804
16.3723
30.7642
56.3745
14.0049
-230.252
-227.455
721.486
651.964
430.485
112.738
475.062
229.284
416.165
485.314
2.26958
1.41764
0.14314
-0.307103
3.76217
3.40071
3055.32
2633
2286.3
1921.89
427.221
340.814
420.943
200.902
13.4161
8.90373
8.81189
7.48899
939.811
938.724
596.202
619.882
0.390233
0.377093
0.426929
0.426626
6.32142
6.48285
6.12251
6.08906
6.06449
5.94312
191.879
15.7348
64.8453
9.94284
19.4832
34.5602
11.9395
12.598
1030.66
1058.19
2842.28
2850.18
1.4873
2.56733
3.09463
6.14281
58.3029
78.9397
128.689
268.61
95.147
70.5433
338.764
204.45
6.7823
6.87721
0.0652831
0.0571911
0.0735662
0.0633217
644.239
690.223
719.434
757.386
-0.222769
-0.205341
415.467
401.285
6.03281
6.02749
1768.1
1809.77
1780.55
1784.93
2218.42
2065.98
2731.49
-175.679
-211.86
-120.375
-117.542
-193.309
-181.53
172.029
43.5216
-17.189
-131.853
145.107
46.3989
16.1061
46.5349
26.0238
97.8589
120.142
0.445057
0.420386
254.217
253.65
280.294
324.193
803.159
287.151
65.7943
14.5626
407.114
0.398305
0.146262
0.485864
27.0011
17.601
5.76291
5.77788
5.89212
5.85134
5.77176
5.82343
5.74369
5.63348
10.2754
15.2843
8.69426
14.4851
6.05244
4.64804
6.09836
5.48676
9.13926
9.07173
1024.83
1016.38
9.08993
9.19035
-234.802
-234.912
6.85202
6.79912
993.624
846.922
10.798
8.98915
15.376
10.4806
836.722
997.076
12.0505
18.988
2242.42
2719.71
5.25436
6.45139
5.32694
6.42707
807.093
832.125
747.875
753.033
6.11373
6.09708
0.975747
0.619855
0.880594
0.537496
5.84207
5.90528
2836.18
2835.77
2845.59
2828.84
11.219
13.7437
10.5809
13.5713
170.216
73.9632
267.654
115.829
-2.45169
0.580586
-2.7603
-1.85766
97.2368
120.74
8.2687
8.63387
9.12429
9.19511
9.39667
9.60458
-195.621
-193.217
-201.693
-212.516
8.0068
8.83103
8.02552
8.33281
22.6633
26.6066
55.8447
30.4471
1.30826
1.10966
-158.419
-156.691
2807.8
1310.9
1370.79
1494.95
1302.59
67.4468
57.1472
209.162
192.331
11.4149
11.5117
8.33013
8.36956
7.0626
6.90643
8.3042
8.28732
8.29797
8.27959
9.65304
15.8929
-142.742
-135.716
-143.91
-138.733
2223.67
2411.2
2672.35
8.42025
8.36894
8.58799
7.36218
15.0911
17.8764
12.7549
13.8407
7.54057
7.79191
6.46808
6.66508
8.67969
9.17598
12.7025
12.768
12.48
12.6364
8.42194
8.42985
8.40225
8.40849
8.73592
8.72814
17.2813
12.8855
7.95861
11.8532
8.67483
11.9488
6.25931
6.15547
7.08188
7.12764
1.1141
1.18381
1.34344
1.3612
1.2934
1.38068
443.593
369.864
456.261
454.335
3.08826
2.97959
3.00591
2.44506
0.0957577
0.0952647
0.0832338
0.0770586
6.59036
6.64902
6.22379
5.778
10.6194
10.105
9.50714
9.54115
3.98619
3.98356
3.97613
3.91511
3.99288
3.96686
3.97373
4.01287
4.195
4.17047
4.22835
4.19278
4.1774
4.19875
4.19759
4.23677
0.220135
8.25269
8.31201
-167.468
-166.491
-167.607
-166.406
4.67243
1.6616
10.3645
15.5707
410.847
448.493
468.355
453.561
-183.482
-179.61
-201.074
-188.945
-165.624
-167.11
-165
-166.998
-198.202
-200.547
-203.68
-218.005
5.99444
5.37074
9.55203
9.00493
-8.19647
1.92977
223.613
1050.46
232.979
494.581
9.97105
9.36892
10.7217
9.35044
2003.62
2076.99
2097
2137.4
2828.66
2854.15
-161.412
-159.557
97.7705
161.75
724.244
1362.83
58.5136
-20.9716
4.0448
2.92521
-166.243
-166.446
8.97868
8.98749
9.04229
9.67825
2867.14
2878.41
10.1233
9.91208
10.9063
10.1772
8.22262
8.244
0.0961962
0.0780656
-163.599
-164.061
-235.596
25.463
18.9396
45.2963
31.516
-210.401
-212.555
-207.525
-213.381
63.5016
100.59
8.23065
8.24677
8.19325
8.21056
16.8971
13.1688
16.95
16.6686
3.98721
1.58778
9.25771
9.38659
9.1876
9.35069
0.46241
1.27952
4.02859
4.48992
2.81194
2.6736
2.18651
2.14298
20.517
15.753
8.19292
8.21733
8.19667
8.19142
19.8451
32.1657
-131.661
-132.79
-119.372
-129.3
5.23268
5.28049
-17.7993
-54.0516
-26.6102
-41.9003
-49.4951
15.6912
-18.1148
157.938
30.6043
17.8933
3.82508
5.93688
111.849
127.796
173.305
189.513
3.68718
4.07552
3.6529
3.90911
5.22856
5.17332
0.354664
0.395168
151.219
27.1596
-22.016
-176.295
4.87076
4.94221
2193.23
2046.8
2278.19
1416.38
20.6321
23.5511
20.3439
23.7076
8.2006
8.19071
-214.446
-210.361
-215.291
-209.049
6.93999
7.00496
6.98115
7.0951
10.1452
39.1666
5.97496
21.2722
22.2253
22.1987
0.20561
0.178772
-235.951
-236.115
-234.366
-232.366
0.202569
0.178217
-162.885
-157.662
-161.612
-159.697
8.18754
8.18781
6.07469
6.13181
945.052
1322.86
901.487
1291.04
0.661765
0.401128
2853.77
2851.58
2841.41
2850.13
5.95682
152.655
12.9497
16.6629
1581.06
1554.51
10.0082
9.83435
9.44858
9.23009
125.336
147.399
231.457
402.76
-33.6696
-42.5443
-54.5431
-53.4849
31.5306
53.059
0.181883
0.176842
2.54489
2.84816
-162.885
-160.828
-163.001
-162.061
-161.548
-163.667
-163.194
-165.135
0.181528
0.17708
2.93216
2.93361
6.18472
6.215
54.6802
30.2441
371.201
5.21717
5.22128
8.29433
8.33984
8.22718
8.28626
3.98743
4.03029
8.33769
8.3252
8.34193
8.34539
92.7261
193.018
55.8368
151.061
2756.28
2768.53
5.17729
5.17973
8.2513
8.25382
12.9141
10.3495
10.9092
10.1629
297.335
48.9447
3.19857
3.02688
23.4604
34.6893
4.437
2.85939
5.46051
4.56101
3.56748
5.81229
4.75057
7.10044
24.063
31.2568
7.86838
6.44661
3.79919
3.34526
4.34267
3.81375
2828.64
2824.68
18.2162
12.1255
40.4773
24.1873
3.19117
3.02574
76.4691
46.3165
21.3697
6.25721
46.6924
12.3323
14.7937
23.5331
10.6785
10.2746
10.1344
9.53934
8.59289
8.48388
491.02
14.1707
18.8253
491.251
-207.451
-211.579
3.9725
4.34976
4.0616
5.52758
7.45371
5.43363
0.180618
0.191471
0.185194
0.199364
6.62488
7.40502
7.23801
7.23441
2784.59
-155.406
-148.011
-152.502
6.1865
6.1882
10.7335
11.6529
789.224
1054.37
-4.10891
-4.16429
5.84182
5.7753
5.61547
-4.08898
-4.14107
5.60413
1.6166
4.8133
8.8287
5.83131
5.80372
1044.29
1016.71
592.289
628.694
546.864
632.413
7.85473
7.77413
33.7926
33.4333
9.0707
8.4009
8.28339
8.26769
-0.871233
-1.0104
-0.888009
-1.24832
8.19447
8.16813
9.04476
8.98677
3.11812
3.70837
10.0629
11.1794
182.65
67.4214
12.0007
12.1318
94.7241
89.9513
12.5602
12.4408
26.4257
31.8838
8.10694
8.08913
15.6299
9.2504
13.5877
12.4441
89.104
88.175
8.17284
8.17163
-146.433
-153.223
603.782
346.955
5.19337
5.72087
175.424
555.231
5.98271
6.51078
-209.018
-214.016
-205.502
-211.696
6.1861
6.18666
-211.632
-206.328
-204.911
-199.184
9.49692
8.971
7.63713
7.59094
2.67726
4.02214
621.146
652.829
17.9392
10.1423
0.0939035
0.100067
6.37352
4.2651
16.1597
16.7972
13.7942
11.8862
4.94992
4.87532
4.91996
4.90497
18.6061
18.6122
5.95931
8.52927
18.5799
18.5576
1202.09
1089.01
1210.38
1207.15
8.35836
8.37087
7.01137
7.07302
0.450571
0.251149
0.713345
0.815064
4.02367
4.01883
832.674
978.122
1297.23
757.77
-198.109
-194.541
11.1846
8.58381
10.7909
9.53692
67.1176
134.764
1.23625
2.58611
8.33203
8.32647
743.37
383.872
4.06101
3.95386
19.2994
18.6741
0.397386
0.318132
348.646
170.374
17.4025
25.2316
16.7937
16.926
5.60035
5.9958
347.988
177.742
121.008
36.6582
897.622
353.447
-232.773
-232.385
69.7509
31.6081
17.4064
17.0204
20.1976
30.0307
11.7452
11.7092
11.8904
13.8227
3.97952
4.0294
13.5164
12.4748
21.6952
18.7318
36.0637
32.8811
85.0192
59.7518
65.5833
26.1776
457.913
504.161
7.38109
9.71532
-185.261
-191.391
384.092
1470.7
116.777
224.34
2211.1
2464.52
2.66191
2.13428
8.29332
8.22881
5.05538
4.96759
4.95639
6.88871
5.27259
5.16995
10.3604
13.8274
-138.985
-139.951
274.774
1088.45
2825.99
2844.18
2847.04
2846.56
2854.92
47.7923
48.5404
4.63373
3.22456
1.15258
1.93914
1.4336
3.5214
9.35208
9.37957
4.34631
4.40479
422.505
416.811
4.4529
4.5451
0.504312
0.434879
82.485
35.1403
1.6299
3.59497
5.7331
5.15748
4.19024
4.12937
-153.275
-150.054
18.4099
19.2853
-151.561
-145.004
2.90304
4.78594
6.39747
4.15498
37.1462
39.0015
1.16176
1.2053
5.87439
5.90153
5.98398
0.334087
0.428252
0.342925
0.372998
0.107847
0.11545
3.29208
2.3229
1.99547
1.80909
5.00579
5.05356
5.05373
5.00771
8.37979
8.36373
52.2801
56.4628
8.36973
8.35712
668.726
796.302
-131.581
-134.191
2.68758
3.22993
-57.8392
-60.6211
0.0953547
0.0956614
5.79879
6.45783
8.25199
8.25401
713.92
701.427
610.641
659.946
51.1251
31.5516
8.94657
8.42376
54.6002
108.891
561.053
483.675
72.8809
30.8461
0.838656
2.91913
7.3571
7.40516
1055.86
1093.2
1093.6
1093.71
2.62989
11.1414
14.5023
15.9683
3.38526
3.21808
294.787
486.235
729.11
671.763
7.49291
7.34736
-165.901
-166.518
8.94701
8.7399
1809.65
2122.8
8.24816
8.29857
4.98568
2.81404
7.35107
7.30224
-189.22
-182.591
969.01
969.568
1206.01
1208.77
8.40232
8.39401
1.85666
1.87129
1.94284
2.04998
2150.38
1994.31
8.33278
8.29373
10.6054
9.56084
88.6696
49.3891
85.5682
54.9843
6.24915
5.44185
-148.171
-150.799
235.116
106.475
9.16179
9.71468
5.50824
7.53779
73.9213
69.5642
14.0665
14.2946
8.32658
8.30327
-147.885
-132.902
-136.019
-135.291
7.51662
7.4246
13.6826
13.7542
4.67046
6.36691
8.85763
8.88004
-145.192
-150.097
0.0739704
0.0661516
7.68821
7.5109
46.9268
80.0005
58.9753
8.40777
8.39139
9.68543
8.10087
13.2833
16.6223
1283.93
1286.97
233.091
460.136
189.798
491.04
8.54624
8.47183
20.5796
20.7261
9.76331
9.71895
1915.03
2025.91
26.1261
21.4027
1318.31
1201.07
5.20064
4.29366
18.9104
20.0118
-135.973
-120.182
-169.605
-164.929
14.7203