/*--------------------------------*- C++ -*----------------------------------*\
| =========                 |                                                 |
| \\      /  F ield         | OpenFOAM: The Open Source CFD Toolbox           |
|  \\    /   O peration     | Version:  v2012                                 |
|   \\  /    A nd           | Website:  www.openfoam.com                      |
|    \\/     M anipulation  |                                                 |
\*---------------------------------------------------------------------------*/
FoamFile
{
    version     2.0;
    format      ascii;
    class       surfaceScalarField;
    location    "0.4";
    object      phi;
}
// * * * * * * * * * * * * * * * * * * * * * * * * * * * * * * * * * * * * * //

dimensions      [0 3 -1 0 0 0 0];
oriented        oriented;


internalField   nonuniform List<scalar> 
49400
(
-5.66274e-06
-3.40845e-10
5.61763e-06
4.5454e-08
1.30557e-05
3.59794e-06
-2.23164e-05
1.2853e-05
2.02343e-07
-3.42555e-06
1.73115e-05
-8.26827e-06
2.0211e-05
-2.00387e-05
-2.07687e-05
5.09332e-05
-3.55307e-07
8.06828e-06
1.95837e-05
-4.99683e-05
-1.54536e-07
-6.09499e-07
-1.22902e-05
2.29011e-07
1.21489e-05
-8.76931e-08
2.62973e-05
1.15615e-05
-5.01489e-05
2.59168e-05
-1.31285e-05
1.51158e-06
2.37658e-05
-1.32604e-05
4.41378e-08
2.94727e-05
-3.11715e-05
5.6901e-05
-2.68309e-05
4.68497e-07
2.63964e-05
-3.39745e-08
9.21275e-06
1.5605e-05
-5.16487e-05
5.29573e-07
9.15168e-06
4.11771e-05
2.27069e-05
-4.82789e-05
1.73321e-05
5.02413e-05
7.66569e-06
-7.39481e-06
2.5869e-07
-3.72363e-06
2.0541e-05
6.25036e-06
9.06172e-06
1.98589e-05
8.83327e-06
4.87148e-07
-2.00168e-05
4.93911e-05
3.29188e-07
-6.51616e-06
2.66503e-05
-5.6343e-06
-1.44998e-05
4.73832e-05
-1.20685e-05
-4.18309e-05
-2.02937e-05
-3.88275e-05
-9.02149e-06
1.07038e-05
-7.31657e-06
6.70351e-06
-2.77935e-05
-2.86277e-05
1.90378e-05
-6.07518e-05
-2.86667e-05
-2.2705e-05
-2.24794e-05
7.38511e-05
-1.63676e-06
-3.39408e-05
6.91086e-06
-2.27778e-05
-1.56399e-06
2.33819e-05
2.53977e-05
-7.15574e-05
2.55576e-05
-3.73963e-06
1.26848e-05
-2.12279e-05
1.5763e-05
-2.7809e-06
-1.46277e-07
3.14835e-06
-2.21181e-07
2.72271e-06
3.6549e-07
-5.8691e-06
6.13442e-07
1.96299e-06
-4.52053e-06
-1.88256e-06
9.55145e-06
-2.3994e-06
-2.34232e-06
1.17685e-06
-3.21076e-06
-9.22715e-08
-1.41883e-06
-3.76719e-07
-2.38922e-06
4.18477e-06
1.2527e-06
-1.131e-06
-1.54053e-06
-3.10722e-06
3.9832e-06
-4.38099e-07
2.60607e-06
-3.29898e-06
3.20901e-06
-5.18763e-06
-3.32869e-07
5.49718e-07
-2.31084e-07
-8.47956e-06
-5.91513e-06
-4.87272e-06
1.92674e-05
-1.14457e-05
-1.34863e-05
1.64524e-05
-2.52947e-05
7.93387e-06
2.31468e-06
1.19219e-05
-2.77228e-05
1.74152e-05
1.35185e-06
5.60737e-07
-1.39336e-05
1.31033e-05
3.5343e-06
1.90572e-06
-4.90501e-06
-5.35007e-07
-3.34017e-06
-5.01023e-06
1.18847e-05
-8.75314e-06
7.31869e-06
6.80204e-06
1.03352e-05
-2.20422e-05
8.28597e-06
-2.01894e-06
-3.0347e-06
6.31044e-06
-1.45266e-06
1.44695e-07
4.35941e-07
8.12313e-07
-1.39295e-06
1.12762e-06
-1.05192e-06
6.89935e-08
-3.56066e-07
1.91963e-06
2.05246e-07
-7.36031e-07
-5.21137e-07
-2.11663e-07
4.85902e-07
3.97447e-07
-9.65175e-07
4.73729e-07
-7.19716e-06
-1.19266e-05
-8.5476e-06
2.76714e-05
4.3754e-07
-6.42167e-06
-1.21302e-06
-1.41777e-05
2.6886e-06
7.40759e-06
3.73385e-06
-1.75631e-05
9.26775e-06
-3.07319e-06
-1.20048e-05
1.2725e-05
-2.24487e-05
1.04953e-06
3.22763e-07
-1.48478e-06
1.12484e-07
-1.67351e-06
-1.80478e-06
4.52783e-06
-2.78792e-06
1.43717e-06
3.33676e-06
2.16714e-06
-6.98868e-06
2.78293e-06
6.66313e-07
-2.04994e-06
3.02809e-06
-2.67072e-06
-4.74744e-06
-6.83626e-07
3.77026e-06
1.66081e-06
3.3018e-06
2.15148e-06
-1.02007e-05
-5.65061e-07
3.18324e-06
4.5514e-06
-3.60654e-06
-1.50992e-06
-1.5544e-06
9.28904e-06
3.63877e-06
-5.09383e-06
5.85463e-06
7.15406e-06
-1.28207e-06
-7.34286e-06
1.47086e-06
-1.27091e-05
-4.73675e-06
2.45999e-05
-1.00355e-05
-3.95568e-06
9.49116e-06
3.89205e-06
-2.07261e-05
7.72576e-06
3.23626e-06
-8.80304e-06
1.17921e-05
-1.49465e-05
5.75426e-06
6.02063e-06
4.11721e-06
-1.58921e-05
2.97976e-07
6.39382e-06
-9.37531e-07
6.36716e-06
-4.85571e-08
-7.33334e-06
-4.57965e-06
1.82802e-05
-5.12213e-06
-2.25977e-06
-3.83169e-06
5.64586e-06
-4.8366e-06
4.28326e-06
-6.21804e-07
-3.1312e-06
-5.3025e-07
-1.12232e-05
-3.05951e-06
1.85659e-05
-1.66182e-06
-1.01832e-05
-1.48567e-05
1.66668e-05
-3.47188e-06
1.21e-05
-3.71399e-05
2.32611e-06
6.64266e-06
1.59334e-05
-1.24896e-06
7.36137e-06
1.91032e-05
-4.41877e-06
4.50305e-05
9.36494e-07
-7.56648e-06
-1.13901e-05
1.80201e-05
-9.83324e-06
-1.49292e-05
2.5699e-05
-7.31803e-06
-1.00817e-05
-3.56524e-06
1.48926e-05
-1.86454e-05
1.87203e-05
-3.23673e-05
6.29539e-06
-6.33204e-06
1.36256e-05
-1.93085e-05
3.48947e-05
1.31946e-05
-2.87807e-05
4.76413e-05
-7.32819e-05
-2.96742e-06
-3.58172e-05
5.08699e-05
-8.99706e-06
1.07048e-06
-5.94423e-07
1.39857e-06
-1.87463e-06
-1.018e-06
-5.69614e-08
2.14544e-06
1.5791e-06
-3.19152e-06
3.75002e-06
-2.42304e-06
-1.38394e-06
-2.32377e-06
8.21923e-06
3.25304e-07
-1.2505e-06
-5.18631e-07
2.5332e-06
-3.1685e-07
-2.36708e-06
1.50726e-07
-3.16462e-06
-1.17194e-06
6.86976e-06
-1.92471e-06
-1.55676e-06
3.25498e-06
2.19059e-06
-7.81264e-06
2.78681e-06
6.18898e-07
-1.76691e-06
3.38178e-06
-1.50104e-06
-2.83939e-06
2.21717e-07
4.56747e-07
2.16092e-06
3.10816e-06
5.25703e-07
-6.47325e-06
-6.6131e-08
3.396e-06
4.36505e-06
-2.39817e-06
-2.03301e-06
-1.83267e-06
9.59373e-06
8.25014e-07
-2.69748e-06
-5.5091e-07
-3.71718e-06
-3.76189e-06
-1.60406e-06
9.08313e-06
1.39908e-07
-3.20951e-06
-6.47586e-07
4.81253e-07
-4.10324e-06
-5.28613e-06
3.56612e-06
2.20126e-06
2.1741e-06
-1.15635e-05
3.68911e-06
-4.72451e-06
5.65117e-06
3.92887e-07
4.80494e-06
-3.93058e-08
-5.15853e-06
5.62534e-06
-6.16888e-06
9.36424e-07
-5.24056e-06
1.56708e-05
-5.62797e-06
5.68577e-06
-9.71103e-08
4.15179e-06
-1.49383e-05
2.83342e-06
-4.85051e-06
3.27863e-06
7.79965e-06
2.12813e-06
-8.5486e-06
-1.37918e-06
-7.05056e-06
-6.66199e-06
2.15122e-05
-1.0182e-05
5.25959e-06
9.52521e-06
6.43717e-06
-2.4511e-05
9.31258e-06
-1.16655e-06
-6.74965e-06
9.40024e-06
-1.04945e-05
1.18963e-06
-9.64532e-07
-6.91169e-06
6.6866e-06
-2.09275e-06
-2.24033e-06
5.52271e-06
-4.28297e-07
-2.62898e-06
1.20163e-06
2.05902e-06
-3.68895e-06
7.34157e-06
-8.76892e-06
6.6741e-07
-8.48717e-07
1.09728e-06
7.61353e-07
7.81521e-06
1.70609e-05
-2.56374e-05
7.67339e-06
1.54374e-05
-2.23495e-05
6.84544e-06
8.64315e-06
1.87402e-06
-1.84304e-05
2.34018e-05
-1.8224e-05
2.87412e-05
3.37229e-07
-3.33015e-06
-8.25945e-07
1.3882e-06
8.03462e-07
2.7658e-06
-4.95746e-06
2.74354e-08
1.92167e-06
-5.60909e-07
7.51343e-07
7.95549e-08
-8.59621e-07
-5.69184e-07
2.18015e-06
-2.32624e-06
1.54618e-06
-2.10927e-06
3.46176e-06
-1.66972e-06
-3.4582e-06
-4.01632e-06
-1.06184e-06
8.53636e-06
-7.69239e-07
-3.22505e-06
5.36087e-07
-2.10741e-06
-2.67814e-06
3.08237e-06
-1.95938e-07
-6.11148e-06
2.96451e-06
6.53938e-07
-2.46096e-06
4.36364e-06
-4.76431e-06
-1.24049e-05
-1.55331e-05
-9.37412e-06
3.7312e-05
-1.01146e-07
-1.01804e-07
-1.22019e-05
-1.51356e-05
-4.98639e-07
-1.49416e-05
1.51618e-05
-3.21992e-07
9.2778e-06
-3.64214e-05
1.15672e-05
-1.7425e-05
1.73549e-05
3.94842e-06
1.18243e-06
-3.94202e-06
-1.18883e-06
-4.60801e-06
-4.54548e-06
1.31019e-05
-6.6892e-06
3.26362e-06
3.94877e-06
3.55819e-06
-1.1449e-05
5.4025e-06
-2.64256e-06
-4.22758e-06
5.0846e-06
-7.35859e-06
-2.30176e-06
-1.3465e-06
-2.02115e-06
5.6694e-06
1.26139e-06
-2.38865e-06
-1.1745e-06
-2.25995e-06
2.17485e-06
1.88171e-06
2.18268e-06
-6.45304e-06
3.37851e-06
-2.6713e-06
1.52719e-06
-1.60446e-06
2.88456e-06
-3.11875e-06
-2.38667e-06
-5.80295e-07
6.08572e-06
5.8592e-07
-1.42389e-07
-3.56228e-06
-2.42525e-06
6.24498e-07
4.64755e-06
2.06742e-06
-9.14023e-06
3.72311e-06
1.54894e-06
2.29e-06
-3.64964e-07
5.43281e-06
-1.48939e-06
-4.86951e-06
2.02449e-06
4.33442e-06
-4.62905e-06
5.55025e-06
-2.4106e-06
4.80879e-06
-1.43073e-05
3.33206e-06
-4.23719e-06
2.92962e-06
-3.98897e-06
1.16554e-05
-2.19791e-06
3.75919e-06
-1.62632e-06
1.08177e-05
-1.19603e-05
-8.94564e-06
1.00882e-05
-2.69386e-05
7.58509e-06
3.01712e-05
2.1837e-07
-3.91173e-05
2.42019e-05
-1.36225e-05
-1.95251e-05
-5.36355e-07
3.48265e-05
-1.80413e-05
2.509e-05
-3.14453e-05
2.99267e-05
2.7943e-05
3.07406e-05
-8.86103e-05
2.50417e-06
-2.98216e-06
3.04047e-05
2.87247e-05
1.72241e-06
3.09884e-05
-3.22997e-06
-2.37314e-05
8.51246e-05
1.76335e-06
2.91519e-05
7.99307e-07
-7.28844e-07
-2.92224e-05
-3.64136e-05
-3.52106e-05
0.000100776
-3.47971e-05
-8.17242e-07
-3.56192e-05
-3.20254e-07
3.57458e-05
-0.000100587
6.28431e-07
2.46673e-05
2.17491e-06
-2.45382e-05
-2.30406e-06
-1.6722e-05
-1.35474e-05
5.49367e-05
-1.74482e-05
2.90104e-06
2.18278e-05
9.67687e-06
-4.89528e-05
2.12058e-05
3.52299e-06
-2.02661e-05
2.79245e-05
-3.51274e-05
-4.18708e-05
-2.88873e-05
-3.27549e-05
0.000103513
-1.97932e-06
-5.01347e-05
1.02431e-05
-2.91343e-05
-1.73231e-06
2.64632e-05
2.02544e-05
-7.58519e-05
2.82539e-05
2.61866e-05
-5.60669e-05
2.16855e-05
2.01912e-05
2.63276e-05
1.3979e-05
-6.04978e-05
3.46828e-06
-5.13786e-06
2.18608e-05
2.29806e-05
6.81524e-06
3.92597e-05
-3.18291e-05
-1.25684e-05
-1.57126e-05
7.6833e-05
-2.35483e-05
3.08163e-05
-4.13984e-05
-3.28648e-06
1.6439e-05
-1.57834e-06
-1.15742e-05
3.24404e-05
-2.57106e-05
-1.00163e-05
-1.09724e-05
5.98518e-05
-3.9145e-06
1.16554e-05
-9.31922e-06
8.15432e-06
-2.3643e-05
1.85174e-05
-3.60737e-05
1.92003e-05
-7.70478e-06
-4.12625e-06
2.98194e-06
8.84909e-06
4.2851e-06
-2.02826e-06
-9.96162e-06
5.68194e-06
-5.52309e-06
-1.18302e-05
1.32985e-06
1.61823e-05
-2.69005e-06
-1.46632e-05
8.01865e-06
-1.2737e-05
1.23304e-05
5.01581e-06
-4.65822e-06
-4.85617e-06
4.49857e-06
-1.0209e-05
1.86423e-06
1.33606e-05
-1.16977e-06
-1.36975e-05
1.21242e-05
-2.73209e-06
-1.42483e-05
1.18451e-06
1.54383e-05
-6.66702e-06
9.71575e-06
-1.05689e-05
-3.88515e-06
-7.48818e-06
9.88105e-07
1.03852e-05
-2.76744e-06
3.01074e-06
-4.12845e-06
-2.91452e-06
-7.3411e-06
-7.71684e-06
1.26067e-06
9.46692e-06
-7.21204e-07
-1.11241e-05
5.33433e-06
-8.97005e-06
7.5831e-06
-2.92548e-06
-7.82855e-06
9.08385e-07
9.84565e-06
-9.70919e-06
1.15162e-05
-4.73247e-06
7.70841e-06
-2.52462e-05
1.33428e-05
-1.23356e-05
-9.8862e-08
-3.86524e-06
2.70537e-05
-1.58994e-05
2.35504e-05
-2.05266e-05
-7.88529e-06
-5.1142e-06
-2.32633e-06
1.53258e-05
8.79752e-07
-4.94065e-06
-3.82439e-06
-4.61783e-06
3.83383e-07
6.59032e-06
2.93726e-06
-1.41454e-05
6.13167e-06
8.42038e-07
5.39985e-06
-7.40324e-06
9.20519e-06
-5.1011e-07
-1.01333e-06
3.09418e-06
-1.57074e-06
1.68234e-06
2.77145e-06
-4.9639e-06
-6.03612e-07
1.27262e-06
1.12279e-06
-2.48915e-06
7.62741e-07
-1.91472e-06
4.31013e-06
-5.61794e-07
8.44101e-07
6.17663e-07
-5.06151e-06
-1.5699e-06
-1.19761e-07
6.75118e-06
1.14924e-06
-5.14359e-06
-1.06717e-06
-2.90052e-06
2.47986e-06
5.66033e-06
5.34067e-06
-1.39015e-05
2.55027e-06
5.58993e-06
4.49508e-06
-4.298e-06
6.92559e-06
2.26755e-06
3.78635e-07
-6.69625e-08
-2.57922e-06
-1.62901e-06
-1.08959e-06
4.98615e-06
-2.27801e-06
1.02763e-06
-2.59489e-06
2.03942e-06
4.885e-07
2.10177e-06
-7.27588e-06
-1.19049e-06
2.14033e-06
-1.36673e-06
-2.77747e-07
1.50137e-06
-4.38005e-06
3.15643e-06
3.48954e-06
-2.15146e-07
-3.55214e-06
-2.86202e-06
7.85294e-06
-4.51469e-06
4.46353e-06
-1.63987e-07
4.4294e-06
-1.24962e-05
-1.07263e-06
2.67414e-06
-1.02329e-06
6.79287e-06
5.76355e-06
3.61769e-06
-1.61741e-05
2.36738e-08
7.47787e-06
-7.08678e-07
5.92783e-06
-1.40612e-07
-6.12735e-06
-3.9505e-06
1.60057e-05
-5.2207e-06
-1.04726e-06
-4.87433e-06
8.4017e-06
-6.47734e-06
3.9921e-06
7.37162e-07
-5.30371e-06
5.74449e-07
-5.9079e-06
-2.91141e-06
1.28114e-05
6.20328e-07
-5.79106e-06
-7.75779e-06
8.4388e-06
-6.0676e-08
6.07053e-06
-1.96194e-05
-3.19278e-06
8.72016e-06
-2.42595e-06
1.35126e-06
9.0458e-06
-5.14842e-06
-5.24865e-06
5.56911e-06
-5.02512e-06
8.07271e-07
-3.71307e-06
1.8328e-05
5.33802e-06
2.44826e-06
4.71159e-06
1.4337e-06
-3.81855e-06
4.81707e-06
-6.51871e-06
-3.03984e-06
-7.94126e-06
3.64056e-06
7.34054e-06
-4.15696e-06
-3.01695e-06
4.13407e-06
1.30564e-06
-1.34039e-05
7.21929e-06
-5.0764e-06
-5.15984e-06
-1.01122e-06
1.23646e-05
-4.84655e-06
7.47588e-06
-8.61731e-06
-3.9566e-06
8.62757e-07
-2.75562e-08
3.1214e-06
6.1333e-06
2.89922e-06
-1.29891e-05
4.94749e-06
2.04857e-06
3.51034e-06
-5.06785e-06
1.52996e-06
-2.79398e-06
9.42572e-06
4.16746e-06
-6.3361e-06
6.32097e-06
-2.58847e-06
8.7462e-07
2.61101e-06
-8.9716e-07
4.51126e-06
7.3769e-07
-7.83742e-06
2.48234e-06
2.90353e-06
-3.81016e-06
-5.93117e-07
7.01429e-06
-1.92709e-06
-2.78023e-06
3.07465e-06
-4.26405e-06
4.96388e-06
-3.24891e-06
8.57192e-07
3.08281e-06
-6.91095e-07
4.76436e-06
2.3803e-06
-1.03936e-05
3.79983e-06
1.82172e-06
-4.58897e-06
-1.55797e-06
9.22975e-06
-3.92146e-06
-1.3586e-06
3.65458e-06
-5.19574e-06
5.89645e-06
3.09771e-06
1.85171e-06
-2.93756e-06
-2.01187e-06
-1.52541e-06
-4.4683e-06
9.09142e-06
-7.47397e-06
7.80027e-06
-1.27638e-07
6.72021e-06
-9.53013e-06
4.32673e-06
-6.46624e-06
3.37707e-07
-4.79273e-07
-4.16054e-07
1.17103e-05
4.49882e-08
-1.16048e-05
-1.50455e-07
-1.35935e-05
-9.8308e-06
3.51345e-05
-1.38054e-05
2.5697e-07
1.33707e-05
9.79398e-06
-3.47695e-05
1.37377e-05
-5.17453e-07
-7.86707e-06
1.1774e-05
-1.18785e-05
1.32997e-06
-2.29959e-06
-2.6215e-06
3.59113e-06
-4.08953e-06
-3.03887e-06
8.45837e-06
-2.90116e-06
-3.48797e-06
-2.46223e-07
1.12234e-06
-3.77727e-06
5.93058e-06
-9.66477e-06
-1.26233e-06
4.15404e-06
-2.7615e-06
-1.10791e-06
2.51156e-06
-4.74637e-06
3.34272e-06
5.65431e-06
-1.13893e-06
-5.62329e-06
-5.30214e-06
1.3468e-05
-5.74765e-06
7.77387e-06
-3.16514e-06
5.66363e-06
-1.70346e-05
-8.94815e-07
3.36654e-06
2.2447e-08
-1.96132e-05
-2.63315e-06
1.52883e-05
6.95806e-06
1.19584e-05
6.89506e-06
-3.84667e-05
-1.37508e-06
1.07004e-05
1.52828e-05
-1.40534e-05
-2.60447e-06
-4.92335e-06
3.09065e-05
1.68384e-05
-2.39967e-05
2.72033e-05
1.08478e-05
3.63836e-05
2.13963e-05
-6.86277e-05
9.20281e-07
-8.35839e-07
1.07634e-05
3.44211e-05
2.88279e-06
1.13049e-05
-1.16869e-05
-4.53869e-07
-4.65593e-06
2.67242e-05
8.98332e-06
-3.41433e-05
1.34731e-05
-2.39701e-05
2.82975e-05
-5.76967e-05
6.81477e-05
-7.04437e-05
1.31377e-05
-1.18491e-07
-2.78539e-05
6.77158e-05
3.25067e-07
1.23745e-05
3.34858e-07
-1.25475e-05
-1.61924e-07
-1.23956e-05
-8.45176e-06
3.32219e-05
-1.25599e-05
4.99173e-07
1.63273e-05
1.18059e-05
-4.06807e-05
1.68516e-05
-6.86193e-07
-9.81425e-06
1.82141e-05
-1.05683e-05
-1.64369e-05
-7.13267e-07
1.60719e-05
1.07828e-06
1.52896e-05
-4.22948e-05
1.50755e-05
-2.21463e-05
1.21397e-05
-1.72999e-05
2.59775e-06
1.50686e-05
-3.6645e-07
1.54205e-05
5.44246e-06
-3.81628e-05
2.63866e-06
1.53796e-05
1.32959e-05
-1.0336e-05
-3.21245e-07
-1.09953e-05
3.96708e-05
7.51974e-06
-1.24133e-05
1.15931e-05
4.85144e-06
-5.48448e-06
-4.79206e-06
5.4251e-06
-1.39813e-05
3.64107e-06
1.51917e-05
-1.41033e-06
-1.80554e-05
1.25249e-05
-3.66487e-06
-1.36521e-05
1.51242e-06
1.64376e-05
-1.03979e-05
1.55514e-05
-1.54731e-05
-2.2546e-06
2.97978e-06
2.35558e-06
-3.08077e-06
3.87846e-06
1.80756e-06
-7.94062e-06
4.83551e-07
6.37469e-06
-1.15938e-05
2.68819e-06
1.12612e-05
-2.67795e-06
-1.19966e-05
5.51991e-06
-6.3903e-06
8.69165e-06
-6.70486e-06
4.19901e-06
4.84747e-06
-2.34162e-06
1.25646e-05
2.76982e-06
-2.20392e-05
4.94942e-06
1.18141e-05
-8.54745e-06
-3.04607e-06
1.6441e-05
-6.9408e-06
-3.94827e-06
5.62509e-06
-9.79607e-06
7.52844e-06
-2.03224e-07
-2.5949e-06
7.42622e-07
2.0555e-06
-4.55633e-06
3.73831e-06
6.14788e-07
1.69714e-06
-8.84836e-06
2.07209e-06
-3.70329e-06
2.37383e-06
-3.5939e-06
7.72149e-06
-2.73046e-06
2.87487e-06
-4.73662e-06
-6.50352e-06
-2.31723e-06
1.73998e-06
7.08076e-06
2.8335e-06
1.39296e-07
-9.47631e-06
-2.07165e-06
2.58792e-06
6.35218e-06
-3.5065e-06
-4.91733e-06
-8.06024e-07
9.74613e-06
3.83454e-06
-7.20175e-06
4.7685e-06
-2.4534e-07
-3.81727e-06
-3.30014e-07
4.39263e-06
-4.12994e-06
1.13981e-06
2.74479e-06
-4.41083e-06
-3.53638e-06
4.75005e-06
1.01141e-06
-6.09148e-06
-1.38996e-06
1.05326e-05
-3.27289e-06
3.02274e-06
-6.67232e-06
-6.02093e-06
-4.48668e-06
-6.68317e-07
1.11759e-05
1.68922e-06
-3.49208e-06
-4.21807e-06
-4.26424e-06
1.46678e-06
5.53071e-06
4.06309e-07
-1.02013e-05
2.84978e-06
4.14771e-06
4.21821e-06
-7.30398e-06
6.39967e-06
-7.95348e-06
-1.20829e-05
-5.71802e-06
2.57544e-05
8.98581e-07
-8.20605e-06
-6.46015e-07
-1.13546e-05
1.70336e-07
1.9059e-05
1.95206e-05
-4.99342e-05
1.95667e-05
-3.37329e-07
-2.73924e-06
1.65879e-05
8.57531e-06
-1.11454e-06
5.07128e-06
-7.72416e-06
3.76741e-06
4.5966e-06
-4.3385e-06
-1.37264e-06
-4.29656e-06
1.39644e-05
4.73222e-06
5.98419e-06
-1.50549e-05
1.03026e-05
-6.94298e-06
7.09172e-06
-8.83169e-06
1.30977e-05
-3.41676e-06
-2.3474e-06
-8.10319e-07
6.57448e-06
7.13414e-07
-2.0333e-06
-2.09687e-06
-2.3163e-06
6.82305e-07
3.97078e-06
1.09934e-06
-7.38641e-06
2.3588e-06
2.29428e-06
2.53552e-06
-3.46947e-06
4.084e-06
-4.02964e-06
-2.22143e-06
-1.06321e-06
7.31428e-06
7.76851e-07
-2.1872e-06
-2.61929e-06
-2.20455e-06
7.59964e-07
3.13941e-06
6.79181e-07
-6.02314e-06
1.72584e-06
2.17354e-06
2.22749e-06
-3.7355e-06
2.89012e-06
-5.28831e-06
-2.13324e-06
5.24939e-06
2.17216e-06
3.84063e-06
9.09131e-06
-1.82203e-05
7.87798e-06
-6.1706e-06
-3.09139e-06
-7.41668e-06
1.57575e-05
-5.29782e-06
4.37859e-06
-2.36137e-06
6.15486e-06
-1.90006e-06
2.81924e-06
-4.30744e-06
1.09508e-05
-9.46261e-06
-6.66387e-06
7.82383e-06
1.65928e-06
6.44157e-06
-1.74129e-05
-7.50115e-06
-6.87475e-06
2.21997e-05
-9.88831e-06
4.04644e-06
-6.04037e-06
1.01164e-05
-9.48712e-06
-5.864e-06
-1.90691e-06
5.85722e-07
7.18518e-06
3.02168e-06
-2.66215e-06
-6.22353e-06
-3.15265e-06
4.26743e-06
1.19258e-05
4.89659e-07
-1.55681e-05
3.40362e-06
1.27896e-05
6.28088e-06
-8.45338e-06
1.02702e-05
1.30117e-06
-4.92014e-06
-8.49649e-06
1.21155e-05
-6.10557e-06
-8.27984e-06
1.56866e-05
-5.67816e-06
-5.34755e-06
3.10955e-06
6.8461e-06
-1.56338e-05
8.848e-06
-1.1086e-05
-2.08621e-06
2.65437e-06
-3.7366e-06
2.15362e-06
1.40691e-05
-1.26799e-05
-3.54288e-06
7.5342e-06
-8.68675e-06
3.30617e-06
-3.45662e-06
2.506e-05
1.57166e-05
4.71015e-06
-2.91135e-05
9.42812e-06
9.59467e-06
-1.48336e-05
2.08051e-05
-2.28033e-05
-1.73484e-05
-9.68993e-06
-1.07148e-06
2.81099e-05
5.4217e-06
-1.01759e-05
-1.25942e-05
7.80926e-06
-1.20775e-05
-2.51172e-05
8.5962e-06
2.43302e-05
6.71611e-06
-4.39108e-05
1.22677e-05
-1.57275e-05
1.97924e-05
2.93242e-07
2.42481e-05
-3.25119e-07
-2.42163e-05
2.73152e-05
-2.85815e-05
1.55946e-06
-1.55286e-05
6.7092e-05
-3.22704e-05
3.50561e-05
-3.11082e-06
2.36656e-05
-8.01522e-05
2.43163e-05
-2.92321e-05
4.38437e-05
-8.50893e-08
-1.81992e-05
5.26901e-07
1.77574e-05
-2.41474e-05
2.27222e-05
1.34012e-06
1.22538e-05
-5.46004e-05
2.55454e-05
-2.63648e-05
1.34625e-06
-1.31893e-05
5.6492e-05
-2.54403e-05
3.49732e-05
-3.95512e-05
5.39425e-06
-4.46642e-06
-3.88409e-06
2.95627e-06
-1.09889e-05
1.15932e-06
1.52238e-05
1.17216e-06
-1.66275e-05
1.08573e-05
-4.3634e-06
-1.0378e-05
7.14185e-08
1.37422e-05
-7.94245e-06
9.1732e-06
-1.11337e-05
-1.17531e-05
1.71695e-07
1.1704e-05
-1.22641e-07
1.12753e-05
8.92907e-06
-3.19575e-05
-6.58423e-08
1.15129e-05
1.62464e-05
-1.67602e-05
4.47998e-07
-9.65276e-06
3.7412e-05
1.21046e-05
-1.99357e-05
1.41558e-05
-5.85831e-09
-1.88816e-05
1.92255e-05
-3.38056e-07
-1.5183e-05
1.53111e-05
-1.33928e-07
1.12856e-05
-4.53502e-05
-1.93623e-05
-1.13037e-05
4.5977e-05
-1.92139e-05
-2.82244e-07
-1.56675e-05
2.35894e-05
-2.35958e-05
-4.50637e-06
-2.67033e-06
2.65916e-07
6.91079e-06
1.39482e-06
-5.65073e-07
-5.33612e-06
-2.3325e-06
1.05699e-06
4.84536e-06
3.71073e-07
-7.54894e-06
2.4658e-06
3.43655e-06
3.4527e-06
-3.6467e-06
6.18442e-06
-1.35019e-06
8.02302e-07
1.2691e-07
4.20979e-07
1.13932e-06
-2.34322e-06
-1.46294e-07
2.06493e-06
-1.23307e-07
-3.23225e-06
4.22732e-08
5.2549e-06
9.17288e-07
-4.27284e-06
2.8794e-06
-4.30532e-06
3.04858e-06
-5.8714e-06
-2.90975e-06
2.0086e-06
6.77255e-06
3.54716e-06
7.30071e-07
-1.01486e-05
-2.38694e-06
3.02436e-06
6.07109e-06
-3.31643e-06
-5.1416e-06
-5.74779e-08
9.15292e-06
3.29808e-06
-5.88443e-06
5.2492e-06
-9.94097e-06
2.30243e-07
9.70389e-06
6.83749e-09
8.76275e-06
5.24965e-06
-2.39534e-05
8.83072e-06
1.62282e-07
-1.53547e-05
-1.2775e-05
3.78336e-05
-1.50311e-05
-3.16826e-07
6.60146e-06
-1.63829e-05
2.65718e-06
1.10397e-07
1.40827e-05
-1.40308e-05
9.84603e-06
-9.82328e-06
8.76469e-08
2.65859e-05
1.49064e-05
-5.28906e-05
-1.12997e-05
1.22305e-05
-1.13912e-07
-1.17002e-05
-4.16401e-07
-9.49688e-06
-4.08814e-06
2.58155e-05
-9.78866e-06
1.77867e-07
2.42856e-05
2.14247e-05
-5.74105e-05
2.42705e-05
-4.0134e-07
-1.05198e-05
3.07022e-05
1.11624e-06
1.20152e-05
-5.11729e-07
-1.13256e-05
-1.21035e-05
-1.13092e-05
1.18592e-05
-1.06179e-06
-2.15185e-05
3.04579e-05
-2.56608e-05
-8.71232e-06
-1.63448e-05
5.07179e-05
7.83031e-07
-2.45047e-05
-1.93915e-06
4.25739e-05
-5.04907e-05
5.19835e-05
-2.04292e-06
6.73891e-07
2.0678e-06
-6.98777e-07
2.83022e-06
6.1066e-07
-5.4838e-06
1.47954e-06
2.02457e-06
-3.5928e-06
-1.06537e-06
6.72598e-06
-1.82741e-06
-2.46417e-06
1.72311e-06
-2.93986e-06
2.13728e-06
8.65503e-07
-3.44569e-08
-9.28279e-08
-7.38218e-07
-2.38263e-08
-1.30968e-06
2.19901e-06
-2.08357e-06
2.02529e-06
-4.25851e-07
1.32611e-06
-9.93091e-07
8.37382e-07
-2.00145e-06
-3.99067e-07
4.155e-07
-1.64526e-06
-5.90432e-06
-2.53181e-06
6.2674e-06
2.16872e-06
4.16878e-06
5.44065e-06
-1.55137e-05
8.2088e-06
-6.57183e-06
-5.70575e-06
-8.0779e-06
2.00511e-05
-1.0494e-05
6.95702e-06
4.88853e-06
-9.94192e-06
5.01944e-06
6.30086e-06
9.65923e-06
6.57582e-07
-1.66177e-05
2.385e-06
-2.86427e-06
6.78012e-06
5.4724e-06
1.34484e-05
-6.42931e-06
-9.88341e-06
-1.85664e-06
2.20852e-05
-9.55374e-06
1.31695e-05
-1.53255e-05
-4.6312e-06
-6.90948e-06
-2.15889e-06
1.36996e-05
-5.55628e-07
-3.83168e-06
-2.43897e-07
-5.56132e-06
-1.90378e-06
5.56109e-06
2.23108e-06
-1.16238e-05
4.00543e-06
1.31176e-06
5.69768e-06
-9.02792e-06
7.54422e-06
2.6481e-06
4.43208e-06
-1.08171e-06
-5.99847e-06
1.5264e-06
2.732e-06
-1.6103e-06
1.31264e-06
4.64583e-06
-4.0888e-06
-4.492e-07
7.27001e-06
-2.04709e-06
-3.65202e-06
-2.91009e-06
3.77354e-06
-6.03889e-06
4.41422e-06
-4.72907e-07
-5.44495e-06
1.50364e-06
-7.24103e-06
-2.78917e-06
1.44444e-05
-6.04246e-06
-1.67148e-06
8.76341e-06
2.977e-06
-1.71854e-05
5.45132e-06
4.81574e-06
-6.87738e-06
9.53952e-06
-9.94284e-06
-3.7142e-06
1.03031e-06
4.03316e-06
-1.34926e-06
3.82234e-06
5.16665e-06
-1.27032e-05
1.83189e-06
3.02076e-06
2.55981e-06
-5.51243e-06
4.78451e-06
-4.14489e-06
9.72546e-06
1.55843e-06
-1.90421e-06
1.44669e-06
5.48297e-08
-6.36892e-06
3.8219e-07
5.9319e-06
-8.60702e-06
7.71206e-06
9.49792e-07
5.77529e-06
-2.07512e-05
4.78836e-06
-5.00046e-06
5.94287e-07
-3.84284e-06
1.45631e-05
-4.11985e-06
7.98907e-06
-3.34502e-06
4.25849e-06
-3.87915e-06
2.14949e-07
-8.88919e-06
2.77108e-05
4.20755e-06
-1.14317e-05
5.03414e-06
-6.11639e-07
4.13402e-06
2.79483e-05
7.72471e-06
-8.09453e-07
-3.48636e-05
-1.31142e-05
3.50739e-06
3.75551e-05
-9.96134e-06
4.57187e-06
1.90473e-05
-4.88753e-06
-2.41211e-05
5.82571e-06
1.77935e-05
-1.72984e-05
2.66315e-05
-2.29954e-05
-3.84698e-06
3.25809e-06
1.29849e-05
-1.2396e-05
4.45337e-06
3.75815e-06
-1.20585e-05
2.55755e-06
5.15391e-06
2.51749e-07
-5.4663e-06
7.77211e-06
-7.12386e-06
1.25295e-05
2.74709e-06
-4.45524e-06
8.6081e-06
-1.61601e-05
-1.04222e-05
-7.66447e-06
3.42468e-05
1.07471e-06
-1.60704e-05
-1.16441e-06
-9.00983e-06
-3.37693e-07
6.94614e-06
5.30417e-06
-2.12601e-05
9.4319e-06
-2.82345e-06
1.03538e-05
-2.112e-05
1.21212e-05
2.3951e-06
-2.07006e-05
1.95183e-05
-1.21274e-06
-2.69233e-05
2.6989e-05
2.32936e-06
1.67204e-05
-6.43444e-05
-2.08725e-05
-1.70712e-05
5.7462e-05
-2.20636e-05
-2.16112e-08
-1.17492e-05
2.1667e-05
-1.70924e-05
4.99723e-06
2.78917e-06
3.69514e-07
-8.15592e-06
-3.65327e-06
1.48952e-06
7.16099e-06
2.91518e-06
-3.77928e-06
-8.27795e-06
1.84305e-06
9.35008e-06
-2.76604e-06
-9.2912e-06
-5.47829e-06
8.81086e-06
-7.87481e-06
-1.3414e-05
-1.49925e-05
-8.77752e-06
3.71841e-05
-3.40075e-07
-8.67809e-06
-4.39588e-06
-1.46551e-05
-6.7749e-07
1.65156e-05
7.71177e-06
-3.88825e-05
1.60857e-05
-2.47624e-07
9.06996e-06
-1.00363e-05
1.63782e-05
1.09127e-05
1.99364e-07
-1.08666e-05
-2.45429e-07
-1.2617e-05
-8.78091e-06
3.23106e-05
-1.34763e-05
1.05865e-06
1.35808e-05
1.00234e-05
-3.44709e-05
1.28556e-05
4.79736e-07
-7.94515e-06
1.20199e-05
-1.1398e-05
-4.40038e-07
-2.51208e-06
-4.5821e-06
7.53422e-06
-2.81667e-06
-4.40728e-06
6.78392e-06
-1.96789e-06
-3.36087e-06
-1.21314e-06
4.84766e-06
-5.60241e-06
4.54636e-06
-9.12037e-06
6.5433e-08
3.74947e-07
2.96929e-08
-7.37273e-07
-3.40387e-08
2.46224e-07
5.25088e-07
-8.40446e-08
1.59129e-06
-2.24452e-06
2.4092e-06
-2.52728e-06
2.96604e-07
-1.24758e-06
1.1972e-06
-1.27088e-06
2.09257e-06
5.54901e-07
-2.34487e-07
1.71652e-06
-1.09344e-05
-8.62296e-09
1.04699e-05
4.73075e-07
1.02472e-05
6.62883e-06
-2.78104e-05
1.01726e-05
6.59902e-08
-1.6629e-05
-1.37195e-05
4.08184e-05
-1.68178e-05
6.61936e-07
7.46388e-06
-1.76529e-05
3.91696e-06
2.13739e-07
1.62305e-05
-1.63782e-05
1.08515e-05
-1.20305e-05
1.39265e-06
3.0999e-05
1.90834e-05
-6.3272e-05
-1.06e-05
-5.34817e-07
4.13357e-06
8.86219e-07
-4.48498e-06
4.86959e-06
-3.495e-06
-1.90941e-06
-1.24799e-06
1.02512e-05
-6.25995e-06
4.15929e-06
2.98688e-06
1.49438e-06
-1.22393e-05
4.94206e-06
-6.94268e-06
7.85336e-06
-6.7246e-06
1.56561e-06
6.9252e-06
-1.7662e-06
8.34596e-06
2.76333e-06
-1.78339e-05
5.05361e-06
4.85796e-06
-1.19079e-05
-4.06463e-06
2.28977e-05
-6.5829e-06
-7.09121e-06
4.61425e-06
-8.43382e-06
5.60323e-06
-2.69055e-06
-1.32812e-06
3.06244e-06
9.56237e-07
8.31585e-07
3.74438e-06
-7.26652e-06
4.43992e-06
-4.93646e-06
-2.34043e-06
-3.7453e-06
9.14816e-06
-4.12056e-06
2.73637e-06
7.53888e-07
-1.13006e-06
1.44851e-06
-1.03274e-06
4.59245e-06
-4.51373e-06
9.54024e-07
7.97784e-06
-5.78151e-06
-3.22907e-06
-6.01798e-06
-9.07597e-06
3.20704e-06
-1.35023e-05
-7.52344e-06
2.45948e-06
-1.33924e-05
-1.57495e-06
-3.07315e-06
-6.21626e-07
5.26972e-06
-5.25899e-07
-1.83036e-06
7.81304e-07
-5.34793e-07
-3.06425e-06
2.51234e-06
-5.23977e-06
8.97071e-07
-6.61964e-06
8.51036e-06
-4.69496e-06
-1.2999e-05
-5.08668e-06
-8.0598e-06
-5.98725e-06
1.68188e-06
-1.315e-05
-1.24351e-05
-1.02232e-05
-1.04885e-05
3.31467e-05
-3.41002e-07
-1.29674e-05
8.73328e-07
-1.00258e-05
-5.38408e-07
9.76957e-06
7.6231e-06
-2.74184e-05
1.06502e-05
-1.41901e-06
5.52566e-06
-1.087e-05
5.68736e-06
-1.11805e-05
-7.8097e-07
1.01508e-05
1.81063e-06
9.02721e-06
5.561e-06
-2.57687e-05
-1.25694e-06
9.50318e-06
1.29888e-05
-9.94766e-06
-4.29812e-06
-5.60866e-06
2.81007e-05
8.90577e-06
-1.32924e-05
1.34479e-05
2.80062e-06
-9.15856e-06
-3.4347e-06
9.79264e-06
-1.50294e-05
8.48512e-06
9.34491e-06
2.18908e-06
-2.63771e-05
1.66129e-05
-8.22086e-06
-1.18267e-05
-2.57489e-06
2.89804e-05
-1.21899e-05
1.81001e-05
-1.82217e-05
6.76531e-06
2.46623e-06
1.05505e-05
-1.9782e-05
-5.3511e-06
5.95926e-06
6.15714e-06
1.06628e-05
-1.35477e-05
-9.08596e-07
-1.0089e-05
1.69569e-05
-1.25039e-05
1.77525e-05
-2.94665e-06
3.52047e-06
-4.90012e-06
-5.79163e-06
-6.46921e-06
-5.30271e-06
1.75635e-05
-1.05473e-06
-6.96679e-06
2.2299e-06
-6.52625e-06
-9.97694e-07
6.96835e-06
7.99839e-06
-2.1493e-05
9.28714e-06
-3.31648e-06
3.13059e-06
-2.09899e-06
7.11501e-06
4.99377e-07
3.99108e-06
-2.99952e-07
-4.19051e-06
4.62227e-06
-6.86836e-06
2.74547e-06
-3.01675e-06
1.16301e-05
-4.42964e-06
6.65307e-06
-2.52338e-06
5.60085e-06
-1.4221e-05
4.62199e-06
-5.88949e-06
8.2583e-06
6.4883e-06
3.57449e-06
3.12116e-06
-1.31839e-05
-1.36083e-06
3.02433e-06
4.8248e-06
2.21885e-06
-5.18742e-09
-1.58853e-06
-2.4135e-06
6.22087e-06
-5.04029e-06
3.44657e-06
-3.37572e-06
3.98655e-06
-5.29485e-06
8.26331e-07
1.36036e-06
1.34293e-06
-3.52962e-06
-4.59367e-07
1.45197e-06
-1.66267e-07
1.88448e-06
-9.83485e-07
-1.76335e-06
-2.83832e-07
3.93166e-06
-3.01537e-06
2.68533e-07
-6.33657e-07
1.80179e-06
-2.3061e-06
-1.3834e-06
-1.25851e-06
1.90913e-06
7.32782e-07
3.10045e-06
1.70767e-06
-6.19152e-06
-3.46257e-07
2.1882e-06
1.35018e-06
-2.61737e-06
9.20933e-07
-2.66857e-06
6.20696e-06
1.57093e-06
-2.48064e-06
8.11481e-07
2.16099e-05
-5.20545e-07
-2.32028e-05
2.11345e-06
-2.11393e-05
-1.85887e-05
6.13379e-05
-2.36175e-05
1.95766e-06
2.57895e-05
1.84976e-05
-6.74899e-05
2.88359e-05
-9.32995e-07
-1.12385e-05
2.14858e-05
-1.63585e-05
-1.09e-05
-6.88085e-08
1.07537e-05
2.15088e-07
2.35574e-05
7.28384e-06
-4.17413e-05
2.3417e-05
7.15801e-08
-3.97078e-05
-3.43784e-05
9.75032e-05
-3.94422e-05
-1.93982e-07
-6.6733e-06
-1.69513e-05
-3.88317e-05
1.0721e-05
-2.18572e-07
-1.07594e-05
2.56959e-07
-1.999e-05
-6.9181e-06
3.76291e-05
-1.94312e-05
-7.77349e-07
7.24752e-06
-3.92546e-05
2.12477e-05
-3.91514e-05
3.94809e-05
3.87521e-05
-9.74379e-05
-1.17664e-06
1.63855e-05
3.96074e-05
-9.77342e-05
-3.50787e-07
4.24975e-07
-2.24453e-07
1.95122e-06
7.97542e-07
-2.52431e-06
1.55879e-06
-3.12711e-06
1.34388e-06
1.21578e-06
2.29423e-06
-1.90061e-06
2.34062e-06
3.57529e-07
3.57755e-06
-8.00247e-06
6.74663e-07
-2.24225e-07
4.23106e-06
-1.36047e-05
-1.34797e-05
-8.58307e-06
3.56675e-05
1.1548e-07
-1.35996e-05
-1.20649e-07
-1.34147e-05
5.05069e-08
1.8175e-05
1.33553e-05
-4.49451e-05
1.84048e-05
-1.79243e-07
9.88226e-06
-1.01265e-05
1.9704e-05
1.64471e-05
1.99889e-05
1.23097e-05
-4.87457e-05
5.40396e-07
1.67602e-05
-8.53502e-07
1.9689e-05
8.4031e-07
-1.98238e-05
-1.25803e-05
4.91644e-05
-1.92877e-05
-1.38964e-06
1.37316e-05
-2.07096e-05
2.08403e-05
1.28481e-05
1.51055e-05
6.81118e-06
-3.47647e-05
-7.04537e-07
9.29622e-08
1.34596e-05
1.42406e-05
1.60356e-07
1.60286e-05
-1.26322e-05
-3.30348e-06
-8.05101e-06
3.75393e-05
-1.10743e-05
1.72639e-05
-1.68953e-05
4.22677e-07
2.42499e-06
1.98364e-07
-3.04603e-06
2.26846e-06
-2.64075e-06
7.94969e-07
-2.26163e-06
6.95508e-06
-4.25214e-06
3.54393e-06
9.06573e-07
2.99725e-06
-1.02954e-05
1.70314e-06
-1.34664e-06
2.98545e-06
-6.8066e-06
-1.49413e-05
-4.29164e-06
2.60395e-05
4.51379e-07
-7.0051e-06
-2.52879e-07
-1.48036e-05
3.13658e-07
-4.38626e-06
-2.5114e-05
2.52087e-05
-2.39832e-05
1.25918e-05
2.54484e-05
-6.42352e-05
6.48039e-07
1.20314e-05
3.07608e-07
-2.52011e-05
3.15129e-07
-1.26817e-05
-8.79877e-06
-4.83998e-06
2.63205e-05
2.87364e-06
-8.34787e-06
-7.20749e-06
-9.11329e-06
3.18815e-06