/*--------------------------------*- C++ -*----------------------------------*\
| =========                 |                                                 |
| \\      /  F ield         | OpenFOAM: The Open Source CFD Toolbox           |
|  \\    /   O peration     | Version:  v2012                                 |
|   \\  /    A nd           | Website:  www.openfoam.com                      |
|    \\/     M anipulation  |                                                 |
\*---------------------------------------------------------------------------*/
FoamFile
{
    version     2.0;
    format      ascii;
    class       volVectorField;
    location    "0.4";
    object      U;
}
// * * * * * * * * * * * * * * * * * * * * * * * * * * * * * * * * * * * * * //

dimensions      [0 1 -1 0 0 0 0];


internalField   nonuniform List<vector> 
24700
(
(0.0186416 -1.74787 0.0184071)
(-0.00726498 -1.69596 0.00998283)
(-0.00534035 -1.63938 -0.000734146)
(0.0762569 -1.44602 -0.0178416)
(0.0347114 -1.56072 -0.0405953)
(0.0835968 -1.5113 -0.058998)
(0.0606946 -1.56403 -0.0503368)
(-0.0101677 -1.48882 0.00444173)
(0.085988 -0.899407 -0.018834)
(0.028037 -1.39761 -0.0244698)
(-0.00237859 -1.46826 -0.0207239)
(-0.00360334 -1.49935 0.00484702)
(-1.03711e-05 -1.48561 -0.0219248)
(0.00399026 -1.47129 -0.0189579)
(0.00551531 -1.48452 0.00348741)
(-0.0017039 -1.49541 0.000739435)
(-0.00271298 -1.4898 -0.0168391)
(-0.00551162 -1.57197 0.0187749)
(0.0331334 -1.54403 0.0208402)
(0.00118051 -1.67809 0.101355)
(0.0449494 -1.45126 0.00264639)
(0.00697314 -1.49883 -0.00195588)
(0.0260114 -1.44822 0.0113618)
(0.00352783 -1.57754 0.0575703)
(0.0546518 -1.43765 -0.00317496)
(0.00689561 -1.51642 -0.00672507)
(0.0505883 -1.21176 -0.00230454)
(-0.0102755 -1.5005 0.0123887)
(-0.025445 -1.50376 -0.031665)
(0.0274326 2.02176 -1.22547)
(0.0581386 1.98174 -0.801259)
(-0.105969 1.79728 -0.845279)
(-0.10706 1.78387 -0.741369)
(-0.0314696 1.61095 -0.181995)
(-0.12957 1.44998 -0.572341)
(0.0224304 1.5742 -0.224214)
(0.00940677 -4.02392 0.196964)
(-0.026189 -4.6332 0.356999)
(0.00272114 -3.34829 0.093167)
(-0.0474473 -3.91155 0.228744)
(0.0775543 -3.23831 0.154665)
(-0.0597396 -4.56369 0.269851)
(0.000480568 -3.82475 0.117441)
(0.00071012 0.526882 -0.0666672)
(0.0396021 0.308574 0.0660593)
(0.0510053 0.261621 0.13571)
(0.0265878 0.540574 0.0237233)
(-0.0122695 0.536626 0.137006)
(0.0923921 0.26015 0.11135)
(0.129124 0.147193 0.0220209)
(0.0106413 -0.179808 0.232591)
(-0.00101369 -0.208736 0.259375)
(0.00965024 -0.209299 0.268768)
(-0.00424285 -0.174678 0.245139)
(-0.0248346 -0.233042 0.289596)
(-0.00985039 -0.146828 0.239794)
(-0.0126125 -0.19642 0.300709)
(0.0499772 -1.456 0.423248)
(0.329314 -2.08272 2.87057)
(1.26797 -1.62738 -1.3538)
(0.449321 -1.22903 -1.45421)
(-1.11115 -0.99314 -0.395601)
(1.01713 -1.48105 -1.34938)
(-0.63201 -1.27452 -0.962386)
(0.00171478 -0.441273 -0.00878852)
(-0.0337715 -0.627376 0.15474)
(-0.0767361 -0.861584 0.34786)
(-0.0655614 -1.10649 0.327436)
(0.0525271 -0.954707 0.0612243)
(-0.0286593 -0.973681 0.164661)
(-0.0939446 -1.17542 0.435579)
(-0.0500532 -0.135509 0.106175)
(0.00949632 0.193283 0.028115)
(-0.024029 0.115023 0.0236453)
(0.0734725 -0.036398 0.0299437)
(0.00664852 0.0625599 0.0298488)
(0.0710068 -0.0416705 0.000813454)
(0.0788755 -0.101692 0.00294829)
(0.000388543 -1.43705 -0.0773282)
(-0.0203271 -1.09957 0.0316252)
(-0.00884018 -1.49343 -0.0732546)
(-0.0535686 -1.55695 -0.0598275)
(0.0432693 -1.301 -0.121652)
(-0.0269139 -1.51681 -0.126236)
(-0.0291075 -1.53454 -0.102125)
(0.0055182 -0.180636 -0.0546691)
(0.023451 -0.222797 0.0356072)
(-0.035896 -0.278307 0.068832)
(-0.0578223 -0.351394 -0.0736479)
(0.0220032 -0.381629 -0.031291)
(-0.0206394 -0.358988 0.0225176)
(-0.0897034 -0.372751 0.0467827)
(-0.00757329 0.554313 -0.0930367)
(-0.0113847 0.544285 -0.0269225)
(-0.00355169 0.528042 -0.0970959)
(0.00783443 0.488439 -0.0828564)
(-0.000989357 0.493095 -0.112711)
(0.000136616 0.50752 -0.0640722)
(-0.00733768 0.522882 -0.103299)
(0.00570756 1.1081 0.242452)
(-0.0145109 1.25382 0.251302)
(-0.0289192 1.40475 0.244493)
(0.00366561 1.24361 0.155766)
(-0.0233214 1.15789 0.207483)
(-0.0222283 1.28669 0.226596)
(0.011755 1.37504 0.221253)
(-0.00384747 0.965826 -0.116085)
(0.0226611 1.08451 -0.0821078)
(-0.00453017 1.09096 0.0845089)
(-0.0373288 0.852318 0.105804)
(-0.0781455 0.715397 0.108656)
(-0.0145755 0.90833 0.0377587)
(-0.103527 0.733288 0.0299748)
(-0.121296 0.99545 -0.0845514)
(-0.0352736 1.22353 0.0742224)
(0.0328632 1.28553 0.166659)
(0.0177062 1.10109 0.0859909)
(-0.00855436 0.990166 0.016973)
(-0.0533334 0.859665 -0.00752523)
(-0.0137248 1.0419 0.0607584)
(0.0960925 0.911023 0.00558864)
(0.0571583 1.11431 0.072634)
(0.0114766 1.20162 0.0778917)
(-0.168155 1.78803 1.15917)
(-0.03651 1.6448 1.18956)
(0.0604265 1.6766 1.13593)
(0.109652 1.5927 0.90295)
(0.0175961 1.70832 0.845313)
(0.0370889 1.39722 1.1144)
(0.0152329 1.55426 0.95679)
(0.0770834 1.57243 1.21883)
(0.0773343 1.33061 1.29218)
(0.0857635 1.48422 1.35924)
(0.518664 0.807771 0.885891)
(-0.211806 2.04703 1.34003)
(-0.0679423 0.0498419 -0.0213244)
(-0.00330453 0.0917327 -0.267835)
(0.0481322 -0.0128165 -0.207086)
(0.00711342 -0.0910076 -0.469601)
(-0.0121608 -0.0221036 -0.414633)
(0.0148365 0.226976 -0.15264)
(-0.0186888 0.117484 -0.203332)
(-0.000875161 0.417989 -0.0568159)
(0.0036484 0.398763 -0.0986289)
(0.0244316 0.396833 -0.0978335)
(0.0224015 0.406558 -0.00519246)
(-0.00916356 0.404282 -0.0274782)
(0.0136434 0.38648 -0.0704335)
(0.0591337 0.389118 -0.0606838)
(-0.0516864 0.25893 0.137867)
(-0.047714 0.33606 0.0708748)
(-0.00730065 0.577635 -0.0791002)
(0.0234104 0.543637 0.118204)
(-0.0101909 0.540339 -0.00931372)
(-0.0733388 0.237683 0.0761277)
(-0.109847 0.0797153 -0.0128294)
(0.0312114 -0.0198898 0.504375)
(0.0398235 0.0124448 0.510293)
(-0.0259738 0.0825473 0.718328)
(-0.0013972 0.139026 0.524107)
(0.0427985 0.139105 0.61538)
(0.101947 0.166893 0.570942)
(0.075156 0.140922 0.511329)
(0.000836576 0.0181221 0.812065)
(0.0290815 0.0433698 0.72084)
(-0.00179621 0.033246 0.772898)
(0.0084327 0.022358 0.908637)
(0.0191613 0.00456299 0.866972)
(0.0363794 0.0502323 0.800199)
(0.000292084 0.0388137 0.848085)
(-0.00731132 -0.23547 1.27641)
(0.0610435 -0.233551 1.11937)
(0.0752844 -0.223703 1.12472)
(-0.090291 -0.0842596 1.25706)
(-0.0804688 -0.0803252 1.28191)
(-0.0959594 -0.114439 1.17475)
(-0.0300792 -0.222543 1.18871)
(-0.122686 0.445238 0.49641)
(-0.0424131 0.0487798 0.329804)
(-0.00686441 0.0997246 0.414041)
(0.0719463 0.185606 0.0673677)
(0.0119353 0.639106 0.473061)
(-0.0195873 0.130727 0.199301)
(-0.109725 0.656261 0.468797)
(0.0921367 -1.48518 1.51657)
(0.0303939 -1.36167 1.53424)
(0.00531944 -1.30215 1.17815)
(-0.019739 -1.33259 1.16166)
(0.041322 -1.40543 1.12653)
(0.0364832 -1.38164 1.42679)
(0.168955 -1.51564 1.40821)
(0.0340113 -0.115085 0.240008)
(-0.0241156 0.0198763 0.132531)
(-0.000242023 0.0367355 0.108483)
(0.00619693 -0.0539302 0.138979)
(-0.0184457 -0.0894766 0.264997)
(0.0150259 -0.0767168 0.209903)
(0.0486929 -0.185979 0.315623)
(0.0604483 0.447779 0.0755371)
(-0.0161737 0.541392 0.0270241)
(-0.0198397 0.394731 0.143591)
(-0.0617333 0.310585 0.122329)
(0.0619075 0.334037 0.0209188)
(0.0581584 0.379291 0.0611113)
(-0.0939268 0.264044 0.14694)
(0.00140857 -2.00928 -0.00507788)
(-0.00277556 -1.98988 0.0172414)
(0.00278292 -2.01093 -0.0165245)
(-0.00185721 -1.98151 0.0247853)
(-0.00601151 -1.96121 0.0208944)
(-0.00627828 -1.98695 0.00168505)
(-0.00398693 -1.98767 0.00784783)
(-0.0109945 0.606997 0.180924)
(0.0192488 0.657553 0.149913)
(0.0411466 0.653045 0.113133)
(0.00663701 0.668735 0.127599)
(-0.0208833 0.669964 0.137371)
(0.00382211 0.66863 0.148075)
(0.0166647 0.699545 0.16781)
(0.0416105 -0.281977 0.12469)
(-0.0116612 -0.353622 0.176956)
(0.0628505 -0.214681 0.104063)
(-0.0359267 -0.316256 0.152818)
(-0.0198867 -0.383743 0.112174)
(0.0271278 -0.228359 0.132104)
(0.014862 -0.300146 0.112781)
(-0.0137489 0.314176 -0.165432)
(0.0315576 0.114289 -0.195022)
(0.0182864 0.482118 -0.0650987)
(0.0866164 0.534229 -0.069067)
(0.0289864 0.55515 -0.0437868)
(0.197106 0.253543 -0.0528905)
(0.120231 0.370696 -0.0266233)
(-0.0250231 0.264257 0.763549)
(-0.0308621 0.111242 0.704199)
(0.0202822 0.116813 0.700465)
(0.124815 0.136524 0.689116)
(0.0194797 0.179108 0.668524)
(-0.0202637 0.0552237 0.647566)
(0.0593863 0.0524744 0.648307)
(-0.0190073 1.63238 1.39592)
(0.158061 1.85523 1.54168)
(0.0650541 2.17622 1.5065)
(-0.251624 2.31399 0.958218)
(-0.112506 1.97592 1.16282)
(-0.0847682 2.01265 1.36903)
(-0.30609 2.32142 1.18433)
(-0.150476 2.42626 -0.320347)
(-0.530674 1.90389 -0.164955)
(0.229939 2.18915 0.179455)
(0.0183206 2.64854 -0.0364343)
(0.0309038 2.38989 0.376569)
(0.479257 2.00407 0.348067)
(0.021853 -0.0146535 -1.83099)
(0.134329 0.0375702 -2.70491)
(0.231309 0.158634 -2.89443)
(-0.0409343 -0.10623 -2.98901)
(-0.0379161 -0.0331311 -2.69329)
(0.0338057 0.0476689 -2.88188)
(-0.096784 0.0299258 -2.94967)
(-0.0514027 0.109337 -2.92232)
(-0.0384252 0.392467 -2.92724)
(-0.0344948 0.103893 -2.96448)
(0.157479 0.302765 -3.07783)
(0.0338167 0.115368 -3.01707)
(-0.0711062 0.0650072 -3.05679)
(-0.153958 0.591098 -5.18095)
(-0.10961 0.538821 -5.70127)
(-0.00612715 0.498649 -4.67199)
(-0.0351425 0.254234 -4.7091)
(0.0316428 0.171083 -3.86981)
(-0.168708 0.435166 -5.45366)
(-0.219914 0.39931 -4.7623)
(0.0382609 0.429617 -3.29928)
(-0.00924261 0.56568 -2.97989)
(0.0667785 0.490253 -2.906)
(-0.110433 0.620282 -4.39448)
(-0.0566879 0.627472 -3.78047)
(0.033472 0.528859 -3.5722)
(-0.0749703 0.510401 -4.00376)
(-0.0895291 -0.0882894 -2.14095)
(-0.144726 0.468615 -4.07745)
(-0.118981 0.274874 -3.38664)
(0.16803 -0.501789 -0.107369)
(-0.014733 0.103213 -1.1724)
(-0.0503802 0.464268 -3.05426)
(0.0366619 0.085039 -2.05936)
(0.129559 -0.354313 0.42457)
(0.00288889 -0.677555 0.495907)
(-0.0230089 -0.817446 0.890467)
(-0.00418757 -0.849142 0.959585)
(-0.0253098 -0.846317 0.92495)
(-0.0386831 -0.8179 0.879346)
(0.0262398 -0.663563 0.838345)
(-0.00454166 -0.79582 0.695523)
(0.0222427 -0.749692 0.742421)
(0.00910297 -0.714235 0.778703)
(-0.0239184 -0.689609 0.803468)
(-0.0261689 -0.742721 0.775786)
(-0.0286322 -0.692342 0.755741)
(-0.0433255 -0.65247 0.789499)
(0.0824015 -0.466589 0.539155)
(-0.0154927 -0.520703 0.535875)
(0.01103 -0.414994 0.647078)
(-0.0264077 -0.485789 0.47774)
(-0.0658312 -0.432999 0.519094)
(-0.0953743 -0.454918 0.600017)
(-0.0522969 -0.512425 0.549664)
(-0.0487055 -1.33943 0.255154)
(-0.173801 -0.747 0.114563)
(0.0274589 -1.32301 -0.0279897)
(0.0863265 -2.01323 0.00681713)
(0.0430277 -1.87538 0.0588109)
(-0.0401991 -1.57539 0.00845858)
(0.0818519 -1.86593 -0.0438336)
(0.0340936 -0.822066 0.180437)
(0.0565403 -0.914099 0.221402)
(-0.0142677 -0.711666 0.146016)
(-0.0104008 -0.715841 0.0518876)
(-0.0159802 -0.784028 0.0690527)
(0.0305579 -0.75418 0.166567)
(0.0189471 -0.796262 0.115304)
(0.151481 -0.118 -0.24242)
(-0.00636818 -0.211292 -0.257047)
(-0.0256291 0.148093 -0.217932)
(-0.0298368 -0.0622243 -0.192898)
(0.00710186 -0.0434408 -0.200124)
(0.00937354 -0.229595 -0.195941)
(0.131282 -0.182458 -0.197281)
(-0.0558485 0.388173 -0.290314)
(0.0377349 0.613702 -0.107083)
(-0.00812801 0.338714 -0.429403)
(0.112244 0.832784 0.0473859)
(0.0332017 0.501359 -0.301742)
(0.231364 0.881331 0.15037)
(0.0460135 0.52907 -0.26795)
(-0.0184736 0.428931 0.0608658)
(0.0478496 0.229173 0.0737813)
(0.0199472 0.293007 0.0442551)
(0.00373008 0.237557 -0.0525573)
(0.0323259 0.382939 -0.0312839)
(0.107941 0.183578 0.0071004)
(0.103613 0.283025 0.0070733)
(-0.0847924 0.485461 0.186037)
(0.00710855 0.622473 0.0986451)
(0.0429991 0.45275 0.2232)
(0.0128097 0.566219 0.0161945)
(0.0472838 0.639702 0.0284806)
(0.032584 0.470767 0.0948518)
(-0.0252322 0.583239 0.133376)
(0.0309194 0.789699 -0.000877286)
(-0.0563162 0.931384 -0.0164667)
(0.00905706 1.0165 -0.101834)
(0.00692526 0.952997 -0.0327195)
(0.00335065 0.780536 0.0871747)
(0.0262686 0.89609 0.0155096)
(0.0438988 0.793512 0.0777124)
(0.0982085 0.671895 0.0904231)
(-0.0385734 0.826443 0.0885653)
(0.0137457 0.982687 -0.0535747)
(-0.0792911 0.854925 -0.00229861)
(-0.00458861 0.898507 -0.00447261)
(-0.124013 0.821117 0.101577)
(0.0142454 0.831838 0.0920499)
(-0.0121753 0.850361 0.267583)
(0.00660098 0.970394 0.172552)
(-0.0108688 0.909882 0.198342)
(-0.0302386 0.811674 0.108632)
(-0.0326467 0.808609 0.0575563)
(-0.0467814 0.795477 0.0898129)
(-0.0393486 0.769158 0.151539)
(-0.076368 0.633026 0.356233)
(0.000351334 0.647211 0.414671)
(0.0315285 0.651742 0.29043)
(0.134618 0.799381 0.244187)
(0.0336825 0.735817 0.345571)
(0.0292785 0.693373 0.31531)
(0.180789 0.766662 0.279403)
(-0.010025 0.55334 0.070281)
(-0.00450568 0.700785 0.0865642)
(-0.02445 0.679345 0.101523)
(0.0304985 0.50293 -0.0964252)
(0.0270203 0.519071 -0.0089392)
(0.045087 0.661941 -0.00942854)
(0.00392604 0.684456 0.050209)
(-0.000378543 0.410899 -0.140276)
(-0.0105182 0.382357 -0.152709)
(-0.00499833 0.403213 -0.145151)
(0.0090613 0.38187 -0.150265)
(0.00584156 0.346739 -0.158046)
(0.00138914 0.37306 -0.16061)
(0.000833042 0.392739 -0.154769)
(0.00446473 0.518662 -0.120161)
(0.0171553 0.558119 -0.0114632)
(0.0157172 0.555179 -0.101255)
(-0.00811719 0.496108 -0.122359)
(-0.0231545 0.507416 -0.0707645)
(-0.00731167 0.53086 -0.0410778)
(0.00807287 0.530002 -0.103455)
(0.00659818 -0.178561 0.464591)
(0.0226899 -0.184993 0.446979)
(-0.0109081 -0.390282 0.554494)
(0.0125123 -0.599457 0.541102)
(-0.0151963 -0.374621 0.447703)
(0.00250195 -0.302996 0.410191)
(-0.00936614 -0.597413 0.583416)
(-0.0040314 -1.9098 0.0053118)
(0.00260672 -1.90882 -0.00678317)
(0.000423635 -1.91794 -0.000489771)
(-0.000499253 -1.89006 -0.00285699)
(0.000560195 -1.89014 -0.0119152)
(0.00408077 -1.89674 -0.0160367)
(0.00810757 -1.91274 -0.0064691)
(-0.0153464 -0.461323 0.265935)
(0.0699666 -0.594749 0.600869)
(-0.00351947 -0.736424 0.708407)
(-0.0597953 -0.189555 0.227116)
(0.00669391 -0.369206 0.551313)
(0.0116592 -0.293642 0.46569)
(-0.152649 -0.138612 0.0163011)
(-0.0381593 0.647008 0.23322)
(0.00116915 1.01933 0.20883)
(0.0184506 0.809124 0.266842)
(0.0013216 0.967043 0.164944)
(0.00240367 0.859145 0.076272)
(0.0346804 0.846021 0.196157)
(0.0296292 0.718043 0.112223)
(0.0171335 2.00756 0.338809)
(0.00448623 2.05692 0.23744)
(0.0133577 1.7799 0.388569)
(-0.0027923 1.66075 0.130999)
(0.00393704 1.64053 0.288154)
(0.00613784 1.83164 0.0766374)
(0.00971619 1.88931 0.215113)
(0.0284586 1.83533 0.0411575)
(-0.00943867 1.60152 0.228281)
(-0.0310839 1.79462 0.0870749)
(-0.0397454 1.98318 -0.0104229)
(-0.0282562 1.83762 0.10408)
(0.0232686 1.9425 -0.00627818)
(-0.00420216 1.91088 0.0467053)
(0.00520759 1.84246 0.0134384)
(0.0147528 1.90344 -0.0111745)
(-0.167285 1.53259 0.00403691)
(-0.106273 1.82417 0.0858816)
(-0.0376265 1.91864 0.0427253)
(0.00233274 2.2026 -0.0330391)
(0.00337826 2.20293 -0.0244298)
(-0.0156273 1.98319 -0.0334522)
(0.00583081 2.19323 -0.0349451)
(-0.0034084 2.17925 -0.0342482)
(-0.000119791 2.2293 -0.0145976)
(-0.000338515 2.15146 -0.029139)
(-0.0562437 1.57898 0.000443108)
(-0.0287194 1.81108 -0.0137374)
(-0.065407 1.06899 0.0165256)
(-0.0615661 1.90392 -0.0241187)
(-0.02178 2.00365 -0.0339896)
(0.0658248 2.18167 -0.0124942)
(0.293738 1.89833 -0.413498)
(0.113148 2.74783 0.61535)
(-0.304634 2.71431 -0.291122)
(0.00686494 2.71759 0.29867)
(0.199722 1.60122 -0.253381)
(0.244983 2.05636 0.0415541)
(0.00256154 -0.768088 0.797176)
(-0.00835939 -0.766194 0.890788)
(0.00831781 -0.76964 0.897313)
(0.0114032 -0.735982 0.897682)
(-0.00316263 -0.746295 0.87782)
(-0.0118217 -0.736004 0.917024)
(-0.00185064 -0.726989 0.917727)
(-0.0143742 0.0955435 -0.813136)
(-0.0322672 0.435619 0.02821)
(-0.053027 0.192019 -0.349371)
(0.0500082 0.567912 -0.830529)
(0.238549 0.8851 -0.704862)
(0.0835239 0.581367 -0.198768)
(-0.00577735 0.467339 -0.468469)
(0.00994678 0.923482 -0.509522)
(0.0698176 1.28781 -0.661941)
(0.032028 1.20012 -0.667201)
(-0.0521992 0.856459 -0.332637)
(-0.0576581 0.842199 -0.186569)
(-0.0246297 1.1793 -0.28724)
(-0.0320063 1.10587 -0.417917)
(0.00078684 -0.318655 0.0809429)
(-0.0293367 -0.521516 -0.062284)
(-0.00282772 -0.480752 -0.123863)
(0.00560684 -0.411806 0.13901)
(-0.046624 -0.412337 0.14231)
(-0.0570484 -0.571995 0.0300464)
(-0.0332077 -0.496014 -0.0459421)
(0.000228718 -0.39625 -0.373142)
(0.0371199 -0.519677 -0.474153)
(-0.00438573 -0.376135 -0.323568)
(-0.0218073 -0.618135 -0.236266)
(-0.021663 -0.501443 -0.231218)
(-0.0637587 -0.640732 -0.318581)
(-0.00567577 -0.519224 -0.29565)
(-0.0397344 -0.0755042 -0.69777)
(-0.0482929 0.206189 -0.355461)
(-0.207746 0.605339 -0.0470707)
(0.164585 0.413686 -0.304008)
(0.0579095 0.104472 -0.610495)
(-0.14689 0.307068 -0.409446)
(-0.0544147 0.58971 -0.156787)
(0.0715463 0.576407 -0.196341)
(-0.0304146 0.522378 -0.225086)
(-0.0276115 0.704738 -0.231168)
(-0.0484183 0.519629 -0.200125)
(0.027141 0.483593 -0.200917)
(-0.0825462 0.489572 -0.179446)
(-0.00202001 0.459886 -0.196869)
(-0.0763424 1.39551 -0.00709531)
(-0.0137983 1.5553 0.0596369)
(-0.120674 0.959553 0.0135414)
(-0.0527583 1.33709 0.0924247)
(-0.0486405 1.2829 0.0276271)
(-0.0132239 1.3853 0.0285449)
(-0.0231874 1.48616 0.0961578)
(0.00517233 0.788004 -0.25186)
(-0.00307593 0.733448 -0.125749)
(0.0179783 0.815732 -0.178693)
(-0.0179853 0.773437 -0.381809)
(-0.00644216 0.898508 -0.360427)
(-0.00659268 0.766618 -0.369504)
(-0.0198369 0.855448 -0.387474)
(0.00021403 0.372676 -0.117259)
(0.00235445 0.373549 -0.12156)
(9.48752e-05 0.37087 -0.108755)
(0.000760044 0.365897 -0.121478)
(-0.00197388 0.36576 -0.115552)
(0.00332648 0.371391 -0.123379)
(-0.000684858 0.369881 -0.119973)
(0.000408428 0.350823 -0.12535)
(0.00323511 0.35971 -0.129723)
(-9.63664e-05 0.345709 -0.120663)
(0.00117627 0.345269 -0.131702)
(-0.00242226 0.338816 -0.126561)
(0.00294692 0.358225 -0.135785)
(-0.00179316 0.349311 -0.131473)
(-0.000640203 0.75916 0.365727)
(0.00899646 0.79579 0.234412)
(-0.00547892 0.829419 0.255738)
(-0.0506098 0.883261 0.249958)
(0.0448961 0.924562 0.201462)
(-0.0138017 0.860543 0.194574)
(-0.0664406 0.89799 0.217525)
(0.0263607 0.987453 0.491394)
(-0.0135444 1.18085 0.387948)
(-0.0381195 0.933104 0.393431)
(0.0652018 1.17003 0.306752)
(-5.90655e-05 1.16684 0.219371)
(0.0823372 1.04073 0.395243)
(-0.0167066 1.02081 0.263338)
(-0.100989 0.340586 0.476589)
(-0.0440731 0.379009 0.594322)
(-0.0309946 0.45405 0.499554)
(0.182174 0.57505 0.863875)
(0.167679 0.568211 0.811353)
(0.0514307 0.433365 0.665676)
(0.0599168 0.501167 0.62283)
(0.022425 0.753607 0.874286)
(0.0131115 0.859781 0.961408)
(-0.0259078 0.764649 0.969077)
(-0.0532375 0.436235 0.782766)
(-0.198177 0.488461 0.852417)
(-0.185491 0.517196 0.769758)
(-0.210447 0.488216 0.632122)
(0.0466361 1.59858 0.202771)
(0.039186 1.19242 0.382836)
(0.0193065 1.44854 0.182194)
(-0.0357374 1.53178 0.392164)
(-0.0693613 1.21603 0.49423)
(-0.0295617 1.32026 0.305647)
(-0.0531298 1.67926 0.16636)
(-0.0153094 1.6506 1.00089)
(-0.00108767 1.97664 0.734438)
(0.00344279 1.56308 1.21704)
(0.0245905 1.94348 1.18193)
(-0.0557528 2.21637 0.888537)
(-0.0567523 2.22352 0.838568)
(-0.0402681 1.94092 1.0893)
(-0.0234862 0.0738468 -3.98609)
(0.0439343 0.0872868 -3.94061)
(0.0505807 -0.0063102 -3.91183)
(-0.0710763 0.242712 -3.89764)
(-0.118871 0.221693 -3.95764)
(-0.0845482 0.143171 -4.00911)
(-0.0545957 0.166439 -3.85725)
(0.0130433 0.0483809 -2.92624)
(0.0301381 -0.0929563 -2.94083)
(-0.0128664 -0.0737036 -3.11037)
(-0.0463286 0.0118997 -3.16258)
(0.0157431 0.0303705 -3.04143)
(0.0419192 -0.0243831 -3.06083)
(-0.085668 0.0324535 -3.24779)
(0.0179487 -0.948956 0.311675)
(-0.115505 -0.939139 0.50691)
(-0.0311109 -0.492666 0.932639)
(0.0616438 -0.562274 0.942903)
(-0.0491732 -0.681192 0.76592)
(-0.133262 -0.701939 0.986442)
(0.0296261 -0.545882 1.02089)
(-0.0192523 -1.29242 0.0040958)
(-0.0275703 -1.73243 0.0467086)
(-0.00484441 -1.77408 0.0117463)
(-0.0366191 -2.15701 0.0549437)
(-0.0670413 -2.09388 0.00464723)
(-0.0217311 -2.05205 0.0197693)
(-0.0670909 -1.82781 -0.026879)
(0.00845651 -2.44411 -0.0111966)
(-0.00161729 -2.46434 0.0102361)
(-0.00425387 -2.43486 -0.0112686)
(-0.00161212 -2.46875 0.0142098)
(-0.0076522 -2.46931 0.0134573)
(0.00413185 -2.44947 -0.0037187)
(-0.004225 -2.45292 -0.00176522)
(0.0481659 -0.273137 -0.365282)
(0.048575 -0.338833 -0.260825)
(-0.00950253 -0.214797 -0.43579)
(0.0623028 -0.250427 -0.417022)
(-0.0190813 -0.202378 -0.423258)
(0.0944834 -0.299328 -0.369112)
(0.089562 -0.234143 -0.425554)
(-0.0509797 -0.0221557 0.045618)
(-0.0159872 -0.295067 0.00562571)
(-0.0367421 0.0634133 0.304673)
(0.0345186 0.0172464 0.302051)
(0.101874 -0.243404 0.266722)
(0.0909297 -0.48426 0.160638)
(0.0144859 -0.243998 0.175574)
(0.0425582 0.388021 -0.481901)
(-0.0365619 0.317454 -0.598547)
(-0.0124855 0.500293 -0.50845)
(-0.0283953 0.253253 -0.538826)
(0.0334336 0.438606 -0.447516)
(-0.0755619 0.217315 -0.639213)
(-0.00385112 0.3151 -0.556333)
(-0.0217574 1.16265 -0.0072044)
(-0.00556662 1.43107 -0.0157208)
(-0.00597995 1.47851 -0.00936195)
(-0.0160046 1.41159 -0.00683413)
(0.00148226 1.28217 0.000714713)
(-0.0141701 1.37788 -0.0217687)
(-0.0176107 1.46486 -0.0195133)
(0.0175376 1.58428 -0.0462962)
(-0.0202226 1.19055 -0.00576273)
(0.00421564 1.40446 -0.0231315)
(0.00320078 1.42579 -0.0202295)
(-0.0102235 1.27961 -0.00908151)
(-0.0993999 0.837115 0.0309204)
(-0.0519135 1.39022 0.0431841)
(0.0483159 1.59019 -0.00313497)
(-0.0187087 1.38996 -0.0367832)
(-0.048315 1.25273 0.0649428)
(-0.0439722 1.43842 0.0409108)
(0.00554024 1.51608 -0.0542765)
(-0.00822383 1.20369 0.0954691)
(-0.065303 1.32764 0.107617)
(-0.00294545 1.02267 0.056982)
(-0.022882 1.20837 0.0550222)
(-0.0336703 1.33472 0.0694809)
(0.023255 1.37382 0.0632042)
(0.0541155 1.27571 0.0534933)
(-0.0130061 1.40619 0.117678)
(0.00645445 1.35269 0.0512254)
(-0.0343542 1.37613 0.0309418)
(-4.37559e-05 0.329646 -0.108525)
(-0.00115174 0.323981 -0.132464)
(-0.00469244 0.322921 -0.123469)
(0.000695921 0.329856 -0.116157)
(0.00404282 0.328985 -0.124799)
(0.000874564 0.327615 -0.134711)
(-0.00530804 0.329424 -0.127643)
(0.00427321 -0.132296 0.153923)
(-0.00840915 -0.144547 0.131977)
(-0.107207 -0.120331 0.172729)
(0.0574192 -0.045331 0.0979931)
(0.0161653 -0.0982177 0.143386)
(-0.00120323 -0.0902398 0.0876617)
(-0.122338 -0.0804674 0.160285)
(0.00332809 1.13169 0.45637)
(-0.00524706 0.990952 0.380023)
(-0.00460009 1.05291 0.404983)
(-0.0120042 1.09238 0.396758)
(-0.0290543 1.08467 0.383513)
(-0.0377213 1.03178 0.358526)
(-0.020958 1.03861 0.367498)
(-0.00637756 1.06789 0.452091)
(-0.003232 1.14904 0.442186)
(-0.0123411 1.08718 0.424931)
(0.0104286 1.1376 0.520847)
(0.0147033 1.15158 0.49036)
(0.00584391 1.12833 0.473108)
(0.0104753 1.14331 0.513037)
(0.00112495 -0.0681574 0.818832)
(-0.0139525 0.020994 0.664632)
(0.00298943 -0.14916 0.925117)
(-0.0108568 -0.191654 0.547727)
(-0.0519182 -0.108498 0.465748)
(-0.0228049 -0.177771 0.835609)
(-0.0485672 -0.154515 0.653361)
(-0.0341043 -0.388513 0.318774)
(-0.00662374 -0.210452 0.49162)
(0.01277 -0.272527 0.340998)
(0.0239353 -0.145843 0.390595)
(-0.0564766 -0.17459 0.340759)
(-0.022551 -0.205372 0.342058)
(-0.119357 -0.211509 0.342648)
(0.00906647 0.752805 -0.195577)
(-0.00521512 0.726382 -0.158894)
(0.0462488 0.75482 -0.108259)
(0.0325958 1.03735 -0.193715)
(-0.0175325 0.999651 -0.295813)
(-0.0135877 0.949749 -0.266192)
(0.0791474 0.913151 -0.171184)
(-0.0281067 0.521365 -0.0661755)
(0.0261001 0.70872 -0.157026)
(-0.00154879 0.546223 -0.197243)
(0.0636911 0.616963 -0.226739)
(-0.0419381 0.567651 -0.227588)
(0.0290521 0.639485 -0.247992)
(-0.0361643 0.486081 -0.144437)
(0.00704882 1.15471 -0.00902732)
(-0.0114172 1.09247 0.0386348)
(0.0247078 1.11278 -0.00678314)
(0.0171891 0.761571 -0.0481305)
(0.0106067 0.971273 -0.063611)
(0.00838103 0.993315 -0.00536541)
(0.0420473 0.871231 -0.0436173)
(0.0317077 0.246957 0.0166748)
(0.0513484 0.720448 -0.0687211)
(0.00506024 0.488888 -0.00913747)
(-0.0243562 0.42374 0.0049574)
(-0.000720169 0.758533 -0.0177)
(-0.242795 1.93773 1.85042)
(-0.136691 1.44699 1.903)
(0.00288753 0.884451 1.76397)
(0.0948592 1.38806 1.26845)
(0.115832 0.979638 1.39503)
(-0.168502 1.47982 1.56969)
(-0.365599 1.92115 1.4191)
(-0.0126527 -0.605283 1.23573)
(0.157542 -0.265781 0.442512)
(-0.00118145 -0.53205 0.649054)
(0.0732343 -0.474464 0.320878)
(-0.104588 -0.609208 0.648545)
(0.269607 -0.402639 0.340063)
(0.0171342 -0.667856 0.9947)
(0.0422346 -0.0212909 -1.85546)
(0.142637 0.0217148 -2.22739)
(0.028274 -0.072046 -1.504)
(0.146806 -0.143157 -1.08502)
(-0.0661749 -0.158277 -0.941258)
(0.205727 0.0926382 -1.6288)
(0.0921185 0.0368829 -1.34633)
(-0.0156481 0.198915 -3.31559)
(0.263798 0.0947601 -3.90953)
(-0.000999269 0.0739513 -3.47911)
(-0.0379906 -0.0317591 -2.94204)
(-0.0717752 -0.030097 -2.88029)
(0.117066 -0.104154 -3.31601)
(-0.0364865 -0.0858781 -3.01106)
(0.0342674 0.108791 0.492411)
(0.0776968 0.413557 0.491653)
(-0.0027783 0.595948 0.513892)
(-0.00832404 0.607378 0.49613)
(-0.0944779 0.487543 0.569082)
(-0.00783177 0.594272 0.546378)
(-0.0387289 0.378342 0.572613)
(0.124475 -1.97038 0.124917)
(0.159893 -1.30868 0.29216)
(-0.041649 -2.55331 -0.072773)
(-0.0456676 -2.07065 0.0337447)
(-0.0305083 -2.3775 -0.0175361)
(0.0618763 -1.39865 0.153549)
(0.0325267 -1.98019 0.0552739)
(0.0217765 -1.67337 -0.0412427)
(-0.0281758 -1.76008 -0.0309724)
(-0.0408724 -1.83565 -0.0763365)
(0.00751026 -1.68703 0.015627)
(-0.0586805 -1.64841 0.0544263)
(-0.0457442 -1.72437 0.0595197)
(-0.0347359 -1.79248 -0.0180855)
(-0.00145885 -0.407278 -0.399552)
(0.0410688 -0.431748 -0.347785)
(-0.0103767 -0.367453 -0.454409)
(0.0184668 -0.288141 -0.398324)
(-0.0410368 -0.239514 -0.437183)
(0.0416526 -0.352661 -0.351697)
(-0.0161856 -0.292544 -0.401602)
(0.00343005 -0.0467847 0.0691692)
(-0.0232249 -0.162099 0.0959816)
(0.0707547 -0.133388 0.157212)
(-0.0287352 -0.0945983 0.0721402)
(-0.00257912 -0.115013 0.0311962)
(-0.0036844 -0.151029 0.0917535)
(0.0225393 -0.123056 0.167212)
(0.00199269 1.29657 0.000727469)
(-0.0157932 1.7123 -0.0289158)
(-0.00777258 1.71267 0.00308743)
(-0.0112489 1.66492 -0.0219926)
(-0.0073692 1.59669 -0.0440086)
(-0.0362875 1.71669 -0.0421793)
(-0.0305092 1.7331 -0.0146636)
(0.0291611 1.81373 -0.0516552)
(-0.0737402 1.46469 -0.0987739)
(-0.0138211 1.65544 -0.0659768)
(-0.00951971 1.69931 -0.0350107)
(-0.0451551 1.60342 -0.0448338)
(0.0243875 0.674198 -0.198519)
(-0.0657918 0.496737 -0.102561)
(-0.0737116 0.531347 -0.0801901)
(0.0124922 0.572075 -0.161034)
(0.0376456 0.649737 -0.208055)
(-0.0582503 0.600305 -0.159442)
(-0.0685196 0.583254 -0.122285)
(0.0028771 1.04762 0.333501)
(0.0202353 1.05377 0.270859)
(0.0386149 1.0514 0.275745)
(-0.0332104 1.08361 0.353422)
(-0.0671565 1.19287 0.381278)
(0.0348784 1.0239 0.281006)
(0.0294684 1.02348 0.267194)
(0.00486986 0.40707 -0.163448)
(0.0459401 0.368748 -0.336955)
(0.0020432 0.466285 -0.251799)
(-0.0334272 0.453295 -0.114051)
(-0.0146449 0.407639 -0.123755)
(0.0491534 0.403769 -0.25374)
(0.000855987 0.47671 -0.193514)
(0.000793687 0.359692 -0.0805288)
(-0.00288514 0.370581 -0.0857967)
(-0.00170449 0.366155 -0.0732849)
(0.000918445 0.356971 -0.0824003)
(-0.0099169 0.35858 -0.0651068)
(-0.00267989 0.357216 -0.0716641)
(-0.00424206 0.344467 -0.0479156)
(-0.012096 0.348637 -0.042573)
(0.00356559 0.341776 -0.0560124)
(-0.00865421 0.351995 -0.0533049)
(-0.00476778 0.355143 -0.0589979)
(-0.001241 0.349611 -0.0656121)
(0.00334714 0.341294 -0.0657876)
(-0.000173736 0.355738 -0.052855)
(-0.0191278 0.360912 -0.0424249)
(-0.0070306 0.354467 -0.0553126)
(0.00133466 -1.66298 -0.0342811)
(0.00271464 -1.65134 -0.0165491)
(-0.0021034 -1.66405 -0.0500096)
(-0.00352136 -1.63011 -0.0315998)
(-0.00199247 -1.65667 -0.0453619)
(-0.00190417 -1.63561 -0.0231266)
(0.000453755 -1.6578 -0.0381472)
(0.0171111 1.37979 0.112541)
(-0.0100454 1.40652 0.106831)
(-0.00861492 1.53397 0.123194)
(0.000113922 1.50434 0.224021)
(0.0163024 1.52652 0.201307)
(-0.0129398 1.45745 0.199224)
(0.0105269 1.49297 0.184627)
(-0.00681919 1.53302 0.486605)
(-0.0259963 1.4335 0.505322)
(-0.0139155 1.41142 0.563389)
(0.0414658 1.54856 0.638325)
(0.0218845 1.55731 0.590307)
(-0.00789897 1.48577 0.585083)
(0.0124914 1.48514 0.635736)
(0.00825353 0.744349 1.05216)
(-0.00530703 0.982531 1.04463)
(-0.0107512 0.746199 0.907831)
(-0.00321066 0.912471 0.914339)
(0.0141114 0.936237 1.00381)
(-0.0139843 0.739352 0.866348)
(0.0157158 0.805817 1.0142)
(0.0149926 -0.0997495 1.01966)
(0.0328327 -0.121073 1.04062)
(-0.00258325 -0.150017 1.04706)
(0.0115943 -0.214847 1.06911)
(-0.00291434 -0.164478 1.09801)
(0.0327768 -0.165243 1.04343)
(0.0158232 -0.120422 1.05319)
(0.00951806 -0.0427581 0.544172)
(-0.00298493 0.142867 0.761432)
(0.0277456 -0.0230864 0.626021)
(-0.0428084 0.0498503 0.644886)
(-0.0504273 0.250893 0.678452)
(-0.0391086 0.205936 0.798906)
(-0.0192539 0.0586687 0.779276)
(0.0385062 0.716477 -0.113416)
(0.01077 0.597956 -0.248591)
(0.0182863 0.522188 -0.0927372)
(-0.0574877 0.350438 0.133467)
(-0.0816831 0.436181 0.224169)
(-0.0691693 0.470667 -0.0759442)
(0.00935317 0.609253 0.0657503)
(-0.0120781 0.223279 0.249834)
(-0.0166534 0.230865 -0.00757729)
(0.0162203 0.261316 -0.141741)
(0.0416263 0.188352 -0.133066)
(-0.142681 0.225124 0.0992687)
(-0.0150488 0.159603 0.0163406)
(-0.180678 0.131628 0.132225)
(0.144176 0.091263 -0.12455)
(-0.0254597 0.352049 0.000223007)
(-0.0513053 0.569386 0.214685)
(0.0245339 0.319323 -0.0799758)
(0.00112315 0.378763 -0.197873)
(-0.000461755 0.402799 -0.00366568)
(-0.0829812 0.397695 0.0594082)
(0.0173136 0.18989 -3.66044)
(0.00645071 -0.144329 -3.13437)
(0.0739332 -0.145094 -3.04649)
(0.173915 -0.245793 -3.60397)
(-0.301746 -0.162582 -4.05737)
(-0.156443 -0.252031 -3.41886)
(0.045708 -0.221862 -3.11162)
(0.00305115 0.0111358 -2.96112)
(-0.0745286 -0.0516348 -2.88862)
(-0.0104523 -0.0896185 -2.73531)
(-0.0613562 -0.0781578 -2.56954)
(-0.091079 -0.0742512 -2.66094)
(-0.133966 -0.0171336 -2.56579)
(-0.181482 -0.122826 -2.79094)
(-0.00592313 0.0453624 -2.96372)
(-0.0753991 -0.0453925 -2.58464)
(-0.0631307 -0.0417396 -1.74473)
(-0.00919318 0.0479404 -2.91363)
(-0.0983996 -0.0921397 -2.74446)
(0.00749186 0.0236926 -2.59628)