/*--------------------------------*- C++ -*----------------------------------*\
| =========                 |                                                 |
| \\      /  F ield         | OpenFOAM: The Open Source CFD Toolbox           |
|  \\    /   O peration     | Version:  v2012                                 |
|   \\  /    A nd           | Website:  www.openfoam.com                      |
|    \\/     M anipulation  |                                                 |
\*---------------------------------------------------------------------------*/
FoamFile
{
    version     2.0;
    format      ascii;
    class       surfaceScalarField;
    location    "0.05";
    object      alphaPhi0.water;
}
// * * * * * * * * * * * * * * * * * * * * * * * * * * * * * * * * * * * * * //

dimensions      [0 3 -1 0 0 0 0];
oriented        oriented;


internalField   nonuniform List<scalar> 
49400
(
-5.65577e-06
9.32882e-09
5.60641e-06
3.99804e-08
1.30488e-05
3.59524e-06
-2.22998e-05
1.2857e-05
2.00665e-07
-3.42515e-06
1.73606e-05
-8.32929e-06
2.02563e-05
-2.00863e-05
-2.07738e-05
5.09911e-05
-3.16794e-07
8.13605e-06
1.95985e-05
-5.00344e-05
-1.54071e-07
-6.41871e-07
-1.22795e-05
2.53878e-07
1.21202e-05
-9.54697e-08
2.62907e-05
1.15401e-05
-5.01103e-05
2.59027e-05
-1.312e-05
1.50125e-06
2.37376e-05
-1.32618e-05
4.57961e-08
2.94498e-05
-3.11716e-05
5.68537e-05
-2.68145e-05
4.25131e-07
2.63482e-05
3.80073e-08
9.1537e-06
1.56113e-05
-5.1581e-05
4.70513e-07
9.10082e-06
4.11372e-05
2.27448e-05
-4.82718e-05
1.72824e-05
5.02018e-05
7.67969e-06
-7.38578e-06
1.73134e-07
-3.67288e-06
2.045e-05
6.22811e-06
9.12965e-06
1.98366e-05
8.83564e-06
4.58344e-07
-1.99896e-05
4.92701e-05
3.03343e-07
-2.81994e-57
1.19031e-57
-6.30715e-58
-5.18103e-57
4.63563e-56
-2.62406e-56
-2.53733e-55
-1.68395e-54
-5.73708e-53
-1.54921e-56
1.87557e-58
-8.7731e-58
8.44542e-57
-4.21604e-55
-3.69883e-53
4.2612e-56
-8.42223e-52
4.97076e-32
5.06996e-32
4.6348e-32
-1.14502e-30
3.49647e-34
2.88059e-33
-3.11203e-34
1.55997e-33
1.8631e-34
-2.13631e-34
-2.82301e-34
2.60696e-34
-3.82773e-33
3.85319e-35
-1.62182e-33
2.37224e-34
-9.66217e-34
1.36318e-42
-1.09725e-43
-7.65089e-41
5.63598e-43
-4.30989e-43
-1.24701e-43
1.60436e-43
-3.70736e-42
-5.54955e-42
1.27976e-40
3.29644e-41
-2.7238e-39
3.34334e-42
4.3785e-42
-4.0857e-42
5.30989e-43
-5.15006e-41
2.2313e-10
-1.41122e-09
1.98575e-09
-9.79093e-10
-1.95503e-09
1.72025e-09
1.66006e-10
1.11615e-09
-4.3843e-09
-1.53852e-09
-1.03288e-09
2.77502e-09
-3.38996e-09
1.30727e-09
-1.54913e-09
2.46013e-09
-3.6389e-09
-4.41771e-08
-3.64112e-08
-1.61434e-08
9.4322e-08
-3.10519e-09
-7.52813e-08
3.37623e-08
-4.2501e-08
2.51086e-09
1.24097e-07
5.69741e-08
-2.48219e-07
1.26364e-07
2.2246e-08
2.57687e-08
-1.07608e-08
1.309e-07
1.30624e-26
4.9186e-25
2.87701e-27
-1.61107e-23
7.07762e-26
-1.2227e-24
5.92877e-27
-8.68258e-26
8.56167e-26
-2.12413e-23
1.14387e-24
1.76891e-25
1.4175e-23
-3.47693e-22
9.37763e-25
-5.50151e-25
2.06709e-25
4.44302e-10
2.54785e-09
-4.72423e-10
-3.79611e-09
3.8751e-10
-7.77605e-11
9.89122e-12
-8.35464e-11
2.30311e-09
2.47794e-10
-4.1502e-11
-4.8674e-10
9.21565e-11
7.71296e-11
-7.04706e-10
4.60113e-10
-1.80937e-09
-1.97149e-06
-1.14194e-05
-5.54791e-06
1.73271e-05
5.26305e-08
-2.50391e-06
-3.53611e-08
-1.34772e-05
2.08851e-06
2.95223e-06
2.58118e-06
-8.94421e-06
2.69652e-06
-4.19486e-12
-1.08775e-05
7.91887e-06
-2.18391e-05
-4.38904e-11
-3.42213e-11
3.40503e-11
9.27729e-11
3.29279e-11
2.16908e-10
-2.27348e-10
6.07047e-11
-2.03243e-11
2.11017e-13
-8.2286e-11
8.5194e-11
-2.00289e-10
2.87277e-10
5.38378e-11
-2.72553e-11
3.98077e-11
6.75269e-26
2.86254e-25
4.9342e-25
-7.49063e-24
2.6882e-27
4.71604e-27
-8.56648e-30
7.01576e-27
6.59692e-27
-7.01015e-29
-6.21689e-28
7.59579e-28
-4.0617e-26
4.36329e-27
-1.91057e-27
1.27419e-29
-4.10502e-29
7.02222e-54
-1.16421e-51
-3.56971e-56
8.26193e-54
-2.60481e-51
1.93074e-53
7.77834e-53
2.13864e-52
-1.06231e-49
9.0291e-56
-3.00697e-54
-6.1033e-56
9.91998e-57
2.87523e-55
-5.89816e-54
1.02561e-54
-2.06107e-55
2.18148e-85
3.46457e-86
-2.51685e-83
-1.33124e-89
-1.99526e-83
-8.80155e-86
3.35987e-85
5.58184e-84
-5.9149e-81
-1.00967e-80
4.83458e-83
5.0768e-83
3.10509e-81
-1.09482e-78
-3.04539e-83
1.26309e-84
-2.5096e-85
2.27602e-87
-2.55186e-86
-7.83706e-86
7.98384e-88
-1.94087e-85
-1.28549e-84
1.12454e-85
-1.00008e-83
-3.67856e-84
-5.94991e-84
8.90137e-83
-3.59309e-81
4.94818e-84
-2.61357e-82
6.05183e-86
1.56638e-85
5.88827e-84
4.83759e-88
1.52822e-87
1.40931e-85
1.10699e-86
1.45245e-86
4.40202e-81
-1.20431e-79
-9.87325e-80
2.96621e-81
-6.75295e-79
-6.26941e-78
4.13194e-79
-4.15703e-77
-2.74133e-78
-3.33873e-78
2.20561e-76
-7.21716e-75
3.49758e-78
-1.59995e-76
-3.46224e-80
4.98728e-78
-2.73766e-83
1.82237e-79
2.34552e-78
-8.36291e-82
-7.04545e-77
5.82168e-77
-1.78654e-75
-1.40081e-82
-2.03324e-81
1.62411e-83
-7.4317e-80
3.03323e-58
3.74636e-58
1.61953e-58
-9.54693e-57
-2.2671e-61
5.10913e-59
-2.10962e-57
1.1925e-59
1.79402e-60
-5.81778e-56
-3.89636e-59
5.45818e-57
-1.75554e-57
-1.33725e-54
1.60595e-57
-3.55688e-56
1.04604e-58
3.51675e-31
3.78311e-31
-1.8668e-31
-1.85369e-29
1.50648e-32
-3.06774e-30
2.70219e-31
-8.51424e-32
4.40663e-32
-6.57914e-30
3.9268e-31
-2.94729e-33
3.43045e-29
-6.02161e-28
9.35476e-31
-5.43341e-30
6.84899e-32
1.39914e-42
3.55012e-43
-8.95139e-42
-2.04093e-41
-8.22737e-43
-2.01658e-43
2.02659e-43
3.39762e-43
-4.59988e-41
-7.68987e-41
2.00606e-42
2.63101e-42
1.98325e-41
-1.64041e-39
-9.87241e-42
8.57886e-43
-1.8069e-40
3.55556e-12
1.18558e-12
-1.19563e-15
-1.37658e-11
-1.40677e-13
8.91524e-14
1.12008e-12
2.96742e-14
2.85213e-14
2.5222e-14
-1.34732e-13
-3.47737e-15
-1.40946e-14
2.05267e-14
-1.75713e-13
5.18692e-14
-6.20769e-13
1.50663e-10
2.29149e-12
-5.36917e-12
-2.12143e-10
-7.52179e-12
-4.70353e-10
7.2594e-10
7.18679e-12
-3.41057e-12
6.58271e-11
-1.09394e-11
-1.85676e-10
1.52602e-09
-1.58007e-09
-4.58294e-11
1.17157e-09
-8.41936e-11
2.08267e-11
-3.08536e-10
-2.11429e-10
5.9094e-10
-2.76022e-10
3.72099e-10
-2.94658e-11
1.45436e-10
-6.05512e-10
9.65886e-10
-1.02648e-10
-8.9794e-10
-1.38541e-10
1.78431e-09
-7.54802e-10
1.17121e-09
-5.26949e-10
-7.32067e-10
-4.75529e-10
5.27539e-11
1.22472e-09
2.15393e-10
-9.72723e-11
-9.42693e-10
-4.25468e-10
2.48332e-10
1.16954e-09
-5.18466e-10
-1.04691e-09
1.07014e-11
1.45962e-09
6.68093e-10
-1.51101e-09
7.78723e-10
-6.4252e-10
-6.19309e-10
2.07878e-09
-1.54028e-09
1.90786e-09
2.09528e-09
-4.85199e-09
-7.18578e-10
1.10184e-09
2.93752e-09
-3.74556e-09
-5.3083e-10
-1.72932e-09
4.76057e-09
1.87492e-09
-3.24686e-09
1.48862e-09
3.3359e-16
1.82122e-16
-4.52205e-15
-5.11479e-15
-6.17677e-18
-3.00422e-17
8.51308e-18
-7.77251e-17
-1.09524e-15
-1.42226e-14
1.27653e-16
1.39803e-15
-3.04554e-15
-1.9247e-13
-8.73565e-15
6.9005e-16
-1.45036e-13
5.9078e-51
9.93584e-51
1.95012e-51
-8.6097e-50
2.28762e-52
6.16913e-52
-1.76213e-52
1.30615e-51
1.46722e-51
-7.83171e-52
-1.31342e-52
4.07134e-52
-7.66696e-52
-1.71538e-50
9.49228e-52
-1.18241e-50
6.69898e-52
-5.42772e-19
-1.54853e-19
-1.5006e-19
1.72059e-19
-1.1494e-20
7.22402e-20
-1.04678e-17
-1.47254e-18
-3.88479e-20
-1.57259e-17
1.32326e-18
7.35016e-19
6.4612e-18
-1.38813e-16
1.38719e-18
-6.2038e-18
4.21448e-19
-2.48495e-28
-1.49962e-29
8.01084e-30
3.58161e-30
1.96414e-28
3.05542e-28
-5.82927e-27
4.69573e-29
-5.80926e-28
-1.23727e-30
-3.36331e-30
1.6337e-30
-3.48518e-29
1.97328e-30
2.03451e-29
-1.46132e-28
5.38024e-30
-1.93107e-25
-1.40791e-25
2.86501e-25
3.24451e-25
-1.0682e-25
-1.75136e-24
2.26365e-24
2.00113e-26
-1.47807e-27
1.21975e-23
-3.93593e-25
-9.36954e-24
-2.96961e-25
1.68056e-23
6.02701e-25
-4.05232e-25
1.62623e-24
-4.40593e-12
-9.19939e-13
1.0335e-11
1.32319e-12
-1.22683e-12
1.43444e-12
-2.66943e-12
-1.85924e-12
1.89917e-11
3.71352e-11
-1.86165e-12
-3.54593e-12
-3.75495e-11
3.27629e-10
9.82758e-13
-4.45595e-13
1.13913e-10
-2.14458e-09
-3.25324e-10
3.20923e-09
-6.6093e-12
1.25744e-09
1.97236e-09
-3.58916e-09
3.53849e-09
-1.08859e-09
-2.47185e-09
-3.01681e-09
9.0889e-09
-2.82359e-09
2.59472e-10
1.57701e-09
-1.72345e-09
2.46745e-09
6.98987e-13
-1.8472e-13
2.32063e-13
5.73046e-14
-1.41435e-12
-8.90105e-12
1.24464e-10
-2.07125e-15
5.60387e-12
3.64514e-14
1.29404e-14
-6.0429e-16
-1.70966e-12
6.93042e-13
-6.46996e-16
-7.10314e-11
-5.50965e-17
-2.81903e-13
-5.77841e-14
-5.7011e-12
1.0263e-12
1.01438e-13
-4.42429e-12
-9.50566e-12
-2.40087e-10
3.8469e-11
5.46788e-12
-2.15623e-10
-4.18563e-10
8.79398e-11
-2.16991e-09
1.8556e-07
4.05144e-08
2.05622e-08
-2.46607e-07
-3.10618e-07
-1.73287e-07
6.6948e-07
-1.27055e-07
-1.42582e-07
-1.48372e-07
-4.33295e-09
3.87016e-07
-7.81681e-07
2.55692e-07
1.26101e-07
3.00836e-07
-7.6801e-09
-4.8094e-07
4.43559e-08
5.9113e-08
-3.67452e-08
8.0153e-08
1.75127e-07
1.37125e-08
-5.97949e-08
7.22918e-08
-4.87154e-08
1.85034e-07
-3.00172e-08
2.41067e-08
-1.70172e-07
-4.48398e-09
-1.26205e-08
-9.62685e-09
1.83911e-08
-2.68515e-09
-6.19416e-09
-2.09098e-10
2.27195e-09
-4.81231e-08
-6.4469e-08
1.99885e-08
1.85679e-08
2.70223e-08
-1.59853e-08
1.32197e-08
-1.57288e-08
6.42621e-11
7.35376e-11
4.59992e-11
-2.02629e-10
-1.07322e-11
5.40989e-12
1.11236e-10
7.39193e-11
-5.00217e-11
3.36394e-11
-4.3489e-11
1.70072e-11
-3.85972e-11
1.58224e-10
-2.29208e-11
3.94683e-11
-4.27074e-11
5.50029e-11
4.17158e-10
-3.86885e-11
-4.9843e-10
3.31018e-10
-9.83951e-10
3.09904e-10
-4.48868e-10
1.02967e-09
-2.26514e-10
2.26625e-10
-1.01452e-12
7.73369e-10
-1.58174e-09
4.63067e-10
-7.34724e-10
2.4074e-10
-8.06626e-13
-2.00968e-12
-4.2325e-12
5.27185e-12
-1.76713e-12
-4.21718e-12
3.33288e-12
-1.34016e-12
-4.99677e-12
-7.87098e-12
6.20175e-12
-2.74553e-12
5.64797e-12
-2.24396e-11
7.45403e-13
-1.48112e-12
-2.8789e-13
9.73328e-11
-8.54394e-12
-2.35788e-10
1.06942e-10
-1.28096e-10
-6.62054e-12
1.9603e-10
-1.2613e-10
-4.61325e-11
4.80046e-10
2.62872e-10
-1.11716e-09
1.31351e-10
4.36705e-10
-1.82526e-10
2.99986e-10
-8.9786e-11
1.27336e-09
1.02016e-08
-3.02795e-09
-3.0327e-09
2.88728e-09
-4.01832e-09
9.20203e-10
-1.43668e-09
1.36411e-08
2.13855e-09
3.46486e-10
-4.53323e-09
1.72461e-09
2.57832e-09
-4.04236e-09
4.95499e-09
-3.35335e-09
7.06158e-58
-1.0228e-54
-5.91319e-58
1.70508e-56
-1.83732e-54
4.43358e-56
1.89409e-56
4.8218e-55
-4.63802e-53
7.21009e-57
-1.46205e-56
-1.76432e-55
-4.24899e-58
2.21392e-57
-2.51886e-56
5.42753e-57
-4.55288e-56
-5.23364e-40
-6.58727e-39
-4.2476e-40
5.67154e-40
5.3998e-41
-1.03019e-38
-4.67763e-39
-4.16629e-37
9.42051e-40
6.15114e-37
2.37828e-37
-1.70689e-35
1.48764e-38
8.6976e-39
1.03805e-38
-2.02337e-38
1.50027e-39
7.29258e-29
2.44382e-29
-5.05283e-29
-1.14097e-27
-8.45804e-31
-1.96516e-31
6.46972e-30
4.96846e-31
-1.99799e-29
-3.97624e-29
7.42463e-31
2.28014e-30
1.61016e-30
-7.34837e-28
-8.82342e-29
7.47727e-30
-1.52814e-27
-7.91965e-48
-2.48741e-45
-1.44194e-44
8.55588e-46
-2.10977e-45
-2.32087e-48
8.31926e-47
-5.24977e-47
-2.03487e-43
1.17515e-47
6.3868e-47
-2.87011e-45
3.80967e-43
-1.20724e-41
5.03601e-49
-8.89668e-49
5.02525e-45
4.63841e-70
1.72434e-70
-5.2843e-68
-2.47333e-71
-1.64996e-72
-3.49364e-69
1.45554e-70
-7.77282e-73
2.21233e-72
-1.48394e-71
1.62043e-67
-8.75731e-66
2.03168e-71
-1.85308e-69
-2.84714e-73
1.55052e-69
-1.45724e-71
-5.25474e-73
7.28782e-75
-1.07615e-81
4.72572e-75
1.62959e-72
-1.77707e-70
-5.64458e-80
-1.19166e-71
5.28521e-73
-4.34478e-80
7.13083e-70
-3.78953e-68
6.09511e-80
-4.96746e-78
-4.06974e-82
1.17485e-71
-8.31406e-85
6.33312e-75
4.67032e-75
2.64094e-75
-2.52136e-73
5.30852e-79
1.35156e-76
2.72415e-77
5.88759e-77
6.68984e-79
-9.48134e-71
-9.02223e-77
6.08617e-72
-6.7772e-75
-3.24347e-69
-6.36493e-75
2.5513e-76
-2.63099e-73
1.10006e-73
-3.73275e-72
-2.02259e-74
2.90692e-74
-1.64776e-71
-1.81091e-70
1.30785e-71
-1.07176e-69
-9.58758e-73
-1.26351e-72
1.11015e-68
-3.50914e-67
8.77443e-73
-5.52915e-71
-1.72622e-74
5.21643e-70
-3.89901e-75
-1.29635e-76
3.41065e-72
-5.04357e-72
-1.01151e-70
4.38615e-75
-2.98576e-73
-8.6823e-76
-7.75531e-74
2.17327e-73
3.19777e-73
1.84946e-73
8.54852e-75
1.31049e-76
-2.95848e-72
5.37186e-74
-1.48383e-70
-1.85527e-64
-3.64312e-61
1.05639e-62
2.61809e-63
-2.82533e-61
-3.79423e-63
4.92876e-63
2.04855e-61
-1.15183e-59
2.57029e-60
-1.09647e-61
-6.20992e-59
-1.97778e-63
2.0377e-61
-8.59514e-62
4.37562e-63
-2.95616e-60
-3.10596e-58
-2.60594e-61
-3.97101e-57
1.09246e-58
3.79573e-58
1.62159e-58
-9.52085e-57
1.23626e-59
1.75777e-60
1.14683e-55
-1.54402e-57
-2.18823e-54
-3.51225e-59
1.28127e-56
1.41163e-57
-3.05217e-56
9.4374e-59
-1.90513e-38
-6.63273e-34
2.82655e-35
8.77689e-36
1.71654e-38
1.88271e-38
-4.2625e-37
2.73274e-33
-3.05552e-32
-5.01194e-37
-2.07078e-34
4.20513e-35
-2.55444e-39
3.76949e-37
1.78907e-39
-1.13429e-38
3.73007e-34
-3.05637e-26
-3.17647e-24
7.44247e-26
7.93246e-26
-7.53503e-25
5.34561e-26
-1.13491e-29
5.47443e-24
-8.19783e-23
9.36989e-28
-4.55888e-25
4.95259e-26
-7.18495e-27
8.79101e-27
-2.18436e-26
1.35465e-28
-3.97683e-28
5.9765e-22
-1.59762e-23
-2.04415e-20
3.8795e-22
-5.31827e-23
-5.29037e-23
9.38631e-23
-5.92325e-22
-6.68517e-25
3.41657e-20
6.81355e-21
-3.93277e-19
1.38521e-21
2.89495e-21
-5.94848e-22
2.3043e-22
-7.26475e-23
2.06774e-13
8.54667e-14
-1.50784e-12
-7.5685e-14
-4.58157e-14
-8.19182e-14
8.99212e-14
-4.04303e-13
5.14154e-14
1.34196e-12
1.82481e-12
-1.30818e-11
2.38105e-13
-4.816e-14
-1.47902e-13
3.68116e-14
-8.23254e-14
2.48521e-14
-4.35157e-14
1.21988e-14
-2.23915e-14
9.23646e-16
9.58072e-14
-5.29401e-14
8.46879e-14
2.6735e-13
4.0043e-13
-4.37497e-14
7.70119e-13
-8.28959e-13
1.69331e-12
2.60897e-14
-9.23772e-13
-1.77232e-14
9.23361e-11
9.49453e-10
-1.46201e-09
-1.41755e-10
2.44437e-09
1.32591e-09
-4.59853e-09
-1.00116e-09
2.81933e-09
-1.0285e-08
3.9544e-09
7.80501e-09
4.88433e-09
-1.95313e-08
-2.92414e-09
3.58285e-09
3.96851e-10
-2.01909e-16
-1.9221e-18
9.9132e-18
2.14867e-17
8.27483e-17
-1.14966e-18
-1.64253e-15
-1.10757e-19
2.73905e-18
4.18015e-19
-5.70409e-18
-6.40192e-21
3.08023e-20
3.52927e-19
9.33033e-18
-1.08928e-16
2.64302e-18
7.85451e-15
3.15349e-14
1.07728e-14
-2.11062e-13
2.6741e-17
7.10791e-17
3.43811e-16
2.12824e-15
2.33209e-15
3.49425e-17
-4.69789e-16
8.44719e-18
-6.21786e-17
7.37493e-17
6.78257e-16
-9.56115e-15
7.00025e-16
-1.29165e-15
3.84525e-16
-1.93377e-14
4.44928e-15
-1.11211e-13
2.23006e-17
1.22978e-17
-2.1413e-17
1.65691e-17
1.70976e-17
1.36307e-12
3.01734e-14
-1.26426e-11
4.27627e-13
-2.36246e-13
-2.69264e-13
4.5019e-13
-1.78283e-12
-7.8946e-15
2.34072e-11
1.01499e-11
-1.19782e-10
2.42962e-12
4.66765e-12
-2.13455e-12
1.15208e-12
-1.92047e-12
-1.78273e-12
-1.38851e-14
2.2852e-13
7.13568e-14
1.28221e-12
-1.56976e-11
1.03928e-13
-1.25321e-13
1.17811e-13
-2.60397e-08
-2.64171e-08
-1.39743e-08
7.26606e-08
6.51415e-11
-2.18769e-08
-1.87477e-09
-3.14358e-08
1.7071e-09
2.40323e-08
-2.10259e-09
-5.95153e-08
1.76056e-08
5.35061e-09
3.11372e-08
-5.45965e-08
3.52969e-08
5.57076e-12
-1.20504e-11
5.18775e-10
-4.03345e-10
-2.47061e-11
2.93742e-10
-3.0222e-10
3.03003e-10
-3.06959e-10
-2.17734e-09
-3.16207e-10
3.12605e-09
-8.93913e-10
-1.56419e-09
9.65651e-11
-7.36044e-10
1.1909e-10
4.82722e-16
4.03515e-16
-1.9399e-15
-2.11911e-16
-5.62446e-15
-1.09701e-14
9.03194e-15
-8.42912e-14
4.95331e-14
1.53411e-15
3.80247e-15
-1.04155e-14
5.22904e-16
-4.03142e-20
-2.94897e-14
6.29088e-15
-1.69166e-13
1.24916e-19
3.6333e-20
-1.58127e-18
-4.63954e-20
-1.69837e-19
-1.1121e-19
1.155e-19
-1.78858e-18
1.92662e-19
1.44158e-18
1.78406e-18
-1.69436e-17
2.16172e-19
-8.68038e-25
-4.18888e-19
5.77346e-20
-7.09545e-18
-1.4102e-44
-1.33294e-43
8.05208e-46
1.69366e-45
-8.91828e-44
4.06516e-44
-1.53627e-42
1.62329e-43
-7.44155e-42
6.69032e-47
-5.15995e-45
1.33436e-46
-1.10867e-45
1.35027e-46
-1.41013e-45
5.51445e-46
-8.34586e-46
1.97376e-42
2.62727e-42
2.75522e-42
-1.16751e-40
1.96666e-43
7.48067e-43
-2.30927e-41
3.54669e-44
1.20811e-44
-2.3696e-45
-3.12787e-44
4.04395e-45
-1.42298e-43
3.08974e-45
-5.97422e-44
2.41141e-44
-7.72901e-44
3.59551e-42
5.56416e-42
-3.18649e-42
-4.6712e-40
2.81556e-43
-3.03582e-41
1.14893e-42
-3.816e-43
3.13252e-43
-2.40958e-40
6.66221e-42
-1.55757e-45
5.96074e-40
-2.19043e-38
9.37064e-43
-3.2965e-42
-1.50255e-47
-2.45038e-81
-4.45008e-79
-1.84409e-78
6.08332e-80
-1.99822e-79
-1.61569e-79
3.33057e-81
-1.06184e-77
-6.21301e-77
5.40638e-78
1.01286e-77
-1.15877e-75
1.56858e-76
-1.22101e-74
7.6894e-80
-7.12034e-80
2.07423e-78
-1.87248e-93
-1.13776e-90
-1.00179e-89
3.24283e-91
-1.75954e-91
-1.10306e-103
4.43573e-94
-6.36466e-102
-2.0984e-88
1.06626e-101
1.26024e-101
-1.38407e-99
1.15541e-87
-1.00082e-85
-6.02506e-104
3.22247e-89
1.78123e-103
-4.05964e-81
1.18403e-70
-3.93736e-76
-4.06318e-69
1.38908e-79
-1.09042e-77
-2.7221e-80
-4.15212e-78
8.57342e-72
1.56036e-77
4.15742e-78
-5.50602e-76
2.84831e-79
3.8537e-80
5.59039e-76
-1.59698e-74
3.04549e-77
-9.59698e-29
-3.23297e-27
-2.75114e-26
9.04784e-27
-6.26198e-28
-1.38242e-28
4.73805e-29
-1.14293e-27
-3.20725e-26
1.17108e-27
1.46309e-27
-2.00104e-26
1.95481e-25
-9.39437e-25
5.15329e-29
-1.44436e-29
2.50831e-26
-5.22492e-24
-2.12756e-23
-6.14288e-23
2.3589e-23
-5.11702e-24
-5.58854e-23
4.59151e-24
-2.28153e-22
-6.48172e-23
1.73853e-22
2.51464e-22
-2.20994e-21
2.76008e-22
-1.42713e-21
1.19678e-23
-1.94771e-23
5.75081e-24
6.00955e-23
6.56384e-23
-1.41438e-21
-7.16289e-22
3.17395e-24
-1.81901e-22
2.26311e-23
-2.07708e-22
3.6153e-23
-3.80778e-22
2.79514e-21
-3.53855e-20
6.08995e-22
-1.06743e-20
1.1834e-22
-1.04377e-21
2.64428e-22
1.23461e-09
-2.66459e-09
4.11115e-09
-9.08846e-10
-5.48055e-09
6.40599e-09
7.96891e-10
4.72874e-09
-1.25724e-08
-8.62236e-09
-2.10313e-09
1.74207e-08
-4.39785e-09
-6.22704e-09
-6.38125e-09
8.63519e-09
-5.80444e-09
-1.84905e-11
7.34864e-11
-8.04464e-11
2.40425e-11
-4.90058e-10
-1.98079e-10
4.59856e-10
1.48812e-11
-7.75883e-10
-4.71755e-10
2.10048e-10
5.41342e-11
-1.21345e-09
-2.36604e-10
-4.17831e-11
3.94942e-11
-1.01202e-09
5.92814e-13
3.71859e-13
2.53485e-13
-1.9727e-12
1.71109e-12
7.47846e-12
-2.96239e-11
5.281e-14
6.04677e-13
7.39936e-14
-9.49042e-14
-1.62682e-15
-9.37961e-13
6.8113e-13
-9.58416e-14
1.78696e-12
-4.59815e-14
-3.11678e-18
5.22559e-19
-5.10126e-18
-5.95502e-20
7.23572e-17
-2.12655e-15
4.17028e-17
7.51396e-19
7.98766e-18
5.07915e-15
-8.22381e-19
-4.3427e-14
2.41658e-16
5.23806e-16
-9.17212e-18
3.79134e-17
-1.12187e-16
-1.97637e-15
-5.87768e-15
5.29623e-16
1.79672e-15
-2.2403e-15
-5.52261e-16
-1.29519e-14
6.29478e-15
-5.61957e-14
-1.50136e-13
-1.38748e-16
5.23755e-14
-4.3483e-15
-5.66883e-13
5.33032e-15
-3.57894e-14
1.3934e-15
9.97509e-11
1.95847e-09
-2.18326e-09
-9.44079e-10
5.70557e-10
-2.32518e-10
-3.82538e-12
-3.52154e-10
2.3906e-09
-8.5768e-09
3.71893e-09
5.10289e-09
-1.58159e-10
-7.13522e-09
7.38258e-10
-9.2811e-10
3.99451e-09
-2.12167e-07
5.11443e-08
-3.93233e-08
5.45417e-08
-7.87241e-08
2.62616e-07
-9.92303e-07
4.2849e-08
-3.64361e-08
3.1182e-08
-6.04893e-08
-5.66263e-09
-1.90521e-07
2.08302e-07
-2.31526e-07
1.70095e-07
-1.71792e-07
2.74302e-11
7.82571e-11
-1.20952e-12
-1.97855e-10
1.82207e-10
-5.73509e-10
2.83001e-10
-1.39281e-10
3.55216e-10
-1.83323e-10
1.36954e-10
-2.0268e-11
8.16986e-10
-1.32782e-09
-9.40897e-12
1.22471e-10
-5.85527e-12
-2.73954e-40
-4.28632e-41
1.56834e-41
1.66428e-41
1.63554e-40
4.85922e-41
-3.32933e-39
-3.22811e-39
1.17079e-40
1.39784e-38
-8.52026e-40
-1.53711e-37
-1.80522e-41
2.08706e-39
1.2321e-39
-1.43439e-38
1.62213e-40
3.87011e-39
-7.25872e-51
1.49391e-38
-2.8369e-37
-8.97486e-51
9.52393e-41
3.0429e-41
9.20298e-51
-2.89724e-49
-1.00025e-42
-7.5214e-40
9.08339e-41
-8.2708e-52
9.52863e-43
-4.2678e-52
7.29585e-40
-5.51422e-51
-1.2536e-55
-1.80813e-58
1.91938e-57
1.36602e-57
8.63082e-56
3.92915e-56
-5.41653e-54
-3.05344e-60
8.56051e-58
1.9616e-59
-8.57669e-58
-5.12371e-60
-2.37185e-59
4.04856e-59
9.87605e-58
-7.67987e-58
1.1043e-58
-1.02805e-57
-1.37216e-60
1.04494e-59
1.32638e-59
6.44915e-58
1.25623e-58
-4.96467e-56
5.25273e-60
-2.13731e-59
-1.21005e-58
-5.08334e-61
4.59598e-60
-8.53687e-59
-6.23219e-57
1.09982e-58
-5.2308e-57
3.61599e-60
3.08254e-57
-6.69809e-56
-4.82215e-55
1.08715e-56
-1.20223e-55
-3.118e-57
3.98683e-57
-6.1071e-56
-1.49861e-53
-8.07861e-54
1.37786e-55
-1.71786e-59
2.0719e-53
-1.27367e-51
3.07417e-59
4.52053e-58
1.09991e-55
-8.61268e-107
-2.19365e-105
6.32049e-108
1.90094e-108
6.48981e-107
2.49547e-107
-1.1237e-104
2.94544e-104
-4.48028e-102
-7.41146e-101
-3.66175e-106
1.20312e-102
-6.24877e-109
-1.00623e-98
3.2727e-109
-3.01303e-107
2.06469e-107
-2.73248e-98
8.72454e-101
-6.36979e-105
9.30701e-97
-2.15538e-107
-9.17553e-95
1.29783e-98
5.8114e-105
-2.11144e-102
-1.9119e-106
2.74872e-100
6.74081e-102
-2.56677e-98
-3.58979e-98
-1.00691e-101
-2.73712e-99
9.75801e-101
-4.14738e-100
-6.10036e-100
4.53296e-98
4.17831e-98
-5.16894e-96
5.80786e-97
-6.48035e-95
-5.33851e-100
2.21172e-98
1.47364e-100
7.30451e-99
-1.11663e-96
-2.64574e-97
-5.67168e-98
-2.79737e-97
1.14899e-95
-1.08659e-93
-1.91251e-95
1.7401e-97
-3.06701e-85
-2.72769e-96
-2.57254e-88
9.85523e-87
-7.4044e-97
-8.1616e-87
-2.31664e-83
2.33671e-86
-8.50532e-85
6.67977e-88
-8.10178e-20
-1.34443e-19
3.80598e-20
8.21475e-21
6.43492e-20
8.9926e-20
-6.26918e-19
6.63374e-19
-1.49754e-18
-4.88978e-21
-3.64204e-19
2.06351e-19
-2.68362e-20
3.73408e-21
4.45151e-21
-5.86553e-21
-1.77499e-20
-1.98284e-11
-8.1393e-10
6.09924e-10
-1.88492e-10
-8.80516e-10
3.37002e-10
2.71613e-10
-4.85605e-10
-1.764e-09
-1.86532e-09
-5.23365e-10
2.40093e-09
-4.72642e-10
-2.5702e-09
-1.1357e-09
7.78011e-10
-2.67463e-09
4.09509e-17
1.77801e-16
-7.48832e-17
-2.39266e-15
5.80657e-17
-5.60753e-16
3.79524e-17
-9.4284e-17
8.07212e-17
-2.86491e-15
8.08503e-16
-1.96231e-15
2.86205e-15
-2.71865e-14
3.51045e-16
-1.2095e-15
2.07287e-16
-5.30782e-21
-7.70389e-18
7.23054e-19
2.24685e-19
-6.25157e-18
2.93099e-19
2.62515e-20
5.09501e-18
-7.50649e-19
-4.90546e-19
2.98424e-19
-7.66033e-18
1.96158e-19
3.95834e-18
-4.34284e-17
3.98967e-19
-5.32153e-22
-2.60435e-25
1.37808e-23
2.27659e-23
-1.86328e-25
-9.79506e-20
2.68705e-21
-2.93258e-24
-2.6964e-25
4.68936e-19
-2.71076e-24
-5.98534e-18
-4.79732e-25
5.00264e-20
9.05009e-24
-1.4471e-22
3.96477e-24
-1.29211e-20
2.11036e-17
-1.46764e-19
7.21495e-18
4.95331e-20
-2.30264e-21
-1.00323e-19
-1.0231e-20
1.76373e-17
-9.53395e-20
8.88017e-21
-2.28915e-23
6.86965e-20
-1.27319e-18
-7.6875e-20
8.42452e-21
-9.87192e-19
2.95374e-09
3.16731e-10
-2.3448e-09
-2.69597e-10
-4.5365e-09
-2.20588e-09
8.61964e-09
-6.89702e-09
1.0374e-09
2.46516e-09
3.36558e-09
-7.6226e-09
3.60785e-09
-1.07639e-09
-4.12517e-09
5.88122e-09
-7.54189e-09
-6.53493e-10
-2.7049e-10
2.51137e-10
6.57904e-10
3.14177e-10
-8.70443e-11
-8.99768e-10
-5.32769e-10
5.45469e-10
1.41226e-09
-3.88063e-10
-1.3857e-09
-2.916e-11
1.97163e-09
6.70855e-10
-1.15676e-09
8.82039e-10
-1.19549e-29
1.21223e-28
5.9672e-30
-1.00751e-27
1.75171e-28
-6.29632e-28
1.22952e-28
-1.4359e-28
2.97154e-28
-1.24396e-27
2.75359e-28
-7.10275e-31
1.20014e-27
-1.02214e-26
2.47325e-28
-8.42211e-28
1.03613e-28
-2.94751e-27
1.31125e-28
3.92838e-29
7.88732e-27
-8.36092e-26
-1.1996e-29
9.36422e-29
-2.51613e-28
7.62822e-29
2.07558e-28
4.19956e-15
-2.95597e-18
-1.63341e-15
1.19433e-15
-2.93859e-16
-1.53991e-12
3.74207e-13
-5.23377e-16
8.05168e-17
1.2452e-15
3.43229e-16
-8.12671e-15
4.75049e-16
-1.04294e-14
-1.08469e-15
-1.13131e-11
-6.8764e-15
-1.09944e-09
-2.18824e-10
-1.46774e-11
1.21388e-09
2.59648e-10
-6.21336e-10
-1.25899e-09
-1.63041e-10
9.12295e-11
-5.79466e-11
3.05698e-10
-4.75711e-10
2.46936e-10
-2.0951e-10
1.27033e-10
-2.97003e-10
3.3034e-10
-6.8509e-13
-8.90639e-13
-5.453e-13
1.59319e-12
-5.19369e-13
-3.85131e-12
1.80301e-12
-2.59457e-12
-2.76605e-13
7.48665e-13
3.99414e-12
-1.05654e-11
7.39911e-13
-1.00402e-12
8.70536e-13
-3.99446e-12
5.97424e-13
-5.5253e-08
7.77518e-08
2.27278e-07
2.04258e-08
2.13045e-08
4.75825e-09
-8.84256e-08
8.84695e-08
5.86957e-08
-2.8521e-07
2.11094e-08
2.82179e-07
-1.77536e-07
-6.41181e-07
-2.13351e-07
1.59239e-07
-3.99446e-07
-1.38136e-31
-1.35873e-33
-5.39654e-37
3.32818e-32
2.41855e-32
-4.72827e-40
-1.09422e-30
-3.58319e-39
2.38212e-34
6.45219e-39
1.34999e-39
-1.20292e-38
1.74812e-35
0
6.77516e-40
-4.36744e-43
3.40667e-36
6.68511e-40
-1.31734e-39
-1.33579e-38
1.53179e-39
-2.52754e-39
-1.02583e-39
8.89943e-40
-1.55123e-39
-4.62753e-38
-1.8417e-38
3.97579e-39
-1.76439e-38
6.0372e-38
-6.51347e-37
-5.41427e-39
7.84792e-40
-3.43636e-38
5.86654e-26
2.79833e-26
-2.0431e-25
-1.31975e-24
-1.94037e-27
-5.02966e-25
9.34129e-26
-3.37416e-26
4.76515e-27
1.20601e-25
2.93872e-25
-4.34645e-24
4.20197e-24
-4.27612e-23
-7.30315e-27
2.44658e-25
-3.60497e-27
-1.53947e-75
-7.77736e-74
-2.50436e-75
1.13526e-75
-2.0384e-74
-3.75622e-73
2.44478e-75
-2.57322e-71
-2.4221e-74
3.4525e-71
2.99356e-71
-4.83247e-69
1.98749e-73
1.48284e-74
1.99008e-73
-8.26015e-73
3.65055e-75
-1.03466e-66
-2.64047e-66
1.55399e-68
1.66372e-68
-2.12468e-67
1.86716e-66
-1.46454e-64
5.13981e-66
-3.88506e-64
-7.12299e-73
-8.66015e-68
2.0604e-69
-4.40677e-68
1.16373e-69
1.09933e-68
-4.20026e-67
6.0076e-68
-2.86613e-124
-3.295e-117
4.33947e-120
1.55231e-120
1.77617e-124
4.39721e-125
-7.37281e-122
1.40643e-115
-4.6032e-113
-2.7163e-117
-7.51065e-118
2.67336e-119
-1.91481e-121
-7.42652e-115
1.03057e-121
-3.82478e-119
7.99348e-119
-3.63859e-109
4.34231e-112
-3.48294e-122
5.28942e-108
-2.51017e-119
-9.75411e-106
3.27771e-110
2.44825e-122
-3.11985e-119
-1.60593e-116
9.11122e-82
2.03126e-81
-1.8091e-79
-1.58356e-79
2.14096e-83
-2.35703e-81
2.93444e-83
-5.30324e-81
1.9424e-82
-8.1178e-80
4.5764e-79
-3.57968e-77
1.50924e-79
-1.76464e-77
1.12148e-81
-1.01453e-81
6.00246e-81
-2.03232e-58
4.26579e-58
6.82556e-58
-7.31656e-56
3.6337e-58
-1.30617e-59
-1.4968e-56
6.55755e-60
2.47455e-59
-2.29997e-55
-4.7553e-62
9.68035e-57
-3.84316e-59
-7.12502e-54
1.0116e-58
-3.78424e-57
4.39426e-60
-4.32431e-45
1.46287e-40
2.80015e-40
-1.52291e-38
7.8454e-45
-1.62542e-46
-1.87458e-43
2.56432e-42
7.23503e-42
-4.62312e-38
-9.93542e-45
3.78335e-39
-1.49896e-45
-8.54084e-37
3.03079e-45
-6.65105e-44
1.96842e-43
7.78635e-23
7.36813e-22
-2.49929e-21
-4.07362e-21
8.05446e-22
-4.27038e-21
2.40794e-22
-5.10335e-20
-6.93983e-20
7.97024e-22
-1.58735e-20
-4.55665e-20
-1.50336e-19
-2.04318e-19
-1.7603e-18
-1.47007e-19
-1.96108e-20
1.18383e-18
2.82459e-19
-5.5271e-19
-4.81914e-18
9.04742e-21
-6.82006e-19
9.93862e-19
-7.0791e-19
-2.34178e-18
-2.9766e-19
7.589e-19
-1.43796e-18
-5.35484e-18
-2.79384e-17
-1.63149e-17
-8.81528e-18
-6.9543e-17
-5.08846e-17
-3.13914e-07
-4.95392e-07
-2.0955e-07
6.75036e-07
1.58812e-08
-9.44942e-07
8.75483e-08
-1.02706e-06
3.56092e-08
1.13781e-06
1.0406e-06
-4.27672e-06
8.28882e-07
-6.93422e-08
4.39191e-07
-1.18057e-06
8.15192e-07
6.30653e-11
2.57096e-10
2.06569e-10
-6.69236e-10
1.41426e-10
2.77378e-10
-4.05801e-10
1.08756e-10
1.95525e-10
1.36107e-10
-3.0491e-10
2.21231e-10
-3.81164e-10
6.88042e-10
-1.53215e-12
-5.74505e-11
-1.68595e-10
-1.2348e-15
-4.47522e-17
7.72252e-17
6.6814e-17
6.44605e-16
1.89321e-15
-1.35013e-14
9.78711e-17
-2.36501e-18
-7.35914e-18
-3.04653e-17
2.55654e-17
-3.61143e-16
8.03266e-17
8.73515e-17
-7.32706e-17
1.14937e-17
-1.03818e-31
-9.18265e-33
-4.85596e-33
5.65691e-33
-1.68561e-33
-9.08865e-30
4.03658e-32
-4.1071e-31
-1.17106e-34
1.54278e-29
6.04444e-30
-4.05213e-28
2.51503e-31
4.00113e-31
3.74474e-31
-4.70721e-30
3.34576e-32
-3.33917e-21
-9.63717e-20
-1.31014e-20
7.88437e-21
-5.37069e-20
-3.27725e-19
2.20119e-20
-4.57253e-18
-6.33258e-20
5.62655e-18
6.07251e-18
-1.36312e-16
2.27254e-19
-1.06208e-21
1.13905e-19
-5.99322e-20
1.12721e-20
9.47757e-10
7.62543e-10
-1.73038e-09
-1.33322e-09
6.32746e-11
-2.85633e-09
3.05816e-09
-1.27999e-09
1.30222e-09
1.7931e-09
1.97074e-09
-6.74845e-09
6.32326e-09
-5.04087e-09
1.56239e-10
2.68381e-09
6.84112e-10
3.28994e-09
2.91744e-09
2.5398e-09
-8.77192e-09
2.73588e-10
3.69904e-09
-7.08396e-10
2.86127e-09
2.65102e-10
-3.30135e-09
-2.34807e-09
8.46626e-09
-3.81335e-09
6.4081e-10
-2.956e-09
4.28339e-09
-4.206e-09
-1.51491e-11
8.68459e-12
2.11607e-11
-1.67704e-12
2.67773e-12
1.42077e-12
-9.35634e-12
3.58465e-12
2.25523e-11
6.83006e-11
-1.73815e-11
-1.35051e-11
-1.09345e-11
1.17631e-10
2.69683e-11
-1.7398e-11
5.28431e-11
8.58193e-20
-8.22471e-21
-2.76781e-19
3.69978e-20
-9.35159e-20
-6.71881e-20
1.40314e-19
-1.33586e-20
-4.21551e-19
-3.72232e-19
1.50647e-19
-2.69837e-23
5.77924e-19
-2.35446e-18
-9.15712e-20
6.7457e-20
-9.27629e-20
2.33094e-07
7.436e-08
8.21301e-08
-1.19907e-08
-2.54819e-07
-6.43419e-08
3.59267e-07
-1.53453e-07
-4.67896e-07
-1.15837e-09
6.53457e-08
3.60875e-08
5.3297e-09
-1.28512e-08
-1.88663e-07
1.45373e-07
-3.53652e-07
2.09885e-08
-5.20382e-08
-3.48399e-08
6.58939e-08
-1.22863e-07
-2.12541e-08
1.65128e-07
-9.18563e-08
-8.27693e-08
-3.74186e-07
1.71999e-07
1.11457e-07
4.85867e-07
-9.29947e-07
-6.44957e-08
2.0172e-07
4.01213e-07
7.00073e-10
-8.91489e-08
4.10905e-08
4.74011e-08
-8.59592e-08
4.6553e-08
4.01511e-08
-2.13885e-08
-1.52127e-07
-2.71136e-08
8.08412e-08
-1.26033e-08
-2.34325e-07
2.55857e-07
-4.51353e-07
5.14872e-07
-8.09024e-07
-1.65597e-07
1.54382e-07
1.76345e-07
1.02022e-07
6.57747e-07
-1.93451e-16
-6.02429e-15
3.42213e-17
1.69753e-15
-5.52202e-15
2.52682e-15
-6.65483e-19
7.89168e-15
-2.78593e-14
1.50316e-12
-4.57412e-12
9.05731e-15
-6.54658e-13
1.33619e-12
-2.30127e-12
6.65395e-13
-1.13674e-11
1.09454e-36
-5.04505e-36
-2.75714e-35
2.62024e-36
-8.44387e-36
-3.42321e-36
2.16664e-36
-1.58854e-35
-2.0036e-34
-5.7788e-35
4.24899e-35
-4.01488e-34
3.10506e-34
-4.18024e-33
-1.30731e-35
5.46964e-36
-7.23476e-36
1.6275e-30
3.44958e-30
4.14096e-32
-3.06933e-29
1.97212e-30
2.41361e-30
-4.9684e-29
2.06321e-31
7.0342e-31
-1.41867e-28
5.82365e-31
2.98582e-29
-4.60675e-30
-9.39474e-28
8.95027e-30
-7.91662e-29
1.6392e-30
4.4627e-25
8.0358e-25
8.37211e-26
-5.39844e-24
5.16836e-26
-1.35408e-24
9.36588e-26
5.33644e-26
1.05792e-25
4.99232e-24
-1.44842e-24
-3.20223e-23
-4.97926e-26
1.14683e-24
-2.0637e-24
4.30341e-25
-1.38017e-23
-2.42558e-80
-1.84762e-80
1.92867e-82
1.12916e-82
1.53916e-80
2.62163e-80
-3.10442e-78
5.16456e-80
-4.72942e-78
-2.69867e-84
-5.4484e-82
1.53242e-83
-5.75535e-82
6.9649e-84
2.78916e-82
-1.44316e-80
6.26921e-82
-4.28365e-122
-1.09342e-118
-4.54191e-118
3.45254e-120
-2.02692e-119
-4.06396e-122
-1.18328e-126
-3.0236e-120
-1.14345e-115
1.61259e-119
-3.13815e-115
9.44796e-118
-7.64105e-120
1.96373e-121
4.39352e-121
-1.50328e-120
-1.98648e-112
3.42572e-124
9.70645e-125