/*--------------------------------*- C++ -*----------------------------------*\
| =========                 |                                                 |
| \\      /  F ield         | OpenFOAM: The Open Source CFD Toolbox           |
|  \\    /   O peration     | Version:  v2012                                 |
|   \\  /    A nd           | Website:  www.openfoam.com                      |
|    \\/     M anipulation  |                                                 |
\*---------------------------------------------------------------------------*/
FoamFile
{
    version     2.0;
    format      ascii;
    class       volScalarField;
    location    "0.05";
    object      p;
}
// * * * * * * * * * * * * * * * * * * * * * * * * * * * * * * * * * * * * * //

dimensions      [1 -1 -2 0 0 0 0];


internalField   nonuniform List<scalar> 
24700
(
-388.901
-429.895
-345.496
-404.865
-422.862
-306.607
-356.82
-417.128
-440.552
-448.412
-416.908
-442.583
-434.473
-372.441
-399.536
-423.11
-406.392
-213.751
-242.976
-246.88
-198.497
-178.332
-236.151
-225.864
-163.131
-200.499
-190.551
-198.117
-185.206
-2.92399
-2.92373
-2.93649
-2.89954
-2.89539
-2.91033
-2.90539
-2.47568
-2.50667
-2.51314
-2.55322
-2.52238
-2.53233
-2.50092
-1.01757
-0.998063
-1.00553
-1.0357
-1.03155
-1.01579
-1.02023
-0.404666
-0.392421
-0.460511
-0.663238
-0.571737
-0.568595
-0.561591
-5.11096
-3.20907
-4.46708
-4.87396
1.74682
-4.17795
-5.82687
-1.75516
-1.713
-1.75953
-1.80036
-1.74537
-1.72697
-1.77925
-4.15042
-3.78257
-3.97457
-3.58998
-3.53335
-3.74315
-3.88506
-19.2794
-10.1436
-23.7612
-36.8363
-10.6944
58.2373
-58.341
-3.13754
-3.24488
-3.12868
-2.99946
-3.14387
-3.18735
-3.05651
-2.23109
-2.19592
-2.23269
-2.2356
-2.27341
-2.21732
-2.25394
-1.89533
-1.92032
-1.89346
-1.86604
-1.89311
-1.90513
-1.87758
-1.40446
-1.42884
-1.43672
-1.46089
-1.43624
-1.44046
-1.41584
-2.79668
-2.82123
-2.79409
-2.78186
-2.75676
-2.77129
-2.79659
-2.79777
-2.81061
-2.83604
-2.89698
-2.9198
-2.8926
-2.87675
-2.8523
-2.89215
-2.86859
-2.9051
-2.90606
-2.93433
-2.91016
-2.88224
-2.76857
-2.79725
-2.79283
-2.82463
-2.80027
-2.78331
-2.80799
-2.22297
-2.26208
-2.22867
-2.18834
-2.22043
-2.24322
-2.21101
-1.00551
-0.998057
-1.01756
-1.03156
-1.03569
-1.01577
-1.02021
-0.448689
-0.390556
-0.407085
-0.426683
-0.377199
-0.385711
-0.441087
-0.26073
-0.3037
-0.270711
-0.195403
-0.243613
-0.298357
-0.238277
-0.094499
-0.0866934
-0.100865
-0.116424
-0.129894
-0.113729
-0.0896973
-0.202894
-0.183807
-0.0805412
-0.0588078
-0.0487341
-0.12237
-0.149975
-0.392785
-0.40063
-0.338543
-0.315554
-0.31236
-0.349078
-0.361244
-0.457412
-0.487544
-0.45536
-0.441502
-0.402425
-0.454665
-0.421938
-0.839076
-0.816788
-0.825593
-0.794627
-0.808871
-0.823893
-0.810264
-1.01141
-1.00525
-0.993788
-1.02482
-0.989758
-0.991746
-1.01766
-1.19303
-1.2002
-1.17658
-1.18798
-1.21393
-1.20877
-1.18453
-0.933705
-0.97046
-0.956535
-1.00707
-0.985777
-0.981591
-0.959919
-0.846274
-0.776471
-0.806877
-0.732086
-0.85881
-0.754443
-0.867721
-0.3684
-0.42126
-0.378578
-0.44124
-0.292498
-0.324588
-0.410949
-0.200203
-0.255367
-0.189284
-0.177162
-0.195753
-0.205048
-0.180015
0.437998
0.416836
0.391989
0.427394
0.380236
0.433078
93.8494
74.9463
75.6416
65.9596
75.8618
57.1045
4.16059
2.82622
2.89048
0.481015
-0.467871
0.0164522
0.256738
0.191323
0.216994
0.221458
0.696938
-0.0682201
0.297743
-0.268791
0.253119
0.253199
0.219858
0.264723
0.257513
0.234793
0.262108
0.318452
0.364545
0.317285
0.290794
0.299281
0.335308
0.294546
0.247923
0.193349
0.192688
0.174976
0.157197
0.165561
0.205573
-0.148726
0.0019987
-0.0657576
-0.240995
-0.248779
-0.111903
-0.138544
-0.0977124
-0.0513216
-0.0438692
-0.0253094
0.059636
0.0289846
-0.0891382
-0.664013
-0.668898
-0.685448
-0.661563
-0.645919
-0.658595
-0.674791
-0.927798
-0.937986
-0.945275
-0.959574
-0.950548
-0.946597
-0.937699
-1.37798
-1.37112
-1.34806
-1.32531
-1.32852
-1.35062
-1.35514
-2.13988
-2.11329
-2.10563
-2.07804
-2.10376
-2.09897
-2.12493
-2.11105
-2.14027
-2.11574
-2.10379
-2.07944
-2.12094
-2.0965
-2.21969
-2.21132
-2.24506
-2.20616
-2.18167
-2.22744
-2.20274
-2.47843
-2.50258
-2.50516
-2.53875
-2.51389
-2.52449
-2.49953
-2.6157
-2.64091
-2.60371
-2.60273
-2.57824
-2.62811
-2.6034
-2.70375
-2.69793
-2.72863
-2.66195
-2.6873
-2.70478
-2.68047
-2.69753
-2.70114
-2.67311
-2.71065
-2.73559
-2.71966
-2.69522
-2.79716
-2.76854
-2.79279
-2.80024
-2.82461
-2.78332
-2.80798
-2.61513
-2.58988
-2.61575
-2.64216
-2.61616
-2.60343
-2.62963
-2.23285
-2.19592
-2.23118
-2.27349
-2.2361
-2.21746
-2.25408
-2.10507
-2.09789
-2.05974
-2.10686
-2.15153
-2.12524
-2.081
-0.866024
-0.888097
-0.909986
-0.825288
-0.829671
-0.866018
-0.87601
-0.992299
-0.93307
-0.969361
-1.01649
-0.943293
-0.944064
-1.00945
-0.332247
-0.479168
-0.147387
-0.455431
-0.517832
-0.134328
-0.290624
-0.18809
-0.167051
-0.197633
-0.200402
-0.21966
-0.177581
-0.199107
-0.075325
-0.115037
-0.107993
-0.116948
-0.135743
-0.0843585
-0.111997
-0.100397
-0.070162
-0.111832
-0.145986
-0.124958
-0.0113212
-0.0318801
-0.00791705
0.0402049
-0.00871065
-0.0117734
0.0249717
0.00305954
0.0410292
-0.00780447
-0.0451804
-0.0216439
0.296481
0.383405
0.875001
0.714006
0.406976
0.476689
0.481871
0.203094
0.22521
0.192877
0.0982569
0.221698
0.23167
0.121373
-0.368881
-0.347189
-0.414074
-0.371572
-0.337716
-0.339702
-0.3854
-0.327557
-0.315694
-0.335635
-0.336255
-0.319226
-0.31428
-0.333675
-0.978965
-0.976891
-0.996628
-0.979945
-0.959047
-0.967463
-0.987806
-1.38943
-1.4208
-1.39485
-1.3978
-1.36825
-1.40942
-1.37717
-1.87701
-1.90244
-1.87841
-1.84262
-1.86659
-1.88069
-1.85578
-1.94479
-1.92102
-1.91727
-1.8878
-1.91121
-1.90323
-1.92684
-2.04238
-2.01828
-2.0162
-1.97962
-2.00386
-2.01873
-1.99515
-2.40799
-2.40616
-2.43199
-2.38027
-2.40372
-2.39412
-2.41787
-2.85492
-2.83216
-2.82671
-2.80083
-2.82525
-2.81855
-2.84159
-2.78817
-2.7634
-2.76568
-2.73903
-2.76762
-2.75017
-2.77684
-1.38598
-1.37186
-1.40545
-1.41182
-1.37198
-1.373
-1.40944
-0.904812
-0.698331
-0.831668
-0.807978
-0.523009
-0.820471
-0.611282
-1.27186
-1.12693
-0.999665
-1.10627
-0.94535
-1.13414
-1.29177
-0.798909
-0.833631
-0.807569
-0.806734
-0.820383
-0.83054
-0.808511
-0.201557
-0.198955
-0.220265
-0.168646
-0.188798
-0.19957
-0.179557
-0.163909
-0.146866
-0.148686
-0.152908
-0.133689
-0.139841
-0.157396
0.398469
0.375601
0.386321
0.521882
0.396076
0.387619
0.41287
7.19157
8.52984
8.39996
0.690863
3.16304
8.57528
4.39572
0.23722
0.265946
0.229083
0.221654
0.220885
0.235612
0.233051
-0.293472
-0.305879
-0.286869
-0.280855
-0.268077
-0.293799
-0.281455
-0.468506
-0.463976
-0.484445
-0.446326
-0.46112
-0.458502
-0.473897
-0.714623
-0.73188
-0.714022
-0.710491
-0.692673
-0.719658
-0.702339
-1.2421
-1.25807
-1.26994
-1.2804
-1.29754
-1.27718
-1.26063
-1.72601
-1.70354
-1.69491
-1.67168
-1.69245
-1.69111
-1.71301
-1.73476
-1.71164
-1.73519
-1.77265
-1.74829
-1.73752
-1.761
-1.73313
-1.74547
-1.77025
-1.69734
-1.72333
-1.92181
-1.94687
-1.92216
-1.89559
-1.91969
-1.93325
-1.90854
-1.92198
-1.95885
-1.92036
-1.89664
-1.94527
-2.05565
-2.03169
-2.01991
-2.03195
-2.05587
-2.79686
-2.77298
-2.801
-2.81407
-2.79013
-2.77897
-2.80551
-3.78842
-3.58507
-3.69307
-3.97571
-4.14837
-3.83138
-3.92148
-1.7511
-1.6982
-1.76988
-1.82143
-1.72392
-1.71765
-1.7945
-1.77717
-1.83462
-1.7892
-1.84572
-1.87821
-1.82918
-1.8037
-1.7447
-1.75879
-1.75629
-1.77069
-1.76829
-1.76158
-1.75437
-1.84087
-1.79897
-1.80348
-1.76057
-1.79576
-1.77624
-1.81358
-3.00114
-3.21384
-2.53551
-2.92917
-3.16659
-3.30219
-2.66429
-1.22741
-1.07847
-1.21339
-1.21822
-1.76802
-1.18029
-1.6531
-0.660002
-0.643311
-0.615251
-0.658503
-0.685905
-0.655425
-0.628535
-0.660514
-0.701846
-0.618731
-0.64519
-0.670557
-0.171589
-0.206754
-0.181328
-0.170984
-0.184752
-0.185909
-0.171245
-0.337299
-0.295814
-0.382611
-0.49676
-0.455005
-0.414396
-0.416743
0.304515
0.347744
0.308606
0.299876
0.275248
0.322561
0.287831
3.13863
-0.910197
1.94808
1.84085
10.0315
-0.0504601
7.03176
0.0317383
0.0178333
0.0451832
0.0508191
0.0708384
0.0331212
0.0497344
0.0189435
-0.00615976
-0.00723751
-0.0318657
-0.0117034
-0.019744
0.00311304
-0.281243
-0.262006
-0.276801
-0.300052
-0.285675
-0.274046
-0.288083
-0.639674
-0.656645
-0.664261
-0.685949
-0.670508
-0.670051
-0.653951
-0.915765
-0.916349
-0.938709
-0.915086
-0.892502
-0.904211
-0.926992
-1.45871
-1.43674
-1.45908
-1.49534
-1.47192
-1.46165
-1.48425
-1.45709
-1.46958
-1.49316
-1.42296
-1.44803
-1.91725
-1.92099
-1.94472
-1.91123
-1.88779
-1.90321
-1.92682
-2.10713
-2.07428
-2.10034
-2.13645
-2.11031
-2.09049
-2.11653
-2.31267
-2.27948
-2.30487
-2.34136
-2.31606
-2.29503
-2.32098
-2.91515
-2.92334
-2.93879
-2.90844
-2.92506
-2.92619
-2.93769
-2.92805
-2.92266
-2.92679
-2.93634
-2.92601
-2.91541
-2.94119
-2.9336
-2.9342
-2.99283
-6.35807
-3.24351
7.60771
2.40633
-0.50812
-2.34109
-3.23534
-3.18378
-3.19571
-3.14623
-3.17605
-3.14213
-3.17792
-2.23768
-2.23748
-2.18563
-2.23998
-2.30181
-2.27508
-2.21705
-1.83114
-1.83268
-1.80535
-1.8292
-1.8625
-1.8158
-1.84621
-1.75793
-1.77116
-1.76204
-1.75046
-1.75973
-1.76293
-1.7601
-2.33755
-2.32672
-2.2987
-2.84115
-2.63709
-2.53114
-2.74033
-3.60502
-3.64586
-3.69244
-3.71189
-3.61525
-3.68573
-3.59754
-1.27829
-1.4347
-1.4243
-1.56691
-1.40913
-1.48187
-1.34425
-1.11788
-1.0854
-1.13788
-1.15642
-1.1897
-1.12132
-1.15326
3.01639
1.96673
9.14892
2.81495
0.250503
2.29794
7.48734
80.4537
61.4674
56.3508
66.2423
48.1229
81.1735
62.2197
78.1572
78.3354
86.0476
60.4639
59.6124
67.9615
68.1201
68.1589
87.3719
67.9602
0.140967
0.118643
0.139905
0.165281
0.136391
0.127731
0.153353
0.111835
0.0907939
0.0817935
0.0595668
0.0778697
0.0783249
0.0978139
-0.0926616
-0.0714304
-0.0749336
-0.0481976
-0.0681537
-0.0799965
-0.0612013
-0.170153
-0.147908
-0.152381
-0.148479
-0.128362
-0.141993
-0.161255
-1.05201
-1.05406
-1.07741
-1.04879
-1.02569
-1.03949
-1.06267
-1.38904
-1.3669
-1.36466
-1.36697
-1.34485
-1.33138
-1.35347
-1.36814
-1.40224
-1.37953
-2.13312
-2.10676
-2.10479
-2.07014
-2.09702
-2.08552
-2.11207
-2.92656
-2.93156
-2.93525
-2.93698
-2.92835
-2.93765
-2.93012
-2.93121
-2.93592
-2.94092
-2.94341
-2.94058
-2.93347
-2.92935
-2.93167
-2.92287
-2.92129
-2.93885
-2.96285
-3.07489
-3.01117
-3.01364
-3.04893
-3.04695
-3.01231
-3.06277
-3.01801
-3.03057
-3.08877
-3.0639
-2.53078
-2.48659
-2.51432
-2.49828
-2.54354
-2.49446
-2.5374
-1.80882
-1.81674
-1.82728
-1.85879
-1.8413
-1.84092
-1.82868
-2.65043
-2.6167
-2.33699
-2.50438
-2.60015
-2.87812
-3.16249
-1.7505
-1.67811
-1.74964
-1.75057
-1.80672
-1.71596
-1.78337
-0.581376
-0.524109
-0.570544
-0.58373
-0.623971
-0.551722
-0.588246
-0.107337
-0.137305
-0.121088
-0.16853
-0.135752
-0.170706
-0.132122
0.11387
0.0790623
0.0695219
-0.0676578
0.0380779
-0.0130011
0.0915144
0.23742
0.270815
0.238
0.219736
0.221181
0.236327
0.238695
54.6288
44.5436
64.1305
54.2558
56.7311
73.9615
43.2665
25.1941
37.3758
55.1739
61.0977
65.4306
85.1172
66.7413
48.0807
-0.185876
-0.212961
-0.192037
-0.199288
-0.165126
-0.205806
-0.175232
-0.374043
-0.38573
-0.410381
-0.363941
-0.352084
-0.369176
-0.393736
-0.512834
-0.52393
-0.511439
-0.538313
-0.529645
-0.524385
-0.519252
-0.733939
-0.754527
-0.736115
-0.735365
-0.715667
-0.74378
-0.723643
-0.832551
-0.816474
-0.809451
-0.789448
-0.804865
-0.804407
-0.820277
-1.006
-0.98778
-0.981661
-0.956545
-0.97405
-0.971443
-0.98926
-1.08211
-1.10453
-1.0853
-1.0825
-1.05966
-1.09057
-1.06778
-1.21171
-1.1904
-1.18606
-1.1572
-1.17807
-1.17196
-1.19298
-1.18846
-1.21346
-1.19197
-1.15916
-1.18033
-1.1945
-1.1733
-1.10142
-1.12206
-1.09609
-1.0877
-1.06738
-1.10323
-1.08292
-1.05201
-1.02572
-1.04878
-1.07741
-1.05407
-1.0395
-1.06267
-1.28033
-1.2975
-1.26985
-1.25791
-1.24211
-1.2772
-1.2606
-1.99668
-2.17272
-1.99214
-1.89324
-1.99933
-2.09094
-1.95029
-2.65545
-2.91209
-2.84718
-1.90005
-3.55798
-3.6505
-2.38933
-2.94452
-2.93773
-2.94098
-2.94262
-2.94813
-2.9426
-2.95092
-2.93381
-2.94271
-2.93934
-2.80978
-2.80437
-2.82856
-2.76724
-2.78657
-2.80212
-2.78419
-1.59432
-1.59641
-1.51184
-1.60418
-1.64948
-1.62218
-1.56148
-1.80706
-1.75097
-1.75081
-1.67822
-1.75113
-1.71554
-1.78372
-0.847436
-0.822396
-0.873959
-0.909063
-0.910085
-0.870271
-0.875252
-1.00914
-0.969298
-1.14412
-0.96907
-0.951826
-0.99654
-0.978938
-0.014676
-0.0151544
-0.0394733
-0.00728376
0.018465
0.00486902
-0.0208471
-0.130178
-0.12766
-0.16144
-0.0822882
-0.120492
-0.0989567
-0.135719
-0.546822
-0.59541
-0.533246
-0.463292
-0.47116
-0.45873
-0.491528
-1.021
-1.01288
-1.04133
-1.00988
-0.990056
-1.02847
-1.00827
-0.937845
-0.916143
-0.917678
-0.897261
-0.918896
-0.906822
-0.928137
-2.43568
-2.96106
-2.95992
-3.10983
-2.81244
-3.1508
-2.67406
-3.17067
-3.12763
-3.16834
-3.17901
-3.15489
-3.13493
-3.18412
-2.92569
-2.92608
-2.93715
-2.90056
-2.89955
-2.91021
-2.90853
-2.66517
-2.63079
-2.65543
-2.701
-2.67542
-2.6534
-2.67926
-1.8741
-1.89344
-1.90295
-1.89022
-1.90254
-1.90099
-1.88041
-1.97465
-1.96217
-1.96431
-1.95646
-1.96017
-1.96546
-1.95829
-1.42977
-1.44674
-1.29422
-1.39408
-1.55994
-1.48572
-1.3472
-0.889866
-0.39608
-0.832594
-0.648942
-0.4209
-0.837888
-0.664678
-0.817713
-0.719747
-0.774738
-0.76005
-0.821219
-0.7398
-0.835244
-0.406781
-0.390141
-0.446701
-0.426403
-0.376994
-0.384159
-0.438576
-0.398973
-0.587151
-0.497262
-0.526186
-0.423109
-0.537305
-0.399902
-0.87344
-0.897395
-0.997363
-1.17249
-1.28377
-1.11987
-1.01371
-1.65021
-1.79329
-1.84118
-1.6272
-1.38696
-1.57555
-1.82329
0.141304
0.136968
0.166552
0.139609
0.118837
0.128275
0.153406
47.9471
57.8282
27.2939
80.7907
61.625
71.1043
52.2784
36.6842
57.9752
89.9394
80.9707
80.2636
71.4511
61.7583
26.21
47.0896
57.2534
67.1102
0.273783
0.299455
0.289431
0.309013
0.343089
0.268978
0.270694
0.0320893
0.0194658
-0.0130603
0.0566406
0.07587
0.042814
0.0384602
-0.641161
-0.650543
-0.631717
-0.655419
-0.556313
-0.683887
-0.609586
-0.389182
-0.493484
-0.375614
-0.440176
-0.580832
-0.552477
-0.444393
-0.570168
-0.55709
-0.54973
-0.531098
-0.545195
-0.545479
-0.558668
-0.780207
-0.762104
-0.782034
-0.779979
-0.798489
-0.810369
-0.791012
-0.778904
-0.751786
-0.769439
-0.953294
-0.93048
-0.931272
-0.928595
-0.906406
-0.91658
-0.939411
-0.866974
-0.832474
-0.827539
-0.910592
-0.88861
-0.867042
-0.876321
-1.17635
-1.12134
-1.21253
-1.23838
-1.27066
-1.16858
-1.21036
-1.59155
-1.51661
-1.50139
-1.67691
-1.64275
-1.57023
-1.58009
-2.37653
-2.43561
-2.42124
-2.46876
-2.40963
-2.45966
-2.3947
-2.48683
-2.53138
-2.51437
-2.54333
-2.49786
-2.53742
-2.49438
-2.89494
-2.88313
-2.90748
-2.89404
-2.90848
-2.93426
-2.88176
-2.90433
-2.90535
-2.84403
-2.87333
-2.88781
-2.91884
-2.89134
-2.88963
-2.86219
-2.93355
-2.90318
-2.90421
-2.90309
-2.87513
-2.87128
-2.83964
-2.88536
-2.89883
-2.92968
-2.89872
-2.87064
-2.89854
-2.54471
-2.51179
-2.50449
-2.46259
-2.4966
-2.48733
-2.52074
-2.01879
-1.99786
-2.03392
-2.04963
-2.07122
-2.02476
-2.04673
-2.0141
-1.99254
-1.99082
-2.01613
-1.99864
-1.9774
-1.9896
-2.00777
-1.99146
-1.98522
-1.96959
-1.96215
-2.3289
-2.31123
-2.38816
-2.46193
-2.46111
-2.37917
-2.40349
-1.25102
-1.16323
-1.25608
-1.44919
-0.99333
-0.980873
-1.28931
-0.414698
-0.34752
-0.369342
-0.33912
-0.37213
-0.340201
-0.385853
-0.00724074
-0.00615694
0.0189338
-0.0117121
-0.0318932
-0.019747
0.00311953
62.635
71.5575
89.9703
53.5831
70.7549
71.6893
-0.247197
-0.18731
-0.177167
-0.12419
-0.216597
-0.154203
-0.275488
-0.348958
-0.356374
-0.371056
-0.395637
-0.380106
-0.356491
-0.344655
-0.726545
-0.708332
-0.706981
-0.708644
-0.692689
-0.682564
-0.698041
-0.736744
-0.718271
-0.710142
-0.602057
-0.62248
-0.604299
-0.58442
-0.601479
-0.613176
-0.595531
-0.996634
-0.9769
-0.978972
-0.959046
-0.979945
-0.967466
-0.987803
-1.05201
-1.04268
-1.04635
-1.04023
-1.05502
-1.0426
-1.05384
-1.00523
-0.989881
-1.02479
-1.01147
-0.993784
-0.991786
-1.01774
-1.46631
-1.43518
-1.42709
-1.50753
-1.50645
-1.46876
-1.46563
-1.7475
-1.81704
-1.77252
-1.67822
-1.68251
-1.74264
-1.71606
-1.68054
-1.64507
-1.64765
-1.70764
-1.72431
-1.67828
-1.6921
-2.23929
-2.30684
-2.24103
-2.1866
-2.23854
-2.27771
-2.2181
-2.16166
-2.19629
-2.19788
-2.23768
-2.19603
-2.21925
-2.18018
-2.76791
-2.7924
-2.76169
-2.72869
-2.75966
-2.76791
-2.73627
-2.513
-2.50577
-2.47534
-2.52205
-2.55317
-2.53117
-2.50022
-2.24281
-2.27764
-2.27867
-2.31875
-2.28357
-2.30019
-2.26506
-2.13515
-2.15549
-2.13314
-2.13888
-2.12125
-2.13433
-2.15573
-2.16739
-2.13486
-2.16726
-2.13382
-2.10962
-2.1576
-2.13275
-1.9902
-1.99203
-1.97535
-1.97774
-1.99073
-1.97215
-1.992
-1.97387
-1.9981
-1.97901
-1.95598
-1.98393
-1.94701
-1.93711
-1.94865
-1.96821
-1.94352
-2.53855
-2.30598
-1.47758
-2.26903
-2.03776
-2.5295
-1.7469
-3.46473
-3.47753
-3.62332
-3.55051
-3.69413
-3.73654
-3.78603
-2.30897
-2.65808
-2.48442
-2.9908
-2.51719
-2.23749
-2.63923
-1.20829
-1.12289
-1.20517
-1.27061
-1.21049
-1.15436
-1.22696
-0.877733
-0.84064
-0.874613
-0.882134
-0.917265
-0.867075
-0.904229
-0.286894
-0.305902
-0.29341
-0.268047
-0.281033
-0.293697
-0.28136
-0.0711606
-0.0925237
-0.0749194
-0.0681715
-0.0482543
-0.0800219
-0.0613443
40.2569
57.4746
60.6497
82.8982
64.3738
70.6753
52.8917
82.6834
83.239
89.9925
63.1204
64.2926
81.1663
80.3985
62.3915
60.9037
79.3617
79.6908
91.6689
72.8534
61.2869
58.6611
49.7827
30.9247
66.9167
46.7848
5.48745
2.23076
3.8214
3.21776
2.31193
1.22536
4.29015
0.274291
0.267242
0.251366
0.268424
0.275019
0.275447
0.255769
-0.428846
-0.519184
-0.408565
-0.377165
-0.408507
-0.449645
-0.411867
-0.685389
-0.648132
-0.57511
-0.542851
-0.614558
-0.552487
-0.694097
0.23643
0.234915
0.230956
0.206942
0.229768
0.219519
0.236638
-0.346456
-0.354871
-0.35186
-0.361641
-0.39175
-0.364914
-0.360479
-0.570584
-0.546715
-0.552008
-0.530499
-0.553139
-0.535815
-0.559321
-0.745773
-0.725884
-0.727457
-0.706157
-0.7272
-0.714852
-0.734976
-0.692777
-0.710513
-0.714064
-0.731914
-0.714653
-0.719704
-0.702481
-1.08464
-1.09668
-1.08148
-1.07315
-1.06763
-1.08345
-1.07354
-1.38726
-1.41699
-1.42118
-1.36695
-1.36045
-1.39061
-1.39278
-2.27906
-2.28848
-2.31826
-2.27267
-2.24955
-2.27001
-2.29844
-2.72487
-2.75608
-2.75809
-2.79113
-2.7588
-2.77297
-2.7398
-2.09821
-2.11374
-2.1307
-2.11732
-2.09845
-1.27727
-1.2636
-1.23396
-1.19241
-1.21204
-1.2302
-1.24634
-0.956794
-0.970762
-0.93399
-1.00687
-0.98546
-0.981707
-0.960155
-0.010486
-0.036073
-0.0132711
0.0232591
-0.00113737
-0.0157352
0.007516
0.0788453
0.10217
0.0749483
0.0642301
0.0430996
0.0790601
0.0572189
60.0524
51.6338
70.204
-0.395236
-0.379583
-0.39857
-0.408906
-0.422981
-0.412853
-0.397038
-0.475056
-0.46248
-0.461417
-0.462221
-0.446945
-0.438979
-0.454586
-0.394397
-0.385717
-0.366654
-0.484998
-0.470022
-0.462351
-0.0033254
0.019016
0.0335697
0.0565264
0.0343266
-0.00335074
0.018036
0.035446
0.0151189
0.114657
0.0960394
0.11795
0.0968527
0.11541
0.129026
0.110112
0.114322
0.0863234
0.131353
0.117317
0.118095
0.0987943
0.08724
59.7717
63.0431
82.0868
55.5152
37.9043
50.3758
68.6358
78.7034
77.9623
91.4273
71.6833
59.278
59.3209
36.5736
55.3388
81.6355
63.1344
49.8806
68.3678
77.8988
77.8715
91.2024
72.3474
59.3192
0.685794
0.384898
0.535025
0.42507
0.308258
0.425463
0.548516
0.077515
0.0491105
0.0703178
0.107003
0.0844528
0.0650017
0.0897228
-0.339591
-0.375648
-0.311451
-0.243776
-0.280031
-0.303108
-0.30758
-0.411856
-0.435122
-0.511788
-0.594876
-0.4608
-0.520886
-0.438403
-0.67836
-0.734119
-0.714889
-0.613046
-0.661407
-0.803473
-0.663166
-0.682285
-0.648227
-0.640808
-0.504639
-0.658341
-0.493533
-0.604501
-0.66639
-0.64933
-0.647717
-0.629089
-0.646852
-0.639662
-0.6567
-1.39243
-1.39955
-1.37783
-1.36015
-1.35182
-1.37928
-1.37043
-2.50469
-2.51168
-2.54494
-2.49742
-2.46291
-2.48768
-2.52147
-2.76229
-2.73449
-2.76492
-2.76768
-2.79675
-2.74929
-2.77924
-2.81673
-2.77063
-2.73534
-2.76779
-2.79725
-2.55494
-2.5864
-2.54271
-2.49748
-2.54245
-2.5541
-2.58519
-2.52892
-0.947606
-0.973716
-0.981441
-0.996855
-0.964792
-0.955295
-0.988089
-0.668376
-0.671596
-0.649162
-0.696845
-0.677138
-0.683669
-0.663875
-0.446325
-0.463975
-0.461122
-0.484445
-0.468505
-0.458501
-0.473896
-0.12914
-0.131574
-0.16244
-0.12405
-0.0827152
-0.100422
-0.137201
-0.111933
-0.0870887
-0.120575
-0.136765
-0.157099
-0.114564
-0.13728
-0.0141181
0.0176459
-0.00701664
-0.0383824
-0.0143825
0.00542973
-0.020483
84.2861
66.029
60.1852
84.1076
65.9689
69.0935
50.8939
84.1766
83.8956
91.7427
65.7192
66.0099
73.6128
73.8709
73.0653
91.1587
73.0194
0.382659
0.286413
0.352102
0.357078
0.53993
0.356237
0.404302
0.513171
0.236117
0.197217
0.209973
0.274187
0.294372
0.2282
-0.140879
-0.104174
-0.128613
-0.164217
-0.143836
-0.120924
-0.144188
-0.145795
-0.158251
-0.176088
-0.0224962
-0.0447802
-0.0503718
0.0386199
0.0497323
0.0704447
-0.0825677
-0.0512529
-0.0231221
-0.0459048
-0.0672781
0.119292
0.138703
0.129402
2.53758
0.163108
-2.0487
20.6042
-6.62594
-3.45151
-2.50311
72.1473
62.4845
90.2061
54.0406
71.0398
71.2837
70.7335
70.9509
91.9383
82.6259
81.9598
61.937
60.7839
60.7784
49.1184
29.4522
68.4353
46.8853
60.6779
50.9614
69.4984
0.357215
0.350461
0.320535
0.365771
0.380748
0.358451
0.334528
0.253343
0.251
0.251313
0.253357
0.26045
0.264106
0.254728
0.0556595
0.0491114
0.0585731
-0.0424124
0.0211663
0.0337757
0.00505009
-0.330194
-0.384284
-0.501069
-0.340094
-0.307913
-0.306964
-0.348886
-0.397747
-0.381392
-0.371649
-0.351429
-0.363462
-0.36844
-0.392141
-0.808838
-0.816897
-0.794623
-0.839186
-0.825743
-0.823833
-0.810227
-1.37326
-1.35041
-1.3891
-1.39537
-1.3572
-1.35304
-1.3905
-1.64247
-1.69367
-1.66842
-1.62124
-1.57255
-1.63459
-1.6416
-1.52559
-1.60005
-1.60057
-1.65247
-1.60746
-1.62465
-1.56539
-1.95789
-1.96692
-1.92653
-2.01004
-1.98086
-1.98644
-1.95508
-2.39972
-2.41171
-2.44635
-2.38083
-2.34692
-2.37925
-2.40793
-2.76429
-2.76201
-2.78819
-2.76273
-2.7348
-2.74494
-2.77225
-2.89194
-2.87529
-2.90249
-2.89958
-2.92353
-2.89005
-2.88609
-2.85756
-2.89668
-2.93024
-2.91899
-2.88579
-2.88197
-2.85125
-2.88505
-2.87885
-2.85149
-2.84077
-2.88178
-2.83948
-2.8675
-2.89353
-2.93694
-2.9111
-2.90601
-142.373
-131.462
-123.877
-96.3398
-123.159
-140.635
-170.102
-122.874
-114.558
-3.42347
-2.7782
-3.41336
-0.333094
-5.73336
-2.47677
-4.10921
-3.28957
-3.07918
-3.01944
-3.02717
-2.83717
-161.026
-138.196
-145.122
-472.185
-492.488
-472.69
-468.558
-453.218
-454.325
-462.672
-475.038
-488.492
-484.939
-499.635
-477.288
-473.367
-463.173
-474.849
-485.028
-463.461
-475.256
-464.694
-492.936
-472.299
-472.355
-440.361
-463.694
-470.339
-453.582
-479.367
-502.696
-489.302
-492.627
-482.507
-477.217
-488.675
-478.789
-469.791
-482.167
-477.264
-469.677
82.6577
-12.5508
8.68989
-20.681
-16.878
-26.1378
-35.7865
-2.87064
-2.89497
-2.89752
-2.92765
-2.90449
-2.89487
-2.92042
-2.93014
-2.90435
34.4012
55.7618
57.5664
82.2444
64.5726
55.6685
74.2809
82.1923
63.6915
72.828
72.5147
90.4631
42.3774
52.8805
20.285
-2.89293
-2.85497
-2.88006
-2.93827
-2.91371
-2.91294
-0.48346
-0.49969
-0.505046
-0.732728
-0.699994
-0.725728
-0.845533
-0.836863
-0.823028
-0.865017
-0.501041
-0.521328
-0.505564
-1.83146
-1.82756
-1.86133
-0.73292
-0.725946
-0.700813
-2.71133
-3.0622
-2.99587
-0.491836
-0.478408
-0.507492
-0.494933
-2.13842
-2.09889
-2.10199
-1.8447
-1.83009
-1.81528
-1.80483
-0.383185
-0.396759
-0.384434
-0.399919
-0.748553
-0.766736
-0.726404
-0.747347
-0.122676
-0.138023
-0.0779922
-0.0967344
-0.0499831
-0.0677781
-0.0488099
-0.0537439
-0.0675113
-0.0773446
-0.766517
-0.748417
-0.747208
-0.726585
-0.394889
-0.393002
-0.388962
-0.382232
-0.388868
-0.384028
-0.379764
-0.368175
-0.369961
-0.370721
-0.117715
-0.135868
-0.0488832
-0.0542588
-0.0770454
-0.0667502
-0.833389
-0.809248
-0.867586
-0.870112
-0.803671
-0.924671
-0.898205
-0.888066
-1.84704
-1.77408
-1.85761
-1.79094
0.581827
0.510314
0.927346
0.387196
-2.69368
-2.67981
-2.64899
-1.90603
-1.93897
-1.9086
-1.94139
0.878274
4.28605
1.57812
2.8191
-0.328429
-0.305345
-0.326327
-0.285007
-2.6008
-2.57308
-2.56076
0.242069
0.278748
-0.373786
-0.386841
-0.38454
-0.399581
-0.0225548
-0.0279857
-0.0279485
-0.0225182
-2.38221
-2.40987
-2.9151
-2.88674
-2.87871
-2.86237
60.4256
40.5023
75.104
49.7763
-2.69537
-2.63889
-2.69276
-2.64076
0.0616597
0.113874
0.0633997
0.111518
-0.613287
-0.611508
-0.562325
-0.577479
-5.5552
-5.06133
-4.96551
-4.45067
-1.43111
-1.39367
0.231001
0.247117
0.237611
0.259697
-0.267228
-0.252568
-0.186536
-0.206313
0.02982
-0.0149247
0.0398295
0.0137692
-0.623898
-0.659737
-91.7913
-84.3722
-2.78936
-2.762
-2.8038
-2.76026
0.0679581
0.0477783
0.0679872
0.0456014
0.0265918
0.0593886
0.0171588
0.059899
-1.43829
-1.43145
-2.71467
-2.73203
-2.70663
-2.73579
-0.362799
-0.381318
-0.395606
-0.406616
-2.75263
-2.78381
-2.80747
-2.79007
0.0101865
-0.01044
-1.37319
-1.35054
-1.37769
-1.34404
1.56081
14.434
48.2456
10.1513
13.73
39.6671
51.0179
-0.159667
-0.135882
-0.153278
-0.118191
0.116127
0.1377
0.140328
47.8775
41.2696
3.31362
7.39752
31.7773
45.3905
-4.15633
-4.35994
-1.99059
-1.99299
-1.97261
-1.95542
-1.94566
-1.95912
-2.86251
-2.89337
-2.85438
-2.87649
-2.90034
-2.8672
-2.44036
-2.45449
-0.234595
-0.220082
-0.243602
-0.21845
-0.220093
-0.234734
-0.218278
-0.243608
0.205575
0.207185
0.201312
0.211306
-0.414617
-0.429926
-0.40076
-0.434869
-1.29131
-1.17482
-0.629913
-0.612429
-0.916533
-1.11269
-0.724291
-0.715414
-1.41891
-1.44794
-0.499455
-0.488692
-0.511554
-0.723332
-0.428927
-0.821458
-0.488693
-0.499451
-3.2303
-5.92346
34.7401
-54.7985
-0.459783
-0.449253
-0.470771
-0.452004
-0.359511
-0.379789
-0.299987
-0.326298
0.0786887
0.0574123
-1.95425
-1.98453
-1.93182
-1.97723
-1.75378
-1.76163
-171.832
-168.373
-132.295
-132.95
-1.77843
-1.75498
-1.71561
-1.69467
0.23001
0.240271
0.265708
0.2577
-5.30189
-2.95243
-4.79613
-5.27569
-1.07526
-1.06311
-0.83654
-0.713264
-1.48482
-1.42721
-1.51664
-1.40302
0.443374
0.410475
0.427888
0.339197
-1.96456
-1.96995
-1.92746
-1.91658
-2.21683
-2.19954
-2.38187
-1.80141
-2.70891
-2.69302
0.388798
0.491066
-381.086
-0.913789
-0.918129
-0.935317
-0.932779
-1.44351
-1.42142
-1.43931
-1.40685
-1.92382
-1.89178
-0.456527
-0.415485
-1.84109
-1.85721
-0.72999
-0.736074
-0.780363
-0.771434
0.113541
0.0823781
0.093163
0.123235
0.108489
0.19909
11.909
18.8692
42.416
-1.81556
-1.82135
-1.86879
-1.85887
-3.13945
-3.25522
-3.64418
-3.66452
-2.06618
-2.03604
-2.09033
-2.04762
-0.905637
-0.931997
-1.33982
-1.31948
-1.36959
-1.36829
-0.402113
-0.391494
-0.405898
-0.388359
-1.73422
-1.74596
-1.88472
-1.85194
-1.12846
-1.15038
-1.14073
-1.16953
0.237101
0.261943
-1.39268
-1.39226
-2.10152
-2.12193
-2.09847
-2.13229
-2.11717
-2.09577
0.00594014
-0.0122436
0.0056057
-0.0221961
-1.05231
-1.05905
-1.04289
-1.04759
-2.70848
-2.69789
-2.74451
-2.74267
-2.03602
-2.06617
-2.04736
-2.09032
-0.932377
-0.905698
-3.11835
-2.82844
-0.494366
-0.514166
-0.494009
-0.526361
-0.514505
-0.494691
-0.526594
-0.494711
-0.491109
-0.490336
-0.48392
-0.49256
-0.489806
-0.493723
-0.497235
-0.495076
-2.86237
-0.648187
-0.633618
-0.220626
-0.134964
-0.282807
-0.182703
-2.12193
-2.10246
-2.07556
-2.05855
-0.0122586
0.00586516
-0.0221464
0.00567693
0.188261
0.178254
0.14665
0.145982
-0.113772
-0.228993
-0.188458
-0.268425
0.335482
0.288826
0.31987
0.333981
-2.07047
-2.07501
-0.339066
-0.413213
14.659
16.0644
-1.99633
-1.92482
-2.11384
-2.04821
-1.78867
-1.78253
-1.85025
-1.85107
-0.826355
-0.827464
-0.758852
-0.79214
-66.7811
-75.5694
0.568682
0.468433
-3.84445
-3.70258
-9.66216
7.23163
-1.01951
-1.00668
-2.05892
-2.06282
-0.395478
-0.364289
-0.731831
-0.727127
-0.769495
-0.777785
-66.5247
-61.6347
-0.72721
-0.73181
-0.777622
-0.769324
-1.01664
-1.00955
-2.9424
-2.94529
-0.33983
-0.384767
0.231466
-2.52603
-2.77785
-1.91349
-1.92102
-0.758312
-0.672343
-0.756052
-0.66282
-1.7387
-1.25988
-1.10513
-1.08768
-1.09604
-1.06277
-1.99127
-1.93801
-2.00017
-1.91684
-2.11373
-2.09185
-1.93633
-1.98898
-1.91575
-1.99906
-2.84272
-2.82595
-2.82595
-2.84272
-1.05529
-1.06212
-1.06376
-1.07485
-1.00465
-1.13436
-0.896624
-0.907382
-0.894345
-0.91801
-1.74451
-1.74002
0.707295
1.59803
3.57944
3.59259
-0.331031
-0.379446
0.279879
0.344761
0.20989
0.435832
0.35762
0.283036
0.408697
0.222516
-0.0115918
0.025941
-1.2501
-1.26594
-1.03806
-1.03394
-1.03685
-1.02728
-0.79369
-0.809497
-0.778408
-0.801537
-0.393431
-0.538873
-5.3779
-4.97777
0.162179
0.188406
0.148931
0.180719
-0.464486
-0.452731
-0.683028
-0.702533
-0.654171
-0.759835
-0.327447
-0.354981
-0.283685
-0.302715
-0.79319
-0.777555
-0.617847
-0.787499
-0.515186
-0.723684
-1.55233
-1.52478
-1.59107
-1.56345
-0.487948
-0.473587
-0.498951
-0.478235
-2.50281
-2.52433
-2.23225
-2.26683
0.0261884
0.0100249
-0.0193061
-0.0269186
-2.23224
-2.26675
-0.708107
-0.715084
-0.679148
-0.672899
-0.777585
-0.79324
0.232043
0.22945
-0.802487
-0.807535
-0.783276
-0.78014
-1.88199
-1.98662
-45.8533
-37.9809
-71.991
-69.8639
-1.70714
0.0118541
0.01942
0.0195298
-1.19512
-1.17669
-1.95816
-1.90976
-1.84827
-1.83734
-0.263116
-0.250655
-0.269601
-0.240184
-0.790323
-0.802748
-0.770045
-0.773954
-0.920192
-0.943055
-2.37066
-2.33826
-0.949701
-0.952187
0.189658
0.221834
0.113745
0.133481
0.225069
0.190739
0.145174
0.11075
-2.37072
-2.33832
-2.05044
-2.05656
0.103576
0.110424
-2.6791
-2.67912
-2.69344
-0.43497
-0.437076
-0.391968
-0.370942
-0.464278
-0.379028
-0.511841
-0.504574
-0.348783
-0.321874
-0.340845
-0.324605
-3.43394
-2.68745
-2.86755
-5.57205
-402.332
-390.969
-0.547172
-0.494649
-0.702133
-0.706352
-0.766905
-0.76228
-0.733123
-0.737517
-1.07338
-1.08142
-3.04174
-3.07921
-0.969347
-0.977059
-0.9684
-0.983121
-0.979274
-0.970358
-0.970387
-0.979131
-0.943388
-0.929255
-0.141409
-0.155183
-0.43502
-0.43711
-2.27793
-2.30672
-2.27831
-2.30709
-331.923
-335.872
0.260526
0.253866
0.286423
0.248823
-3.03014
-3.07136
-1.97212
-1.97898
-0.387567
-0.396121
-0.383181
-0.394158
-2.72308
-2.96874
-0.945105
-0.844562
-0.974419
-0.907462
-1.77848
-1.76973
-0.0468647
-1.21873
-1.27951
-0.0467284
0.280218
0.300968
-0.681699
-0.700869
-0.692016
-0.717898
-1.95196
-1.9424
-2.4522
-2.43398
-2.45952
-2.42622
-1.97197
-1.97885
-1.93777
-1.92047
-376.397
2.03967
2.45656
1.83454
0.167396
0.148675
-2.18609
-2.09325
-1.01049
-1.02797
-2.32475
-2.33049
-1.63584
-1.6207
-1.69192
-2.32469
-2.33044
-3.78432