/*--------------------------------*- C++ -*----------------------------------*\
| =========                 |                                                 |
| \\      /  F ield         | OpenFOAM: The Open Source CFD Toolbox           |
|  \\    /   O peration     | Version:  v2012                                 |
|   \\  /    A nd           | Website:  www.openfoam.com                      |
|    \\/     M anipulation  |                                                 |
\*---------------------------------------------------------------------------*/
FoamFile
{
    version     2.0;
    format      ascii;
    class       volScalarField;
    location    "0.05";
    object      p_rgh;
}
// * * * * * * * * * * * * * * * * * * * * * * * * * * * * * * * * * * * * * //

dimensions      [1 -1 -2 0 0 0 0];


internalField   nonuniform List<scalar> 
24700
(
2829.63
2808.26
2871.01
2793.84
2795.72
2880.58
2850.02
2832.13
2779.03
2781.27
2801.83
2806.1
2794.63
2825.27
2817.69
2814.26
2811.38
2857.69
2848.52
2811.89
2893.01
2893.56
2820.55
2811.36
2916.01
2859.29
2864.88
2829.74
2863.55
0.00736014
0.00761954
0.00221516
0.0134171
0.0175686
0.00999062
0.0149221
0.187927
0.175336
0.172604
0.156124
0.16857
0.164069
0.17709
0.564262
0.561651
0.57258
0.567804
0.553559
0.5564
0.570357
0.444937
0.46213
0.370858
0.296205
0.410423
0.298717
0.404404
2.18057
5.00755
2.27202
18.3602
26.267
4.37797
8.13153
0.415103
0.43397
0.405842
0.391557
0.428151
0.432463
0.398582
-0.677119
-1.1444
-1.00526
-0.96937
-0.941867
-1.01979
-0.986432
1224.99
283.431
2739.04
1276.75
161.182
2332.22
2543.54
-0.333032
-0.421733
-0.328138
-0.161843
-0.328269
-0.303595
-0.232298
0.157205
0.173976
0.158855
0.16097
0.14156
0.166809
0.14858
0.274616
0.267979
0.276447
0.282162
0.273483
0.270629
0.279789
0.370355
0.364364
0.36475
0.360323
0.366579
0.363286
0.369515
0.0365811
0.0304245
0.0373285
0.0403613
0.0470669
0.0435762
0.0366705
0.036713
0.0330718
0.0260357
0.01034
0.00590735
0.0120822
0.0161338
0.0221899
0.0125509
0.0177261
0.0103285
0.00936824
0.00210526
0.00787806
0.0147992
0.0416627
0.0351438
0.0357884
0.0284235
0.0343874
0.0383777
0.0320979
0.168705
0.154061
0.169074
0.181496
0.167799
0.160279
0.17409
0.5726
0.561658
0.564268
0.553553
0.567814
0.556416
0.570373
0.471006
0.508681
0.513023
0.51599
0.547058
0.526529
0.489695
0.637167
0.629608
0.581245
0.653927
0.808065
0.708791
0.609437
0.675837
0.678371
0.71918
0.810122
0.712646
0.806203
0.807537
0.271366
0.287432
0.367638
0.366651
0.397656
0.369797
0.312188
0.385181
0.536831
0.375006
0.427046
0.457511
0.61989
0.43962
0.609732
0.597994
0.609964
0.612767
0.633463
0.610621
0.624965
0.544455
0.544517
0.539543
0.545248
0.549399
0.547405
0.542639
0.990332
1.01826
1.02635
1.00288
1.05633
1.04177
0.997466
0.682849
0.696096
0.701318
0.665482
0.657929
0.674308
0.680151
0.40673
0.390683
0.402295
0.374622
0.377518
0.388588
0.391865
0.320772
0.367518
0.33823
0.396335
0.309496
0.375768
0.315475
0.994265
0.850261
0.808522
0.956133
0.931161
0.788127
0.962238
0.426635
0.41219
0.418894
0.453556
0.453935
0.44005
0.437472
0.741661
0.748067
0.719598
0.761364
0.746775
0.830519
99.9808
99.4716
100.165
99.6821
100.384
100.022
13.5737
10.3471
8.15779
6.27622
6.30543
3.93063
7.1014
1.27096
0.663635
2.21425
2.92547
4.42479
1.49827
2.12599
0.519415
0.518499
0.505997
0.502715
0.513459
0.50366
0.5124
0.604673
0.673473
0.63817
0.59454
0.665628
0.684731
0.59524
0.557854
0.521764
0.524591
0.514278
0.514958
0.510224
0.531974
0.265616
0.394202
0.342284
0.22575
0.178361
0.293244
0.289614
0.912071
0.912713
0.958702
1.03556
1.10248
1.11243
0.90279
0.550641
0.549894
0.551738
0.552776
0.550025
0.550683
0.552881
0.630672
0.638878
0.636146
0.641886
0.632518
0.64111
0.631614
0.595602
0.584064
0.602443
0.606377
0.621558
0.594949
0.608821
0.202186
0.210382
0.212697
0.220545
0.213217
0.214161
0.206592
0.206248
0.198773
0.204914
0.208076
0.214033
0.203473
0.209522
0.178843
0.180377
0.17187
0.181538
0.187633
0.176293
0.182604
0.11442
0.108662
0.107663
0.0993887
0.105855
0.102871
0.109438
0.0812705
0.0744561
0.0833618
0.0838382
0.0899378
0.077561
0.0838807
0.0590431
0.0604645
0.0525541
0.0695609
0.0625975
0.0587088
0.0646267
0.0597654
0.0587683
0.0657893
0.0568507
0.0503012
0.0544251
0.0604716
0.0352346
0.041693
0.0358326
0.0344148
0.0284387
0.0383734
0.0321004
0.0705339
0.0759648
0.0684911
0.0641818
0.0717949
0.0739063
0.0661003
0.158695
0.173974
0.157114
0.141478
0.160476
0.166663
0.148437
0.212527
0.21672
0.236474
0.213213
0.18693
0.20104
0.226886
1.30486
1.25993
1.25646
1.37087
1.34713
1.29709
1.30568
0.3673
0.408183
0.391725
0.363736
0.418335
0.407279
0.359774
1.10847
1.14105
1.51939
1.65462
1.56199
1.77743
1.48303
0.497758
0.500403
0.499968
0.500693
0.499829
0.502564
0.499432
0.521307
0.509182
0.507029
0.50911
0.50871
0.523306
0.514061
0.514625
0.526468
0.515409
0.508847
0.51148
0.538902
0.536006
0.541589
0.564429
0.530401
0.535403
0.554157
0.542872
0.562676
0.543629
0.533836
0.536535
1.91774
1.288
2.05697
4.05022
2.30415
2.49866
2.63912
0.567054
0.553432
0.541049
0.547476
0.819615
0.625415
0.488634
0.330053
0.328959
0.280471
0.349877
0.365338
0.349765
0.32247
0.44438
0.431394
0.429847
0.456814
0.455449
0.444743
0.443742
0.602576
0.608568
0.607225
0.595489
0.597992
0.602693
0.600743
0.489848
0.476874
0.481157
0.47369
0.484845
0.474538
0.488399
0.292396
0.283899
0.289528
0.303213
0.297631
0.291271
0.297784
0.246237
0.251612
0.252906
0.259615
0.254597
0.255838
0.250614
0.220341
0.226045
0.22659
0.235579
0.229739
0.2256
0.23078
0.131421
0.132136
0.125821
0.138141
0.133079
0.1346
0.129245
0.00450716
0.00887394
0.00641848
0.00886378
0.00283479
0.00824033
0.00359003
-0.00759514
-0.00122335
-0.00705913
-0.00522143
-0.0154251
-0.00360644
-0.0118863
0.711243
0.698012
0.682818
0.714384
0.735836
0.716658
0.698612
0.838591
1.43185
1.2669
1.36039
1.52951
1.33156
1.51029
0.15497
0.170006
0.317768
0.210709
0.55431
0.147018
0.275998
0.442574
0.393882
0.407695
0.406921
0.375015
0.382602
0.422053
0.499538
0.498646
0.499224
0.498811
0.497051
0.498969
0.500588
0.483781
0.48243
0.476748
0.468843
0.469725
0.476565
0.477401
0.966253
0.619646
0.770857
1.48925
1.06119
0.636467
0.833151
26.2324
40.4804
20.3686
3.91157
10.2957
20.5133
15.4261
0.511579
0.546248
0.500682
0.529688
0.550905
0.582533
0.519613
0.483814
0.489801
0.485787
0.487773
0.482157
0.488655
0.482605
0.530318
0.52967
0.532774
0.525901
0.529502
0.528101
0.5311
0.5742
0.575337
0.57299
0.571213
0.570637
0.573053
0.571978
0.463376
0.465803
0.459002
0.452905
0.454156
0.460254
0.458408
0.320969
0.325042
0.329303
0.334934
0.332555
0.329062
0.325553
0.290457
0.295465
0.290308
0.281871
0.287835
0.289696
0.284613
0.29051
0.289074
0.282696
0.298701
0.292822
0.248635
0.243239
0.249558
0.254891
0.249185
0.246101
0.252415
0.249788
0.240511
0.249839
0.255164
0.243321
0.217544
0.223106
0.225696
0.222852
0.217324
-0.0384173
-0.0394427
-0.0490725
-0.0346875
-0.0291429
-0.033687
-0.0418399
-0.974262
-0.776069
-0.731019
-0.564484
0.207839
-0.574235
0.0643863
0.566169
0.595136
0.541851
0.517264
0.596384
0.58791
0.529456
0.515594
0.482078
0.52196
0.47058
0.456487
0.49078
0.497869
0.287235
0.265494
0.294039
0.251496
0.235501
0.277458
0.266276
0.0263834
0.0761613
0.045385
0.116022
0.0992277
0.0832724
0.0643229
-1.16499
-1.26713
-0.404141
-1.01643
-1.35599
-1.38671
-0.548021
0.342078
0.471834
0.360121
0.411456
-0.17031
0.384619
-0.0690013
0.404825
0.40975
0.419415
0.405896
0.396888
0.406405
0.4149
0.405918
0.392178
0.41754
0.409475
0.402502
0.431592
0.414876
0.444257
0.459711
0.464338
0.450903
0.446242
0.201606
0.297683
0.13207
-0.00820321
0.0890758
0.129118
0.10946
0.555596
0.580506
0.56581
0.561111
0.554565
0.568379
0.551843
23.09
1.18286
10.806
21.4419
53.8916
17.7477
36.9494
0.444161
0.44865
0.450533
0.453164
0.454789
0.451736
0.449955
0.473411
0.466702
0.471121
0.471039
0.472807
0.468467
0.47293
0.491273
0.488452
0.492052
0.494273
0.490255
0.489025
0.493382
0.551363
0.552787
0.549455
0.548631
0.545678
0.551047
0.548753
0.518924
0.52306
0.519093
0.514517
0.518705
0.520915
0.516528
0.345832
0.34974
0.345791
0.338772
0.343801
0.345196
0.340991
0.345869
0.34455
0.339359
0.352404
0.34771
0.252925
0.251634
0.246305
0.254576
0.259625
0.25585
0.250633
0.21007
0.218753
0.211084
0.202186
0.209938
0.214793
0.207143
0.151558
0.161101
0.15411
0.143057
0.149963
0.156547
0.148989
-0.00586453
-0.00485599
-0.00192388
-0.00834454
-0.00657813
-0.00771263
-0.00510656
-0.0138569
-0.0139781
-0.0126013
-0.00376321
-0.00814167
-0.0159332
-0.0018678
-0.0126607
-0.0132646
100.573
153.003
104.695
317.697
234.144
263
161.176
0.160499
-0.271751
-0.315856
-0.256165
-0.144416
-0.326615
0.155555
0.227676
0.224617
0.258069
0.231759
0.188316
0.202595
0.242224
0.407788
0.411188
0.415187
0.418226
0.403317
0.417495
0.405476
0.335891
0.304263
0.334858
0.349273
0.3584
0.324529
0.345759
-0.0732366
0.0857671
-0.0104041
-0.423304
0.0824718
0.374429
-0.493394
-1.64335
-1.66304
-1.70479
-1.6993
-1.6249
-1.68895
-1.6219
0.217872
0.0727803
0.087779
-0.0124793
0.110242
0.0408299
0.166241
0.235936
0.250012
0.222694
0.207351
0.192462
0.226489
0.212948
19.9121
20.7735
49.9773
14.385
0.73523
15.3771
33.4827
90.877
90.2847
90.6847
91.3762
91.5109
91.5966
91.0189
89.8065
89.9848
90.3383
90.507
89.6184
90.6223
90.555
90.2319
91.0507
90.0311
0.472013
0.472022
0.47489
0.473985
0.463279
0.46782
0.475624
0.487871
0.485224
0.485426
0.48456
0.484468
0.484918
0.486012
0.480831
0.480268
0.480165
0.480939
0.479378
0.480132
0.480533
0.479666
0.478128
0.479044
0.475971
0.477694
0.478648
0.47778
0.456108
0.458963
0.454012
0.453182
0.457889
0.458193
0.453414
0.359019
0.362761
0.363167
0.362693
0.366417
0.368847
0.365156
0.362749
0.35624
0.360556
0.20402
0.211988
0.212071
0.221703
0.213216
0.217402
0.209251
-0.020507
-0.0518393
-0.0380929
-0.00796989
-0.017495
-0.0176164
-0.027675
-0.0417594
-0.0295343
-0.00218629
-0.0138749
-0.0106492
-0.0123143
-0.0172175
-0.0243663
-0.0404472
-0.0218794
-0.0231038
-0.0232421
-0.143421
-0.0797056
-0.0846041
-0.120147
-0.127313
-0.0923919
-0.15541
-0.131573
-0.124958
-0.172239
-0.159369
0.0802803
0.10607
0.0975826
0.114042
0.087182
0.107811
0.0832678
0.416615
0.427093
0.417649
0.410711
0.409802
0.418278
0.412125
0.683067
0.750936
1.05276
0.952119
0.507699
0.544321
-0.572464
-0.173082
-0.119082
-0.167683
-0.163713
-0.201472
-0.142835
-0.191848
0.410885
0.438194
0.410154
0.413934
0.392093
0.425183
0.407059
0.596897
0.575793
0.658518
0.639626
0.616071
0.629243
0.681795
0.816055
0.74166
0.755344
0.657614
1.08091
0.680402
0.906031
0.504024
0.533837
0.505265
0.50454
0.512416
0.531747
0.519287
89.5774
88.6813
89.8822
92.4335
92.1619
91.0012
92.5203
92.8072
92.8037
92.5161
87.8126
92.1789
91.5677
91.5791
92.8516
0.44084
0.432149
0.432944
0.421431
0.437199
0.425845
0.438025
0.398985
0.408351
0.368562
0.388547
0.418436
0.413344
0.371788
0.477514
0.46936
0.460489
0.476343
0.466617
0.478106
0.464844
0.480425
0.478231
0.477423
0.474472
0.475776
0.47608
0.477823
0.477573
0.475255
0.478538
0.47877
0.481747
0.47675
0.479274
0.450722
0.450553
0.452962
0.455225
0.456115
0.453236
0.453814
0.423812
0.419787
0.422046
0.420378
0.424831
0.420086
0.42449
0.391175
0.394097
0.395302
0.399456
0.396977
0.39702
0.394395
0.39279
0.388962
0.392052
0.396993
0.394217
0.392025
0.394834
0.410202
0.407958
0.411796
0.413825
0.415746
0.411225
0.413145
0.456105
0.457864
0.453191
0.454011
0.458961
0.458186
0.453413
0.45298
0.454203
0.45909
0.465959
0.463367
0.460235
0.458441
0.322333
0.173383
0.338071
0.404662
0.316812
0.242969
0.36653
4.67754
18.3423
11.3617
5.43522
5.25479
11.826
6.2757
-0.0114748
-0.0232381
-0.0319832
-0.0278447
-0.0148031
-0.0420799
-0.0315669
-0.0126736
-0.00314351
-0.0179979
0.0216339
0.0268515
0.0212435
0.0367101
0.0357735
0.0296107
0.0291592
0.649854
0.643517
0.70977
0.644782
0.617877
0.631735
0.674046
-0.201812
-0.164117
-0.168855
-0.119195
-0.17371
-0.142413
-0.192202
0.414534
0.45797
0.4128
0.397498
0.378081
0.420698
0.397323
0.427899
0.688325
0.487721
0.465497
0.641232
0.686256
0.589688
0.46268
0.463135
0.457211
0.463778
0.471132
0.467667
0.460345
0.420264
0.423131
0.40787
0.440892
0.421086
0.433764
0.415497
0.393215
0.272781
0.335069
0.614764
0.402974
0.671785
0.440337
0.420769
0.422668
0.418836
0.42428
0.425705
0.42111
0.422915
0.441592
0.4449
0.44346
0.445384
0.442144
0.444927
0.442006
1.12773
2.16411
0.0513881
0.0598162
0.171571
1.27032
0.581518
-0.241308
-0.326006
-0.346205
-0.365733
0.209252
-0.354551
0.0250222
0.00565848
0.00526928
0.00155519
0.0124019
0.0134138
0.0101081
0.0117916
0.0940139
0.106307
0.10006
0.0808663
0.0880497
0.0971758
0.0897033
0.299845
0.276863
0.289389
0.256906
0.262979
0.277365
0.279549
0.029689
0.060562
0.0602562
0.0956979
0.0736003
0.0572739
0.0828348
0.0865801
0.0632969
0.214149
0.128838
-0.00105714
0.0362619
0.166032
0.929402
1.13437
0.792598
0.909084
1.17154
1.06089
1.44454
0.319254
0.399102
0.365686
0.382299
0.339637
0.389757
0.312913
0.513215
0.508715
0.471301
0.516243
0.547251
0.528029
0.492061
0.427494
0.261558
0.351479
0.35035
0.42877
0.334546
0.439478
0.0851123
0.0582374
-0.0258259
0.0502748
-0.0941077
-0.06051
0.163916
-0.559169
-0.940497
-0.752493
-0.56735
-0.56261
-0.789209
-0.921596
0.472351
0.463827
0.475212
0.474593
0.472215
0.468301
0.475397
94.235
95.2055
90.4587
95.2421
94.4702
94.7537
94.3217
92.2153
95.3848
94.5379
94.7663
94.0592
94.4393
93.9465
90.4577
92.7047
94.0306
94.6924
0.484592
0.489063
0.574608
0.536095
0.525973
0.472452
0.488455
0.592449
0.503546
0.586562
0.763919
0.57429
0.520391
0.772199
0.0939199
0.122018
0.0984223
0.112604
0.15461
0.101891
0.0741122
0.385359
0.349026
0.424426
0.335985
0.181095
0.243073
0.336813
0.446145
0.440828
0.443884
0.441779
0.446075
0.4409
0.446105
0.433195
0.432904
0.433208
0.433422
0.433307
0.432463
0.433427
0.433271
0.432798
0.433539
0.502727
0.507147
0.502999
0.499449
0.503244
0.505624
0.501187
1.30388
1.34427
1.36824
1.25584
1.25941
1.29605
1.30529
1.04368
1.11714
1.03062
1.02211
0.971386
1.07797
1.01775
0.725562
0.775306
0.809137
0.661831
0.677535
0.73403
0.74265
0.139885
0.0992223
0.117
0.0902663
0.130996
0.086742
0.133299
0.105825
0.0796784
0.0975371
0.0873858
0.114459
0.0832498
0.107896
0.0131214
0.0157319
0.00977443
0.0152478
0.00999978
0.00261026
0.0183274
0.0141512
0.0131283
0.0334441
0.0225344
0.0173595
0.00776678
0.0168854
0.0184761
0.0275243
0.00330248
0.0151618
0.0141333
0.0153723
0.0248214
0.0263958
0.0396424
0.0215181
0.0172408
0.00477677
0.0173467
0.0270362
0.0175291
0.164471
0.179007
0.181018
0.199277
0.183657
0.189016
0.173993
0.36914
0.371677
0.35737
0.345443
0.342252
0.357763
0.354187
0.258739
0.261914
0.254431
0.256717
0.25581
0.247672
0.253861
0.254093
0.25201
0.00869407
0.0427162
0.059357
-0.430785
-0.432242
-0.511653
-0.607603
-0.583095
-0.514963
-0.519905
0.790839
0.883864
0.760814
0.558659
0.692841
0.866995
0.741736
0.279848
0.328628
0.329592
0.363935
0.34932
0.349266
0.322018
0.471118
0.466705
0.473402
0.472798
0.471011
0.468464
0.472936
96.3576
96.083
96.1017
96.4858
95.2805
96.2121
0.347193
0.368763
0.385938
0.410324
0.343524
0.390967
0.307016
0.355427
0.366635
0.329385
0.342412
0.311686
0.359188
0.348125
0.432901
0.43272
0.432231
0.432408
0.429969
0.429057
0.431974
0.433125
0.433204
0.432136
0.465151
0.467991
0.467779
0.461588
0.462924
0.465294
0.464545
0.60722
0.608559
0.602569
0.597994
0.595489
0.60269
0.600747
0.772887
0.763827
0.756741
0.743756
0.747362
0.753996
0.761148
1.01828
1.05621
1.00291
0.990271
1.02635
1.04173
0.997385
0.704806
0.709734
0.736221
0.693308
0.67599
0.696676
0.718204
0.569813
0.5217
0.547818
0.615427
0.629532
0.581626
0.589802
0.563607
0.578834
0.59465
0.538628
0.540356
0.556929
0.561513
0.226066
0.183295
0.230708
0.257105
0.223556
0.199964
0.241174
0.281853
0.265613
0.266782
0.24719
0.270452
0.253664
0.274337
0.0630566
0.0542524
0.0665737
0.0764447
0.0638609
0.062105
0.0753604
0.172748
0.176234
0.188272
0.168896
0.156174
0.165237
0.177785
0.274135
0.257703
0.26015
0.244689
0.261481
0.250574
0.26732
0.25813
0.256185
0.258939
0.262396
0.261629
0.258958
0.255944
0.252616
0.25756
0.252749
0.25706
0.262872
0.251678
0.258135
0.250545
0.250251
0.247003
0.244616
0.250011
0.242794
0.250539
0.241075
0.253633
0.254329
0.0675137
0.0188801
0.0741895
0.107971
0.0780344
0.0469832
0.0900688
-0.22902
-0.0211682
0.829181
0.389469
0.275745
0.22405
0.550044
-0.723748
-1.0137
-0.918719
-1.32129
-0.995654
-0.836599
-1.60951
-0.442536
-0.923018
-0.477851
-1.24485
-0.794756
-0.349603
-0.768688
0.225832
0.288469
0.22452
0.18224
0.223754
0.266305
0.211986
0.408183
0.426882
0.413937
0.414792
0.398054
0.41802
0.39926
0.485763
0.489778
0.483875
0.482186
0.487595
0.488757
0.4827
0.480538
0.480969
0.480179
0.47936
0.480883
0.480107
0.48039
98.1248
96.9401
97.2343
96.9723
96.842
96.8399
97.4505
95.0338
95.5893
94.9852
93.8638
95.0371
95.3559
94.5882
94.9697
93.4747
96.533
96.8605
96.7496
96.3284
96.8523
95.4312
95.6852
94.263
94.498
92.6104
51.7397
16.7183
19.3254
12.4729
11.0068
10.3525
20.106
0.53524
0.534572
0.540198
0.6062
0.534514
0.538145
0.552726
0.252942
0.213444
0.420821
0.281707
0.238542
0.271976
0.281989
0.0816729
0.0642837
0.202145
0.165627
0.0780053
0.188223
0.0436787
0.476492
0.48865
0.490461
0.490228
0.495455
0.489149
0.49086
0.357786
0.344401
0.370791
0.315939
0.305498
0.345571
0.331081
0.516426
0.5219
0.514006
0.509416
0.50517
0.515899
0.510787
0.56098
0.562475
0.559732
0.55902
0.556371
0.560693
0.558964
0.570533
0.571191
0.572949
0.575303
0.57417
0.573007
0.571836
0.813348
0.782913
0.794822
0.782002
0.805913
0.784189
0.812494
0.70996
0.709216
0.686631
0.702922
0.727812
0.717444
0.696877
0.259754
0.25352
0.242129
0.265603
0.270328
0.262245
0.252199
0.0866797
0.0738625
0.0743747
0.0612141
0.0751502
0.0676456
0.0824238
0.263882
0.266746
0.258979
0.263166
0.263643
0.254523
0.249799
0.274711
0.295187
0.293949
0.271324
0.273583
0.402035
0.390381
0.406446
0.374821
0.377835
0.388472
0.391629
0.466895
0.463388
0.467796
0.473349
0.467347
0.465632
0.470489
0.48085
0.485781
0.480596
0.479376
0.476639
0.481365
0.477918
95.0015
95.7796
95.9558
0.376706
0.373965
0.375212
0.374073
0.378392
0.377484
0.374904
0.390083
0.384266
0.383488
0.384525
0.381406
0.378336
0.381123
0.376319
0.375802
0.37647
0.390565
0.387147
0.385621
0.43633
0.440277
0.441235
0.443958
0.440152
0.436305
0.439297
0.441272
0.439339
0.449081
0.448857
0.450009
0.449671
0.449834
0.451887
0.451368
0.447783
0.447375
0.44458
0.448938
0.449716
0.448809
0.448292
96.647
96.0511
96.7006
96.7786
97.5619
96.9688
96.8349
97.6144
96.8774
96.7572
95.4073
96.5798
96.1962
96.1861
96.6022
96.2494
96.1424
96.4719
96.5669
96.814
96.7838
96.5323
96.0715
96.6284
2.8145
1.02405
1.16887
1.2663
1.49858
1.53258
2.91161
0.482239
0.476554
0.479282
0.489271
0.485115
0.479171
0.485417
0.306804
0.252219
0.31355
0.357308
0.339447
0.309951
0.323893
0.333587
0.333263
0.20206
0.102099
0.247896
0.226104
0.290981
-0.0601441
-0.0901454
-0.0606246
0.155577
0.047928
-0.0894752
0.0859279
0.271587
0.525833
0.545023
0.727193
0.509077
0.583097
0.296693
0.568016
0.566682
0.566374
0.565125
0.565757
0.56567
0.567026
0.577513
0.552
0.571255
0.563835
0.590554
0.556368
0.583609
0.180817
0.179112
0.164245
0.182839
0.198958
0.188661
0.173269
0.0680378
0.0774445
0.0675637
0.0659712
0.0552961
0.0730084
0.0614583
0.0446787
0.0631861
0.077933
0.0638689
0.0528079
0.140567
0.127496
0.142903
0.16055
0.143168
0.141406
0.128709
0.148187
0.465731
0.460879
0.45029
0.458085
0.471754
0.469188
0.454788
0.544273
0.54282
0.545093
0.540128
0.541441
0.542339
0.543739
0.525903
0.529672
0.5295
0.532774
0.53032
0.528101
0.5311
0.421628
0.418839
0.406745
0.417496
0.440435
0.432281
0.413913
0.438261
0.444711
0.43209
0.423406
0.421467
0.433939
0.429617
0.463238
0.470313
0.464045
0.458301
0.463907
0.468228
0.460709
94.7095
94.8465
94.5209
94.531
94.7852
94.2309
94.4005
95.8262
95.5453
96.0346
95.7588
96.0534
96.2977
96.5389
95.1383
94.8376
95.0924
0.643432
0.541873
0.612208
1.30395
2.20165
0.836008
0.948794
2.25778
0.527366
1.24642
1.39266
0.93261
0.754811
0.715626
0.409721
0.418834
0.412789
0.406616
0.408602
0.413121
0.408251
0.40787
0.40461
0.405168
0.433293
0.429403
0.42861
0.441452
0.443368
0.445686
0.424005
0.427729
0.432667
0.428279
0.4253
0.448551
0.440413
0.449781
46.1643
2.6921
8.00107
105.395
34.3743
8.29824
50.353
96.6643
96.2058
96.3371
96.8765
95.5081
95.8028
96.9303
97.1424
97.0588
97.3902
96.7247
97.7703
96.6007
97.9898
98.0339
96.8789
96.4736
95.9175
95.6264
95.0809
95.2502
0.550672
0.684306
0.534383
0.553974
0.562103
0.586986
0.535737
0.513563
0.509858
0.594496
0.53671
0.527769
0.522661
0.536289
0.5332
0.530318
0.525588
0.462447
0.50464
0.509174
0.496375
0.340799
0.282644
0.190409
0.303917
0.386805
0.406477
0.364533
0.379257
0.412484
0.401149
0.419046
0.388752
0.41402
0.372503
0.549431
0.544408
0.545252
0.544345
0.539394
0.547466
0.542677
0.356143
0.383226
0.362937
0.33187
0.35164
0.369241
0.350172
0.454227
0.379822
0.423443
0.497276
0.527648
0.451574
0.462882
0.695937
0.639868
0.643594
0.614885
0.641507
0.629255
0.670125
0.431928
0.424515
0.4449
0.402737
0.41353
0.415522
0.428485
0.211834
0.209739
0.193497
0.218559
0.234083
0.220838
0.21055
0.0676355
0.0677852
0.0599994
0.0670476
0.0765862
0.0735133
0.0645878
0.0161153
0.0235704
0.0147648
0.0139968
0.00844036
0.0180073
0.0201834
0.0303239
0.0168983
0.00172922
0.00567984
0.0204866
0.0209252
0.03325
0.0193808
0.0240391
0.0330152
0.0363228
0.0229061
0.0376115
0.027983
0.0203459
0.00238157
0.00982699
0.0149139
2858.87
2839.79
2845.62
2852.91
2845.83
2842.04
2781.51
2833.94
2865.47
-0.460038
0.158436
-0.493354
134.247
39.294
0.491562
-0.870342
5.47299
-0.132455
-0.083082
-0.107053
1.01226
2810.86
2874.82
2848.18
2820.95
2820.23
2821.71
2824.58
2820.35
2810.72
2821.95
2800.12
2806.24
2811.75
2815.39
2818.16
2821.39
2851.16
2820.6
2830
2801.46
2819.01
2819.81
2819.78
2820.84
2822.05
2824.68
2820.92
2822.8
2819.98
2816.08
2812.33
2807.41
2802.12
2792.67
2818.23
2826.35
2815.97
2844.54
2812.1
2787.65
2814.83
1713.53
465.801
2810.9
2870.04
2857.14
2695.75
2714.74
0.0171842
0.0112403
0.0105376
0.00431514
0.00907716
0.0113459
0.0041872
0.00182919
0.00922491
89.578
92.5494
92.5152
93.2806
94.001
92.4498
92.6742
93.2282
93.0916
94.8014
94.5805
94.1411
89.9917
91.4991
86.4267
0.0114487
0.0218184
0.0151165
0.00105537
0.00722046
0.00798508
0.563012
0.565176
0.563553
0.483301
0.496061
0.488721
0.444882
0.435733
0.440124
0.425597
0.563791
0.563632
0.561002
0.411112
0.418571
0.4032
0.48311
0.488503
0.495241
0.772438
1.51818
1.44275
0.561801
0.564297
0.564539
0.566167
0.345958
0.365065
0.363989
0.405692
0.407548
0.416716
0.414415
0.389139
0.391848
0.390832
0.396768
0.477993
0.47059
0.481748
0.471584
0.417845
0.412081
0.44211
0.435414
0.451413
0.44562
0.452252
0.452469
0.445477
0.442426
0.470808
0.478129
0.471723
0.481567
0.382455
0.369209
0.41021
0.400256
0.410302
0.400819
0.39303
0.389258
0.399539
0.380813
0.42291
0.414471
0.452179
0.451965
0.442726
0.446316
0.453104
0.467787
0.445898
0.434392
0.491396
0.412646
0.420517
0.441472
0.488936
0.541096
0.474947
0.520812
4.69638
2.45998
5.68388
1.68862
0.0861406
0.0932651
0.103939
0.261874
0.253072
0.260051
0.251396
8.8219
46.2081
7.37197
16.0956
0.257341
0.261378
0.282009
0.331952
0.0844493
0.0907898
0.0943788
0.520917
0.592289
0.422314
0.431413
0.41766
0.424773
0.48131
0.480836
0.480873
0.481347
0.217695
0.209126
0.00679713
0.0138368
0.0156009
0.0198169
92.9585
91.1211
94.6577
96.8198
0.0898305
0.111677
0.092432
0.109807
0.487273
0.517382
0.497655
0.517587
0.413761
0.411749
0.429688
0.41994
2.11865
0.355108
1.51774
-0.00503157
0.752122
0.769046
0.494971
0.489424
0.495586
0.487288
0.493325
0.392898
0.723757
0.513491
0.51551
0.486664
0.497893
0.508773
0.388659
0.373581
2851.83
2859.39
0.052863
0.0619446
0.0488815
0.0649476
0.837809
0.815495
0.772477
0.759857
0.816592
0.834028
0.734797
0.77004
0.670273
0.657335
0.0356817
0.033211
0.0344313
0.0293624
0.45006
0.441882
0.450951
0.441078
0.0698856
0.0569828
0.0506288
0.056683
0.471984
0.469451
0.362186
0.36645
0.360553
0.366614
40.039
97.1431
93.3184
80.9313
90.2124
94.4617
96.6599
0.405413
0.410803
0.407745
0.41524
0.453618
0.456943
0.455777
96.7506
96.4298
59.8534
54.4774
86.7532
88.6912
-0.21187
1.71419
-0.0150397
-0.0174371
0.0415343
0.115063
0.124824
0.082621
0.0305251
0.0180598
0.0334435
0.0157496
0.0102936
0.0206309
0.123628
0.120197
0.467132
0.463379
0.458591
0.456281
0.463368
0.466992
0.456453
0.458585
0.483418
0.462639
0.459085
0.465446
0.573931
0.576573
0.588568
0.5816
0.746328
0.9202
0.386448
0.400121
1.18141
0.953162
0.0691499
0.0221917
0.671266
0.660388
0.535093
0.533634
0.405214
0.217094
0.395997
0.0282668
0.533633
0.535097
10.6161
12.3255
2465.49
2670.72
0.535593
0.532254
0.539354
0.535055
0.522598
0.507789
0.549929
0.520661
0.480636
0.478054
0.275229
0.262871
0.287249
0.268967
0.532498
0.52099
2847.76
2851.2
2858.28
2842.03
0.501543
0.519257
0.527879
0.552282
0.470539
0.455465
0.462857
0.487831
-2.44111
-0.0856037
-1.95579
-2.43739
0.253549
0.26326
0.0500301
0.222043
0.0264823
0.0669702
-0.00554983
0.0817263
2.48531
1.76864
1.61714
1.17772
0.380529
0.381433
0.391837
0.399812
0.179304
0.183402
55.2101
16.9476
0.0567761
0.0608551
0.803039
0.866256
2825.54
0.635489
0.639743
0.648144
0.650079
0.361405
0.366033
0.364666
0.370461
0.443428
0.463326
0.608461
0.629351
0.40268
0.399314
0.520232
0.519693
0.505748
0.511025
0.516025
0.506015
0.56211
0.796843
0.614297
1.32617
61.9886
90.2367
92.984
0.32169
0.322386
0.302735
0.309943
-1.24368
-1.05427
-1.81096
-1.64589
0.339201
0.351707
0.32606
0.341936
0.417153
0.402141
0.757494
0.787565
0.721332
0.73627
0.528724
0.522284
0.536523
0.527805
0.29537
0.272326
-0.0158591
0.0275644
0.52384
0.519933
0.511649
0.510069
0.618265
0.511494
0.645575
0.633387
0.213084
0.207225
0.214259
0.20417
0.208758
0.215609
0.480401
0.480121
0.481601
0.480899
0.77977
0.778819
0.762448
0.75434
0.0178403
0.0237573
0.00930723
0.0156732
0.35173
0.339214
0.342201
0.32607
0.401761
0.417091
-1.34752
-1.04962
0.558236
0.555963
0.548672
0.543039
0.555624
0.55791
0.542806
0.547965
0.4308
0.441276
0.417318
0.4315
0.433206
0.415054
0.425818
0.401732
0.0198183
0.545351
0.546562
0.651293
0.931761
0.554504
0.945458
0.203577
0.208415
0.214605
0.219064
0.480106
0.480326
0.480949
0.481672
0.485889
0.482313
0.477779
0.474179
0.976939
0.831211
0.625026
0.561731
0.978833
0.664198
0.975542
0.755032
0.215923
0.215154
0.997749
1.06198
41.5407
84.9987
-0.366834
-0.304208
-0.458495
-0.392605
0.257673
0.27239
0.172019
0.170164
1.30891
1.31409
1.41209
1.37565
2824.21
2858.61
1.27293
0.830671
153.507
497.764
1587
1681.72
0.420037
0.422283
0.224869
0.223537
0.17039
0.260323
0.45368
0.451081
0.44318
0.436784
2869.7
2875.51
0.450998
0.453701
0.436946
0.443351
0.454008
0.449038
-0.13485
-0.132374
0.577256
0.232713
0.55511
-0.378038
-0.596568
0.247086
0.252615
0.307977
0.381845
0.583733
0.732457
0.761716
1.05679
0.419369
0.418643
0.436815
0.442711
-0.15147
-0.106056
-0.197695
-0.113005
0.208855
0.21491
-0.104383
-0.14919
-0.111915
-0.196582
0.0239229
0.0277348
0.0277339
0.0239281
0.788387
0.789901
0.813292
0.801354
-0.205034
-0.358479
0.532382
0.534835
0.5236
0.522342
0.316634
0.316292
4.17518
9.48485
20.1898
22.4046
0.748409
0.673064
1.38031
1.43391
2.17549
2.21674
1.67485
1.51968
2.31866
2.33082
0.472027
0.495492
0.472404
0.471991
0.885101
0.881156
0.912017
0.922719
0.557022
0.556559
0.561309
0.56272
0.652812
0.385544
1.54137
0.543302
0.51074
0.520782
0.503842
0.509382
0.535161
0.532167
1.72257
1.6657
2.13669
1.85546
0.581777
0.571794
0.612351
0.619782
0.542606
0.545212
0.271416
0.156301
0.360564
0.21032
0.561816
0.570414
0.531476
0.530958
0.442195
0.439525
0.44411
0.438599
0.107991
0.102584
0.154084
0.13752
0.47162
0.464208
0.460644
0.452178
0.154102
0.137606
0.460233
0.461762
0.461589
0.467147
0.545183
0.542556
0.487702
0.544639
0.583758
0.587133
0.57765
0.580012
0.472662
0.380565
2830.96
2839.8
2830.14
2844.58
0.559285
0.439319
0.441411
0.441521
0.392687
0.395229
0.0300679
0.0855025
0.175718
0.184479
0.514655
0.513724
0.51973
0.526557
0.439231
0.436495
0.441023
0.437605
0.401837
0.383488
0.0931818
0.10681
0.65289
0.656916
0.501962
0.524092
0.46236
0.47697
0.523008
0.498239
0.478531
0.445088
0.0931212
0.106755
0.228727
0.226874
0.486988
0.487223
0.0975814
0.0975622
0.0917526
0.525341
0.526881
0.442987
0.482896
0.369939
0.488321
0.457182
0.452341
0.536511
0.575099
0.566151
0.590613
72.6358
154.026
66.2324
133.176
2774.8
2786.17
0.399682
0.396288
0.539164
0.539981
0.557654
0.554998
0.554638
0.552162
0.783518
0.769042
-0.314749
-0.369884
0.672739
0.680693
0.665934
0.676076
0.485958
0.490189
0.49016
0.4861
0.495441
0.495864
0.479225
0.480036
0.525291
0.526847
0.25486
0.243367
0.254487
0.242993
2845.29
2841.15
1.50168
0.776452
0.64884
0.558719
-0.356743
-0.390272
0.239801
0.238254
0.418631
0.394212
0.391646
0.40036
-0.705869
-1.06527
0.382175
0.536823
0.44517
0.819924
0.287425
0.3023
0.480844
0.412052
0.282503
0.48098
0.910005
0.541983
0.527513
0.525603
0.519126
0.5197
0.248501
0.25039
0.0929742
0.0978019
0.0848876
0.0955963
0.239955
0.238382
0.38436
0.387007
2800.73
28.9962
15.3762
14.1449
0.493761
0.491464
-0.518385
-0.440756
0.421444
0.419385
0.253568
0.251713
0.632454
0.651509
0.608788
0.253626
0.25176
40.6094
19.3208
0.151769
0.157349
0.443491
0.436331
0.41364
0.412394
-0.260121
-0.257589
-0.2365
-0.226337
0.405756
0.404924
0.715522
0.73114
0.479329
0.480034
0.467011
0.474402
-0.744814
-1.21364
-0.661587
-1.51097
0.544445
0.549375
0.423322
0.419119
0.626494
0.629918
0.417689
0.400916
0.227734
0.222412
0.227624
0.222359
0.912117
0.932549
0.674678
1.17014
0.715166
0.730893
0.351337
0.36906
0.108108
0.102803
1.25395
1.31559
0.912033
0.932489
0.549365
0.544461
1.15935
1.25909
0.23002
0.210393
0.406333
0.0522955
0.825512
0.808993
0.424143
0.126019
0.24367
0.251035
0.299556
0.277129
0.493098
0.491154
0.388547
0.237204
0.264653
0.280437
0.638765
0.645754
0.666628
0.655322
0.759359
0.738981
0.649637
0.74774
0.144309
0.146202
-0.0203745
-0.0180223
0.144299
0.146189
0.639484
0.610406
0.636795
0.608962
0.334477
0.274034
0.310707
0.227138
0.487628
0.489892
0.205384
0.209981
0.486045
0.4896
0.252137
0.252574
0.225318
0.228251
0.571234
0.577303