/*--------------------------------*- C++ -*----------------------------------*\
| =========                 |                                                 |
| \\      /  F ield         | OpenFOAM: The Open Source CFD Toolbox           |
|  \\    /   O peration     | Version:  v2012                                 |
|   \\  /    A nd           | Website:  www.openfoam.com                      |
|    \\/     M anipulation  |                                                 |
\*---------------------------------------------------------------------------*/
FoamFile
{
    version     2.0;
    format      ascii;
    class       surfaceScalarField;
    location    "0.05";
    object      phi;
}
// * * * * * * * * * * * * * * * * * * * * * * * * * * * * * * * * * * * * * //

dimensions      [0 3 -1 0 0 0 0];
oriented        oriented;


internalField   nonuniform List<scalar> 
49400
(
-5.6559e-06
9.56479e-09
5.60673e-06
3.96086e-08
1.30491e-05
3.59534e-06
-2.23003e-05
1.28578e-05
2.00868e-07
-3.42505e-06
1.73612e-05
-8.32941e-06
2.02562e-05
-2.00859e-05
-2.07736e-05
5.09925e-05
-3.16519e-07
8.13554e-06
1.95983e-05
-5.00341e-05
-1.54261e-07
-6.41848e-07
-1.22798e-05
2.53953e-07
1.21214e-05
-9.55118e-08
2.62907e-05
1.15401e-05
-5.01106e-05
2.59028e-05
-1.31205e-05
1.50145e-06
2.37404e-05
-1.32619e-05
4.58631e-08
2.94499e-05
-3.11716e-05
5.68541e-05
-2.68202e-05
4.24437e-07
2.63564e-05
3.93215e-08
9.15554e-06
1.56133e-05
-5.1589e-05
4.70373e-07
9.1096e-06
4.11458e-05
2.275e-05
-4.82824e-05
1.7287e-05
5.02152e-05
7.68625e-06
-7.38904e-06
1.73166e-07
-3.67432e-06
2.04702e-05
6.22882e-06
9.13213e-06
1.98415e-05
8.84639e-06
4.58905e-07
-1.99965e-05
4.93131e-05
3.03863e-07
-3.33429e-07
3.32871e-06
-1.13109e-06
-1.8642e-06
5.4717e-06
-1.94656e-06
-3.85858e-06
-4.16989e-06
-6.11005e-06
-1.15121e-06
3.33846e-07
-3.13725e-07
6.28914e-07
-3.72668e-06
-3.94448e-06
1.08443e-07
-9.42562e-06
1.68005e-06
1.71339e-06
1.56929e-06
-4.96273e-06
2.35275e-07
1.93976e-06
-4.94988e-07
1.74023e-06
2.08432e-07
-1.78072e-06
-1.4923e-06
5.01326e-06
-1.89814e-06
3.25852e-07
-8.0142e-07
1.24888e-06
-1.13027e-06
1.03183e-06
-4.39254e-07
-1.02744e-06
4.34868e-07
-1.70715e-06
-3.82463e-07
3.12144e-06
-1.01076e-06
-1.13565e-06
1.728e-06
4.36737e-07
-3.19217e-06
9.25055e-07
1.23781e-06
-1.12326e-06
1.66585e-06
-1.69728e-06
9.57069e-07
-5.80945e-06
8.02725e-06
-3.17487e-06
-7.41485e-06
7.68754e-06
6.84376e-07
3.72518e-06
-1.69495e-05
-5.91422e-06
-5.95298e-06
1.95547e-05
-9.17918e-06
3.94933e-06
-4.00046e-06
6.07473e-06
-9.45446e-06
-1.11297e-05
-1.30047e-05
-6.69796e-06
3.08323e-05
-5.93905e-06
-1.39028e-05
8.71222e-06
-2.07995e-05
1.85573e-06
9.84468e-06
1.06007e-05
-3.43482e-05
1.7813e-05
7.43914e-07
7.54621e-06
-1.7745e-05
1.86612e-05
2.33724e-08
1.5569e-06
2.84438e-08
-1.60872e-06
1.77529e-06
-1.85813e-06
1.06212e-07
-9.56454e-07
4.28865e-06
-2.14381e-06
1.83524e-06
3.37017e-07
1.40083e-06
-5.15336e-06
1.44166e-06
-1.89895e-06
2.32044e-06
1.14153e-06
9.89974e-06
-2.27662e-06
-8.76465e-06
6.46588e-06
-5.3645e-06
4.01568e-08
-8.97168e-07
1.72628e-05
7.83764e-06
-1.81334e-07
-1.30208e-05
3.3343e-06
4.5435e-06
-7.25073e-06
9.68786e-06
-9.70869e-06
-7.69392e-06
-1.29201e-05
-8.72762e-06
2.93417e-05
2.98789e-07
-7.02621e-06
-9.66497e-07
-1.47395e-05
2.11816e-06
9.22166e-06
3.81321e-06
-2.00611e-05
9.41865e-06
-1.16349e-06
-1.29197e-05
1.36108e-05
-2.3846e-05
-2.48996e-06
-2.13619e-06
1.7753e-06
2.85085e-06
1.63284e-06
5.42959e-06
-9.55238e-06
4.66926e-06
-5.17262e-06
2.75091e-08
-3.76243e-06
5.51022e-06
-5.35534e-06
8.23369e-06
1.7827e-06
-1.70845e-06
2.68954e-06
2.02716e-07
9.29171e-07
1.6207e-06
-2.75259e-06
8.48786e-07
1.47411e-06
-2.12017e-06
9.08124e-07
8.69833e-07
-2.11299e-08
-1.52353e-06
2.45278e-06
-1.55772e-06
2.40643e-06
-5.90592e-08
9.63471e-09
3.92198e-09
3.6074e-07
-4.4643e-07
-3.30405e-07
4.16095e-07
-1.00737e-06
2.65558e-07
1.10255e-06
7.54085e-08
-1.52921e-06
8.26874e-07
-2.74972e-07
-8.82307e-07
4.67837e-08
1.19619e-06
-5.49471e-07
8.61812e-07
-7.49034e-07
3.5041e-07
5.82818e-08
-2.55462e-07
-1.5323e-07
-2.37802e-07
-3.29455e-08
6.21158e-07
7.03821e-08
-2.49901e-07
-4.31254e-07
2.38074e-07
2.63563e-07
1.27231e-07
-8.08386e-07
-3.13696e-07
5.18825e-07
-4.41926e-07
3.31518e-07
-1.23385e-07
-3.24415e-07
1.16282e-07
-9.39157e-07
-2.90185e-07
1.56086e-06
-1.5306e-07
-9.09482e-07
-1.47174e-06
1.36934e-06
-5.06611e-08
1.22196e-06
-3.60318e-06
2.50724e-07
6.46819e-07
1.32988e-06
1.83208e-07
5.79893e-07
1.40293e-06
1.10159e-07
3.54368e-06
4.04884e-07
-1.09512e-07
-5.66557e-07
2.71185e-07
-6.15515e-07
-5.35752e-07
1.55615e-06
-1.4309e-07
-5.81937e-07
-7.09062e-07
7.63177e-07
-1.97205e-07
7.41752e-07
-2.03275e-06
-1.98864e-07
4.2629e-07
-2.36691e-08
1.81738e-07
2.33676e-06
-6.92548e-07
-1.82595e-06
2.28899e-06
-1.68096e-06
-1.75333e-06
-1.6852e-06
2.03063e-07
-2.40142e-06
7.40628e-07
9.15041e-07
3.96964e-07
-2.05263e-06
-1.51787e-08
7.91945e-07
-3.61383e-08
7.83526e-07
1.16337e-07
-1.00376e-06
-4.18881e-07
2.21459e-06
-8.27303e-07
-2.12596e-07
7.55917e-07
-1.18626e-06
1.12056e-06
7.4573e-07
7.90518e-07
-7.48842e-07
-7.87407e-07
9.73322e-08
-1.31095e-06
1.95935e-06
-1.09242e-06
1.98027e-06
-2.66273e-07
1.56444e-06
-2.04701e-06
1.47206e-06
-2.52574e-06
3.91902e-07
-2.30792e-07
8.63918e-07
1.71092e-06
4.38762e-07
-1.01218e-06
-1.1375e-06
-1.03318e-06
-3.83236e-07
3.12733e-06
4.34926e-07
-1.02935e-06
-1.7302e-06
9.25256e-07
1.23987e-06
4.37833e-07
-3.19738e-06
-1.12572e-06
1.66774e-06
-1.70007e-06
1.41378e-06
4.04685e-07
-3.46568e-08
-1.78381e-06
-6.79668e-07
1.26658e-07
1.96679e-06
-3.5144e-07
7.64557e-08
6.07443e-07
-5.64943e-07
-3.93939e-07
-1.55198e-07
8.39095e-07
-6.64647e-07
6.36107e-07
-1.26425e-06
1.45342e-06
3.30995e-08
-4.30046e-07
-1.05647e-06
-7.72928e-07
-3.37545e-06
5.6018e-06
1.15661e-06
-1.89644e-06
1.23119e-06
-5.05619e-07
-1.15562e-06
5.53343e-06
-5.35871e-06
-1.62903e-06
3.787e-06
-9.78035e-07
1.46359e-07
-2.44287e-06
-8.37156e-07
3.13367e-06
-1.88218e-06
2.92016e-06
-8.9162e-07
4.39469e-07
-4.76452e-06
3.75809e-06
-1.99073e-07
-4.39617e-06
-4.84494e-07
7.37625e-06
-2.33212e-06
4.76779e-06
-2.09173e-06
-5.11858e-06
-3.71236e-06
4.51358e-07
8.37958e-06
1.58771e-06
-5.61074e-07
-6.14522e-06
-4.00844e-06
1.8838e-06
6.45656e-06
-2.93804e-06
-7.52696e-06
1.01683e-07
8.23867e-06
3.68514e-06
-7.18425e-06
4.23818e-06
-1.28705e-06
-1.2399e-06
4.57292e-06
-2.04597e-06
2.22735e-06
2.45257e-06
-5.96697e-06
-1.25715e-06
2.2446e-06
4.67442e-06
-3.9141e-06
-2.01747e-06
-2.2541e-06
9.17312e-06
1.94235e-06
-3.40389e-06
4.26117e-06
6.40029e-07
3.53103e-07
-4.12478e-07
-5.80654e-07
-1.24626e-07
1.6009e-07
6.04565e-07
3.12472e-07
-8.3996e-08
-1.05324e-06
1.40464e-07
1.22524e-06
-2.82924e-07
-8.54307e-07
-7.88077e-07
1.08863e-06
-1.48348e-06
8.45481e-07
1.42731e-06
2.75034e-07
-2.54783e-06
3.19819e-07
8.4927e-07
-3.23608e-07
8.1549e-07
9.3164e-07
-1.42569e-06
-3.06502e-07
2.58147e-06
-8.65051e-07
-8.84251e-07
1.07658e-06
-1.66659e-06
1.58557e-06
-2.16571e-06
-2.88393e-06
-1.24581e-06
6.29545e-06
-2.22277e-07
2.99593e-07
-2.24303e-06
-2.56834e-06
-5.37867e-07
-3.38282e-06
2.34809e-06
1.33432e-06
1.37689e-06
-7.00273e-06
2.43077e-06
-3.62222e-06
3.53305e-06
-1.49696e-06
-7.45478e-07
1.542e-06
7.00443e-07
1.16981e-06
1.85666e-06
-4.52344e-06
2.31612e-06
-1.89179e-06
-1.01003e-06
-1.33969e-06
3.89172e-06
-1.97161e-06
1.66202e-06
1.13851e-06
-1.25346e-06
2.11494e-06
-1.04024e-07
-1.57877e-06
8.13881e-07
8.68916e-07
-1.20916e-06
-2.69145e-07
1.37428e-06
2.46538e-07
-3.03447e-06
1.94992e-06
-8.00192e-07
-1.41887e-06
-3.30043e-07
3.65424e-06
1.18954e-06
-1.74319e-06
1.67338e-06
-2.06845e-06
-1.67187e-07
1.98349e-06
2.52146e-07
2.3154e-06
1.05901e-06
-5.44287e-06
-2.86463e-07
2.43468e-06
2.47786e-06
-2.3088e-06
-4.55532e-07
-1.07611e-06
5.98865e-06
1.6549e-06
-2.90468e-06
2.56229e-06
-5.44155e-06
-1.14737e-06
6.56709e-06
2.18317e-08
2.45952e-06
5.9555e-06
-1.38566e-05
8.61239e-06
-7.30024e-06
-5.99505e-06
-5.26775e-06
1.78299e-05
-8.29667e-06
2.32345e-06
4.09342e-06
-6.43459e-06
7.43806e-06
2.28458e-07
-8.09733e-09
-2.06443e-07
-1.39178e-08
-1.52767e-07
-6.24024e-07
1.00525e-06
-8.55716e-07
6.94851e-07
8.08083e-07
3.77264e-07
-1.39179e-06
-9.26744e-08
8.8684e-07
-2.09868e-07
-5.06831e-07
-6.88321e-07
-7.0651e-07
5.95371e-08
-4.27851e-07
1.07482e-06
2.80818e-07
-5.29834e-07
-4.57494e-07
-1.49928e-06
1.83963e-06
4.06392e-07
-1.36408e-06
-2.82477e-06
2.77366e-06
-5.68812e-06
1.86092e-07
4.0335e-08
2.05424e-08
-2.46969e-07
-3.11869e-07
-1.7338e-07
6.71341e-07
-1.27656e-07
-1.43878e-07
-1.48252e-07
-4.58508e-09
3.8808e-07
-7.83301e-07
2.55839e-07
2.17249e-06
3.59622e-06
-1.12958e-07
-5.65575e-06
9.14658e-07
1.7401e-06
-4.82267e-07
1.22965e-06
3.28123e-06
2.73454e-06
-2.3288e-06
8.23917e-07
-1.29791e-06
7.31368e-06
-1.07279e-06
1.51498e-06
-3.51455e-06
-2.5432e-06
-1.43865e-06
-9.14642e-07
4.89649e-06
-3.06626e-07
-1.07503e-06
-1.16154e-06
4.81446e-07
-2.22672e-06
-3.86097e-06
2.37599e-06
1.96643e-06
1.22598e-06
-1.60922e-06
2.91018e-06
-1.29788e-06
3.3205e-06
3.32335e-06
2.43882e-06
-9.08267e-06
-4.60248e-07
1.5236e-07
3.62838e-06
4.77128e-06
-1.90818e-06
3.522e-06
-4.12725e-06
7.57614e-07
-3.67875e-06
1.08291e-05
-2.52413e-06
3.61666e-06
-4.21256e-06
2.35477e-07
2.15602e-06
-7.68893e-07
-1.62261e-06
2.12035e-06
-2.44601e-06
5.61137e-07
-2.0369e-06
6.31327e-06
-6.60398e-07
3.10927e-06
-3.21776e-06
1.815e-06
-4.09801e-06
1.11484e-06
-1.74584e-06
2.1872e-06
-7.81658e-07
-1.53454e-06
-2.55302e-06
4.86922e-06
-1.31016e-06
-3.57538e-06
4.10389e-06
-6.25595e-07
-2.21911e-06
-1.97115e-06
2.19291e-06
-8.47357e-07
3.18383e-06
-7.37409e-06
2.24257e-07
-6.15811e-07
-1.35856e-07
2.15223e-06
-1.33603e-06
-3.04144e-06
2.22525e-06
-4.29091e-06
-1.24389e-06
7.68703e-06
-4.29862e-06
-1.32832e-06
5.68052e-06
4.05662e-06
-1.27786e-05
3.38142e-06
4.52435e-06
-2.67565e-06
4.81317e-06
-2.91765e-06
2.03438e-06
9.63849e-06
-4.77031e-06
-6.90257e-06
5.39697e-06
-5.10399e-06
1.7414e-06
-2.22794e-06
1.72634e-05
9.90545e-06
1.28072e-06
-1.62902e-05
4.32796e-06
7.3189e-06
-6.08955e-06
8.18956e-06
-9.57914e-06
3.88463e-08
-8.31875e-07
-1.01607e-07
8.94635e-07
-1.49697e-06
1.07318e-06
4.62632e-07
3.90773e-07
-2.71962e-06
1.22015e-06
-7.95714e-07
-5.26042e-07
-1.76592e-07
2.29138e-06
-1.37357e-06
2.27016e-06
-1.77851e-06
-1.21919e-06
-8.99082e-07
-4.24836e-07
2.54311e-06
1.28107e-07
-1.00236e-06
-3.44943e-07
-9.02707e-07
1.31732e-07
1.33682e-06
5.13765e-07
-2.75329e-06
9.2136e-07
5.47188e-07
1.0125e-06
-1.50109e-06
1.50902e-06
1.88885e-06
6.25744e-07
-7.62537e-07
-1.75205e-06
-1.06942e-06
-6.28755e-08
3.02114e-06
6.16222e-07
-1.0599e-06
-2.09688e-06
6.80558e-07
2.03254e-06
1.00557e-07
-3.25734e-06
-1.30906e-06
1.92674e-06
-1.97104e-06
-1.2691e-07
-5.8301e-07
-8.36925e-07
1.54685e-06
-4.88831e-07
-8.88192e-07
1.25011e-06
-5.73534e-07
-4.98308e-07
1.34911e-07
6.93942e-07
-1.40239e-06
9.39265e-07
-1.30266e-06
1.97864e-07
-3.92114e-07
3.00204e-07
5.18569e-07
1.90727e-07
-2.03598e-07
-5.05697e-07
-3.73949e-07
-6.06036e-07
1.49855e-06
-6.76346e-07
4.93123e-07
-3.06206e-07
6.29198e-07
-5.2659e-07
4.14775e-07
-1.22668e-06
-2.49942e-07
2.73104e-07
-5.11513e-07
-1.61561e-07
4.00231e-07
-4.95079e-07
2.56409e-07
5.05102e-07
-1.62883e-07
-5.0378e-07
-4.2485e-07
1.33018e-06
-3.89835e-07
6.57941e-07
-4.30989e-07
5.43256e-07
-1.43687e-06
-1.88286e-07
4.21378e-07
-1.4011e-07
8.56862e-07
6.314e-07
3.5832e-07
-1.84658e-06
2.99162e-09
7.11092e-07
1.42779e-07
6.27355e-07
7.03667e-09
-6.77955e-07
-3.31276e-07
1.63659e-06
-5.91047e-07
-7.98719e-08
-5.54527e-07
9.34342e-07
-7.87253e-07
5.6983e-07
-1.33709e-07
-5.85545e-07
1.49424e-07
-5.95135e-07
-3.53588e-07
1.51855e-06
-8.38408e-08
-6.45003e-07
-8.51504e-07
8.73084e-07
-1.05421e-07
5.90757e-07
-2.08726e-06
-5.00019e-07
1.01952e-06
-4.94807e-07
-1.78476e-08
8.27749e-07
-7.27092e-07
-8.28094e-08
6.01128e-07
-5.64198e-07
-5.47775e-08
-5.7183e-07
2.00071e-06
6.04261e-07
3.50094e-07
5.41284e-07
8.19887e-09
-4.25888e-07
3.95342e-07
-8.02886e-07
-2.39941e-08
-8.72662e-07
7.19933e-07
1.76723e-07
-6.76744e-07
-8.76057e-10
6.53626e-07
4.91851e-07
-2.04126e-06
7.49173e-07
-6.06285e-07
-1.43764e-07
-3.72565e-07
1.77536e-06
-4.74192e-07
8.2156e-07
-5.88626e-07
-7.43082e-07
-1.67617e-08
-3.44928e-08
7.94336e-07
9.08433e-07
3.89421e-07
-2.04094e-06
7.81932e-07
1.0974e-07
1.00337e-06
-8.25203e-07
-2.1266e-07
-4.17552e-07
2.21526e-06
7.53552e-07
-1.18933e-06
1.11793e-06
-9.32679e-07
-3.26349e-07
9.62822e-07
2.96206e-07
8.44782e-07
9.20779e-07
-2.69824e-06
1.35594e-06
-8.3751e-07
-8.53895e-07
-7.81352e-07
2.59807e-06
-1.19162e-06
6.33936e-07
8.36759e-07
-1.1076e-06
1.41135e-06
-8.50581e-07
-9.27495e-07
8.68858e-07
9.09218e-07
-2.03594e-07
1.47264e-06
-2.11963e-06
1.61754e-06
-2.74862e-06
2.78405e-08
-1.55036e-06
2.39138e-06
-1.52573e-06
2.46279e-06
-6.01596e-08
7.06977e-09
7.0113e-09
1.22998e-06
-7.35449e-07
-1.31828e-06
8.23749e-07
-2.40476e-06
-4.09381e-07
4.04412e-06
-1.3029e-06
-1.83731e-06
2.22817e-06
4.20923e-07
-3.96737e-06
9.62953e-07
2.08897e-06
-1.33529e-06
1.88887e-06
-2.21727e-06
2.99875e-06
1.16598e-06
-3.09779e-06
-1.06694e-06
-2.27961e-06
-3.26636e-06
8.54473e-06
-4.10735e-06
2.99371e-06
2.8138e-06
4.00112e-06
-9.9127e-06
3.97144e-06
-2.22459e-06
-1.28774e-06
1.99282e-06
-1.39397e-06
1.29467e-06
2.17473e-06
1.45197e-06
-4.92137e-06
7.593e-07
1.227e-06
-6.91624e-07
7.46012e-07
2.18802e-06
1.90643e-06
-2.66789e-06
1.50748e-06
-2.88402e-06
6.97846e-06
9.36418e-08
-1.75066e-06
-1.12228e-06
6.93655e-07
5.62243e-06
-4.55251e-06
-1.76357e-06
6.56111e-06
2.94359e-06
-8.81104e-06
-3.59057e-06
1.57741e-05
-1.58592e-05
1.10092e-05
7.7936e-06
1.0765e-05
-3.54353e-05
-4.69001e-06
1.21087e-05
1.52246e-06
-1.57182e-06
-4.15249e-07
6.25505e-07
1.36156e-06
6.43471e-07
-1.99575e-07
-2.01571e-06
-3.56626e-07
5.84848e-07
1.27592e-06
-9.9248e-07
-6.40063e-07
1.44507e-07
1.71626e-06
1.62374e-06
-2.81579e-06
2.39375e-06
1.1382e-06
4.83441e-06
1.8952e-06
-7.86782e-06
6.98732e-08
1.77034e-07
8.91293e-07
2.76053e-06
2.14376e-06
7.71109e-07
-7.84187e-07
1.90112e-07
-4.35043e-07
2.09744e-06
1.08763e-06
-3.02713e-06
1.15532e-06
-2.06111e-06
2.71369e-06
-6.29233e-06
6.99175e-06
-7.42426e-06
8.69362e-07
4.7607e-07
-1.76674e-06
4.73354e-06
1.42303e-06
1.25229e-06
-1.36744e-07
-1.51313e-06
3.97584e-07
-1.56851e-06
-5.75083e-07
3.39589e-06
-1.57205e-06
-1.33205e-07
3.0954e-06
1.31177e-06
-5.92031e-06
1.70606e-06
1.78692e-06
-1.87456e-06
3.00554e-06
-2.13485e-06
-3.66038e-06
-2.86742e-07
3.36328e-06
5.83848e-07
2.48738e-06
-8.28261e-06
2.06744e-06
-1.96094e-06
4.40788e-06
-5.37479e-06
-3.81358e-06
-2.22437e-06
1.14127e-05
5.78351e-08
-3.65219e-06
-1.78043e-06
-3.99383e-06
2.38086e-07
3.99411e-06
-3.93371e-07
-7.59457e-06
2.89216e-06
1.34004e-06
4.77967e-06
-8.82523e-06
5.44745e-06
-1.91234e-06
-1.16066e-06
3.63513e-06
-5.62131e-07
-2.49704e-07
2.39706e-06
-4.0597e-06
4.5155e-06
-5.92586e-06
-3.70574e-06
-2.42452e-06
9.7654e-06
-3.15583e-06
-1.11205e-06
5.72983e-07
-1.33175e-06
2.66396e-06
2.52233e-06
1.6038e-06
-2.66279e-06
-1.46335e-06
-1.25186e-06
-3.66948e-06
7.44367e-06
-4.54321e-06
4.89515e-06
2.08095e-06
3.25412e-06
-7.99785e-06
3.88722e-06
-3.26962e-06
-2.01432e-06
2.23206e-06
-3.30341e-06
2.03891e-06
5.94979e-07
-2.04877e-06
-5.8512e-07
-1.34285e-06
-2.13636e-06
5.51811e-06
-2.24604e-06
1.49817e-06
1.86772e-06
2.31118e-06
-6.22767e-06
2.71887e-06
-1.43628e-06
-5.25339e-07
1.10786e-06
-4.60193e-07
-3.22529e-07
-7.00839e-07
3.32384e-07
6.90984e-07
-4.64719e-07
9.21261e-07
-7.79072e-07
8.58322e-07
-2.02388e-06
4.13741e-07
-9.26877e-07
8.45519e-07
-7.86903e-07
1.89163e-06
-2.48837e-07
3.83194e-07
-3.17392e-07
5.86096e-07
7.70665e-07
8.02536e-07
-2.1593e-06
2.55777e-07
9.95251e-07
-6.64932e-07
7.70519e-07
2.55923e-07
-6.18838e-07
-8.29172e-07
2.21853e-06
-1.14158e-06
7.78665e-07
-4.85209e-07
6.51289e-07
-8.24252e-07
4.2794e-07
6.5071e-07
-3.78203e-07
-7.00447e-07
2.78174e-07
-1.04029e-06
1.19006e-06
-9.8961e-07
1.91849e-06
-3.53379e-07
7.81598e-07
-8.06423e-07
9.00716e-07
-1.95454e-06
2.49531e-08
-1.64528e-07
-1.8306e-07
-3.02663e-07
-4.10634e-07
-3.75191e-07
1.08849e-06
-1.82473e-07
-5.24299e-07
4.0411e-07
-3.76845e-07
-2.16262e-07
1.94658e-07
3.58125e-07
-9.29628e-07
5.49836e-07
-5.7144e-07
2.51468e-07
-4.17642e-07
4.26114e-07
-2.86049e-07
-5.11273e-07
-2.35169e-07
1.03249e-06
-7.92098e-08
-2.7476e-07
6.79202e-08
-4.38083e-07
-1.52401e-07
7.33925e-07
8.67981e-07
-2.03999e-06
8.41626e-07
-2.60101e-07
-1.49879e-07
7.56336e-07
4.43342e-07
-1.96594e-08
8.53807e-07
-6.30876e-07
-2.03272e-07
6.72629e-07
-6.22939e-07
-6.93487e-08
-1.95178e-07
1.72161e-06
8.9171e-07
2.38606e-07
-1.75325e-06
7.25139e-07
9.72225e-08
8.94482e-07
-1.28675e-06
1.42444e-06
-9.56498e-07
-1.10059e-06
-1.05088e-06
3.10797e-06
-2.10025e-07
-1.21186e-06
4.65385e-07
-1.05823e-06
-2.52391e-07
1.08961e-06
1.35433e-06
-3.50216e-06
1.56056e-06
-7.23342e-07
4.53829e-07
-3.11359e-07
9.63503e-07
-1.08684e-06
-1.17103e-06
-1.61308e-06
3.87095e-06
-2.76031e-07
-1.74179e-06
9.30983e-07
-1.12558e-06
-3.21484e-07
8.66293e-07
1.23813e-06
-3.22999e-06
1.39642e-06
-8.51616e-07
3.79835e-07
-8.83503e-07
1.63181e-07
1.37787e-06
1.52246e-06
-1.32125e-06
-1.57908e-06
6.55093e-07
-3.68433e-06
4.40711e-06
-2.20785e-06
4.3854e-06
-8.67917e-07
2.63435e-06
-3.08768e-06
1.33075e-06
-3.77775e-06
2.42592e-06
-4.7795e-06
2.85241e-06
3.26814e-06
-5.31956e-06
9.79054e-06
-7.73912e-06
-8.3351e-06
1.02154e-05
1.3878e-06
7.44871e-06
-2.11034e-05
-1.4733e-05
-3.29032e-06
2.82388e-05
-6.94108e-06
-6.40416e-06
-9.49281e-06
1.5993e-05
-8.98517e-06
-1.48449e-07
4.07678e-07
-3.02648e-07
4.34192e-08
-4.79642e-06
-2.26215e-06
6.91012e-06
3.3452e-08
-4.42219e-06
-3.37022e-06
2.63756e-06
7.66103e-07
-6.03279e-06
-1.75961e-06
-1.68838e-07
5.44251e-07
-6.50428e-06
1.18315e-06
1.73934e-06
9.21648e-07
-3.84414e-06
4.46639e-07
1.78902e-06
-1.05251e-06
1.8745e-07
1.99853e-06
2.19642e-06
-1.80045e-06
-2.08529e-07
-1.2546e-06
5.44955e-06
-9.24095e-07
1.45852e-06
-1.80289e-06
3.24263e-07
1.26626e-06
-8.65453e-07
-7.25067e-07
5.52755e-07
-6.03488e-07
3.74996e-07
1.57051e-07
1.66196e-06
1.50112e-06
-1.10283e-07
-1.99432e-06
5.864e-07
1.28971e-06
-1.59934e-06
2.34279e-06
-2.57508e-06
-1.2451e-06
-4.88178e-07
3.25412e-07
1.40786e-06
6.62735e-07
-1.08004e-07
-1.79983e-06
6.44275e-07
-4.69718e-07
-1.42554e-06
-7.56127e-08
2.14543e-06
-4.76536e-07
-1.41872e-06
8.14358e-07
-1.3989e-06
1.06416e-06
3.31638e-08
1.05726e-06
-6.14935e-07
-4.75493e-07
2.40972e-06
-9.59354e-07
-1.4172e-06
-4.12124e-07
3.87911e-06
-2.24862e-06
9.61599e-07
6.7209e-07
-3.44312e-07
-2.3798e-06
2.41144e-06
-3.71511e-06
2.96092e-06
-7.26615e-07
7.56569e-07
-6.0615e-07
5.76196e-07
-2.09486e-07
1.36345e-06
-1.88058e-06
8.18371e-07
-2.71288e-07
8.13936e-07
-6.55168e-07
-7.64918e-07
-1.95123e-06
3.34137e-06
-1.99273e-06
1.40494e-06
-1.82952e-06
2.24575e-07
7.78376e-07
-1.98217e-08
-9.83129e-07
1.34451e-06
-1.9951e-06
8.75162e-07
-1.94304e-06
4.06593e-06
-1.02044e-06
1.53066e-06
-5.30033e-07
2.0864e-06
-4.08997e-06
-9.54967e-08
1.86795e-07
-5.07885e-07
-2.25184e-06
-5.08697e-07
1.33968e-06
1.42086e-06
1.34429e-06
4.00472e-07
-3.9966e-06
-5.52541e-07
1.38814e-06
2.39241e-06
-1.28052e-06
-1.66443e-06
-3.20024e-07
4.10056e-06
1.85038e-06
-2.73043e-06
2.87004e-06
3.71503e-07
-8.18521e-07
1.43883e-06
-9.91809e-07
-1.01089e-06
1.04856e-06
3.33837e-07
1.03642e-06
-2.86583e-06
-9.23528e-07
-1.11346e-06
3.08554e-06
-1.46588e-06
8.76189e-07
-7.57045e-07
1.08241e-06
-1.18651e-06
-8.79582e-07
-1.28484e-07
5.92264e-07
4.15802e-07
6.06648e-07
2.78935e-07
-1.76516e-06
-1.37721e-07
6.15885e-07
8.9395e-07
-5.90942e-07
-4.40729e-07
-2.26485e-07
1.73632e-06
6.77577e-07
-9.89584e-07
1.04336e-06
-7.94096e-07
-1.26671e-07
4.12511e-07
5.08257e-07
5.0112e-07
1.02903e-07
-1.39812e-06
5.02089e-07
-1.2764e-07
-7.42571e-07
-1.30087e-07
1.37475e-06
-4.72533e-07
-3.97679e-07
6.01193e-07
-9.70822e-07
8.83617e-07
1.72947e-07
-2.70084e-07
-5.45913e-07
6.43051e-07
-4.76943e-07
-5.18429e-07
1.16832e-06
-2.67749e-07
-4.79278e-07
-2.52801e-07
5.95688e-07
-6.10634e-07
6.67667e-07
-1.39975e-06
1.01842e-08
6.70751e-08
1.31939e-07
-2.95785e-07
-1.6701e-08
2.40274e-07
7.22124e-08
2.23499e-07
8.61497e-08
-6.05434e-07
2.23851e-07
-1.70528e-08
-4.78134e-07
-4.03013e-07
1.12142e-06
-3.86025e-07
-1.98969e-08
2.02129e-07
-5.02005e-07
2.29672e-08
-1.28533e-08
3.39358e-07
-3.43558e-07
4.52752e-07
-3.59545e-07
-1.06061e-07
8.15077e-07
3.1468e-07
-1.26367e-06
-5.46869e-07
5.34236e-07
1.33165e-08
-4.91176e-07
-5.63758e-08
-3.62872e-07
-1.43445e-07
1.04055e-06
-3.0289e-07
-4.66645e-08
8.68666e-07
8.00876e-07
-2.16072e-06
9.14435e-07
-1.02145e-07
-3.89823e-07
1.16081e-06
1.08163e-07
5.64145e-07
-5.89637e-08
-5.51846e-07
-4.35288e-07
-5.84481e-07
6.12454e-07
-8.69358e-08
-1.02816e-06
1.33798e-06
-1.18589e-06
-4.01931e-07
-8.98421e-07
2.48624e-06
-1.0933e-07
-7.7236e-07
-3.04201e-07
2.20351e-06
-2.21954e-06
2.33758e-06
-1.1748e-06
-2.77025e-07
1.20043e-06
2.51392e-07
9.42174e-07
1.29883e-06
-3.4158e-06
1.4163e-06
-7.51149e-07
-1.15711e-06
-1.72351e-06
4.08105e-06
-1.75969e-06
8.53967e-07
2.99756e-07
-7.60616e-07
-7.45076e-09
-3.00766e-07
-4.85008e-06
5.30838e-06
-1.57531e-07
-6.21479e-06
2.49411e-06
3.41991e-06
-1.08054e-06
-9.98434e-06
-3.90922e-06
-1.3563e-06
1.05739e-05
-7.39367e-07
-3.32739e-06
-3.2517e-06
4.38952e-06
-5.07161e-06
4.40894e-07
2.07303e-06
-2.59747e-07
-2.25418e-06
1.91347e-06
-2.6374e-06
1.16482e-06
-1.45008e-06
5.43658e-06
-2.78581e-06
3.04289e-06
-5.16833e-07
2.63682e-06
-7.67681e-06
1.69223e-06
-1.69281e-06
3.28504e-06
-8.97535e-09
-2.17337e-06
1.70654e-06
4.75801e-07
-1.7877e-06
1.61052e-06
1.68207e-07
1.47552e-06
-2.10533e-06
-1.68344e-06
5.39929e-06
-2.55858e-06
6.21456e-07
1.28971e-06
-2.37277e-06
1.31281e-06
-1.87349e-07
-1.04284e-06
4.8642e-07
7.43773e-07
-8.29644e-07
-4.08084e-07
1.05038e-06
-3.23197e-07
-1.54929e-06
2.02847e-06
-3.44062e-07
-2.09249e-06
-1.92513e-07
3.27136e-06
1.05364e-06
-1.7209e-06
1.34754e-06
-4.95943e-07
1.54704e-06
-1.63462e-06
5.83517e-07
1.8413e-06
-4.8243e-07
-1.85481e-06
-1.45258e-06
4.84092e-06
-1.73762e-06
1.76801e-06
-5.12825e-07
1.30706e-06
-4.89949e-06
-7.99925e-07
1.11536e-06
-1.12748e-06
1.84692e-05
1.77239e-06
-1.71495e-05
-3.09211e-06
-2.40957e-05
-1.77623e-05
6.03272e-05
-2.60287e-05
3.70544e-06
1.59777e-05
1.42244e-05
-4.73516e-05
2.13584e-05
-8.47278e-06
-1.63736e-05
1.99697e-05
-2.8178e-05
-1.38512e-05
-5.02568e-06
5.87959e-06
1.29973e-05
8.74061e-06
-2.01076e-06
-2.0581e-05
-6.40693e-06
1.01219e-05
1.74021e-05
-6.06056e-06
-1.77485e-05
-6.2521e-07
2.81492e-05
1.11918e-05
-1.92631e-05
1.64462e-05
-4.45969e-08
5.55708e-07
2.86086e-08
-5.3972e-07
6.35755e-07
-1.12943e-06
4.49075e-07
-6.62348e-07
1.85381e-06
-6.6673e-07
6.96848e-07
-1.51045e-09
6.43743e-07
-1.8502e-06
4.41487e-07
-9.27174e-07
4.75987e-07
-5.29482e-07
4.04969e-07
1.23002e-07
1.4226e-06
-3.80227e-06
-4.36624e-08
9.24618e-07
-2.66708e-07
3.46047e-07
2.28714e-07
7.66319e-07
-1.65041e-08
-9.94426e-07
2.44612e-07
-3.75344e-07
-1.09233e-06
2.23399e-06
-4.74543e-07
8.26943e-08
8.97527e-07
3.48271e-07
-1.72034e-06
2.26797e-07
7.53424e-07
-5.00932e-07
-3.64603e-07
-1.14709e-06
-6.1547e-06
-2.41448e-06
-2.80841e-07
8.85002e-06
1.13422e-06
-3.3001e-06
-3.98882e-06
-2.29763e-06
1.01737e-06
-5.06167e-07
3.17783e-06
-4.96929e-06
1.68173e-06
-1.17053e-06
9.2442e-07
-1.04669e-06
2.32531e-06
-1.7755e-06
-2.29067e-06
-2.68239e-06
6.74856e-06
-1.01916e-06
-3.01715e-06
2.2608e-06
-2.03923e-06
-1.2706e-06
5.66339e-07
2.4054e-06
-5.01096e-06
3.53107e-06
-4.23533e-06
9.87241e-07
-1.59899e-06
1.83592e-06
-1.90804e-06
5.25545e-07
1.34574e-06
3.6758e-08
1.02157e-06
1.93763e-07
-3.12338e-06
3.86377e-07
1.16074e-06
-1.42443e-06
1.75657e-07
2.59451e-06
-4.15768e-07
-9.71901e-07
-1.57229e-06
1.94171e-06
-1.60168e-06
-2.77607e-06
-1.92874e-06
-5.72476e-07
5.27729e-06
4.85296e-07
-1.50951e-06
-1.75186e-06
-1.72817e-06
2.84721e-07
2.72599e-06
6.54231e-07
-5.10839e-06
1.87583e-06
1.13488e-06
2.15924e-06
-3.01451e-06
3.46259e-06
8.14938e-07
-6.70965e-07
-2.00632e-06
1.86234e-06
-1.28838e-06
-1.66818e-06
3.77151e-06
-8.30997e-07
-1.12835e-06
-4.50157e-07
2.13164e-06
-2.51248e-06
1.47241e-06
-3.05092e-06
-8.14588e-07
1.27805e-06
-1.3485e-06
1.09358e-06
5.19459e-07
-1.06907e-06
-5.43972e-07
-6.0409e-07
-1.39553e-06
3.0932e-06
-1.55658e-06
1.47195e-06
6.34528e-07
1.53603e-06
-3.23963e-06
1.73913e-06
-1.64857e-06
-3.39023e-07
6.82622e-07
-3.59565e-07
-1.55733e-07
-2.03731e-07
-1.74693e-07
5.34158e-07
-5.05845e-08
-3.42636e-07
2.37488e-07
-2.26527e-07
-2.77887e-08
3.08432e-07
2.61394e-07
-7.96353e-07
2.51966e-07
2.86779e-08
1.84221e-07
-2.65464e-07
2.61494e-07
-2.95278e-07
-3.15814e-07
2.97386e-07
3.13705e-07
-1.99527e-08
5.28145e-07
-8.03469e-07
6.19451e-07
-9.55217e-07
-4.84866e-09
-4.39943e-07
7.42179e-07
-5.11467e-07
8.20324e-07
1.30967e-07
-1.14289e-07
3.10475e-07
-1.55522e-07
-2.6238e-09
1.16459e-07
4.16861e-08
9.7348e-08
2.46864e-08
-2.77556e-07
1.08447e-07
-1.37228e-08
-2.32694e-07
-1.79008e-07
5.28162e-07
-1.67028e-07
-2.39814e-08
8.97883e-08
-2.3213e-07
1.92258e-08
-1.59511e-08
1.34272e-07
-1.32044e-07
2.41365e-07
-1.53079e-07
-1.04237e-07
3.94862e-07
9.46097e-08
-5.0421e-07
-2.90599e-07
1.81344e-07
4.08542e-07
-2.14376e-07
-3.7551e-07
2.99921e-07
-5.22363e-07
4.03786e-07
-3.71763e-07
1.08023e-06
-1.95282e-07
5.46159e-07
-5.65254e-07
3.56552e-07
-9.27343e-07
2.50484e-07
-4.16295e-07
4.24881e-07
-4.4309e-07
2.94974e-07
4.78469e-07
-3.30353e-07
7.88109e-07
-6.94225e-08
-1.16178e-06
2.30478e-07
8.52605e-07
-1.04697e-06
-1.30918e-08
1.53853e-06
-2.2146e-07
-1.15587e-06
5.69388e-07
-8.6027e-07
7.86774e-07
-6.81496e-07
3.76311e-07
7.29566e-07
-4.24382e-07
1.23182e-06
-3.81058e-08
-1.87521e-06
4.26392e-07
1.18174e-06
-1.29909e-06
-6.54842e-08
2.09414e-06
-4.14891e-07
-1.30858e-06
8.26751e-07
-1.27975e-06
1.18766e-06
2.69264e-07
2.52804e-06
-2.44965e-06
-3.47647e-07
3.4246e-06
-4.18333e-06
1.028e-06
-4.32684e-06
-5.09659e-06
7.83746e-07
-7.41673e-06
-3.35066e-06
-1.32383e-06
-7.6635e-06
-1.32642e-06
-1.90978e-06
-1.08475e-07
3.34468e-06
2.16344e-07
-9.17473e-07
-6.25287e-07
1.20077e-07
-1.81352e-06
1.64378e-06
-1.88772e-06
-6.73528e-07
-2.62066e-06
4.15596e-06
-3.82441e-06
-7.52565e-06
-3.60916e-06
-4.71415e-06
-2.54613e-06
-1.68832e-06
-7.93381e-06
-1.13639e-05
-8.30663e-06
-8.69331e-06
2.83639e-05
3.91242e-07
-1.25429e-05
7.87735e-07
-8.2871e-06
3.71709e-07
8.85675e-06
7.08064e-06
-2.42245e-05
9.56578e-06
-3.37322e-07
4.95746e-06
-1.04197e-05
5.82993e-06
3.3842e-07
1.12056e-06
7.2789e-07
-2.18687e-06
1.78395e-06
3.6589e-06
-5.10443e-06
1.17133e-06
1.73319e-06
1.06189e-06
-4.45167e-06
4.5611e-06
-2.68547e-06
5.48055e-06
-2.90043e-08
-7.63764e-07
-1.98659e-06
-1.78637e-06
-1.26972e-06
1.63123e-06
1.42486e-06
8.99956e-07
2.76685e-06
-5.45317e-06
2.71009e-06
-3.07985e-06
-3.33071e-07
-2.48457e-06
4.44887e-06
-2.89251e-06
3.9843e-06
6.73293e-07
-7.98955e-07
8.98806e-07
-5.69299e-07
-7.08358e-07
-1.50097e-07
1.42775e-06
-1.32118e-07
-6.61857e-07
2.24675e-07
-7.32293e-07
-1.08184e-07
1.12821e-06
4.38774e-07
-2.22884e-06
5.18488e-07
8.34401e-07
6.69653e-07
-9.63173e-07
1.03804e-06
-1.96577e-07
-9.19498e-07
-8.46716e-07
1.96279e-06
-5.3264e-07
-1.17398e-06
1.51005e-06
-1.11587e-06
-3.3627e-07
1.35233e-06
1.50911e-06
-3.97731e-06
1.15028e-06
-1.34224e-07
3.87167e-07
-5.20363e-08
6.90733e-07
5.58512e-06
4.60024e-06
-6.63206e-06
-3.5533e-06
2.69205e-08
-1.02117e-05
1.57699e-05
-8.33813e-06
1.29653e-05
4.33233e-06
1.47914e-05
-2.57558e-05
1.52902e-05
-1.45112e-05
3.74624e-07
4.7039e-06
6.82786e-06
2.131e-05
1.88248e-05
1.58686e-05
-5.60034e-05
1.80406e-06
2.36747e-05
-4.16869e-06
1.89334e-05
1.69542e-06
-2.20287e-05
-1.55488e-05
5.65109e-05
-2.43659e-05
4.03265e-06
-1.7811e-05
2.59369e-05
-2.63083e-05
-3.10057e-06
1.75161e-06
1.86432e-06
-5.15366e-07
3.30119e-06
5.55608e-07
-6.95737e-06
7.45875e-07
4.30693e-06
5.23558e-06
-2.24896e-06
-2.24075e-06
-2.13361e-06
1.16761e-05
3.17073e-06
-4.86408e-06
2.90145e-06
1.14593e-06
-8.70631e-08
-1.52909e-06
4.70216e-07
-1.08629e-06
-1.01481e-06
3.24704e-06
-1.32032e-07
-1.04132e-06
-9.1928e-07
1.53548e-06
-7.48231e-07
1.43842e-06
-3.39902e-06
-5.04403e-07
1.02508e-06
-5.9507e-07
1.35258e-06
1.61037e-07
5.11236e-07
-2.02485e-06
-1.33343e-06
-3.88057e-07
3.07406e-06
-4.04345e-07
-7.68046e-07
-2.66856e-07
2.61154e-07
5.16937e-07
1.04353e-06
-3.33524e-06
-1.52884e-06
2.18432e-06
-1.67203e-06
2.11868e-08
-5.17933e-08
-3.51637e-08
6.57702e-08
-1.23125e-07
-2.18801e-08
1.66192e-07
-9.24176e-08
-8.25012e-08
-3.77346e-07
1.7267e-07
1.12259e-07
4.89807e-07
-9.49655e-07
-6.51532e-08
2.02659e-07
4.02774e-07
5.84387e-10
-8.9749e-08
4.07328e-08
4.84318e-08
-8.73997e-08
4.72293e-08
4.07547e-08
-2.24311e-08
-1.54718e-07
-2.66217e-08
7.90277e-08
-1.16732e-08
-2.38144e-07
2.58752e-07
-4.54207e-07
5.10804e-07
-8.47069e-07
-1.66492e-07
1.53987e-07
1.78698e-07
1.01937e-07
6.58698e-07
-1.7263e-07
-1.50602e-06
3.26342e-08
1.64602e-06
-1.44004e-06
1.98118e-06
-7.13765e-07
1.1415e-06
-4.08756e-06
1.99174e-06
-1.96202e-06
2.91584e-09
-1.41648e-06
5.05424e-06
-1.21e-06
1.7747e-06
-2.03052e-06
3.62727e-07
-3.92741e-07
-8.40369e-07
8.70383e-07
-6.56507e-07
-6.47113e-07
1.66635e-06
-4.78571e-07
-5.70677e-07
-1.64976e-07
1.28199e-06
-1.59559e-06
8.85232e-07
-1.62089e-06
-3.98835e-07
1.03372e-06
-3.53972e-07
8.23715e-07
1.74473e-06
2.26706e-08
-2.59112e-06
6.22485e-07
7.63107e-07
-5.61878e-07
5.38301e-07
1.82892e-06
-1.60685e-06
4.39689e-08
2.32599e-06
-6.15603e-07
-1.55312e-06
1.19339e-06
-1.78632e-06
1.77566e-06
9.66386e-07
1.73797e-06
1.83966e-07
-2.88833e-06
5.15768e-07
-4.86696e-07
9.37314e-07
7.58272e-07
1.49547e-06
1.79938e-06
-8.94051e-07
-1.39202e-06
-2.12549e-07
2.94924e-06
-1.26965e-06
1.81537e-06
-1.97974e-06
-3.22108e-07
-1.66112e-07
3.09842e-07
1.78379e-07
2.08222e-07
3.45263e-07
-8.75594e-07
4.70789e-07
-4.2868e-07
-1.84847e-07
-3.22082e-07
8.1677e-07
-4.65698e-07
4.59229e-07
2.28946e-07
-3.49381e-07
3.77653e-07
-4.80994e-08
-1.00132e-07
-4.3488e-08
1.91719e-07
-1.82378e-08
-3.01582e-08
2.96741e-10
-6.94609e-08
-4.89084e-08
4.1818e-10
-1.38451e-07
9.45447e-08
-1.70747e-07
1.41007e-07
1.61371e-08
-2.56345e-07
-1.71222e-07
1.09698e-07
3.16066e-08
-2.02791e-07
-7.66395e-08
-1.16798e-06