/*--------------------------------*- C++ -*----------------------------------*\
| =========                 |                                                 |
| \\      /  F ield         | OpenFOAM: The Open Source CFD Toolbox           |
|  \\    /   O peration     | Version:  v2012                                 |
|   \\  /    A nd           | Website:  www.openfoam.com                      |
|    \\/     M anipulation  |                                                 |
\*---------------------------------------------------------------------------*/
FoamFile
{
    version     2.0;
    format      ascii;
    class       volVectorField;
    location    "0.05";
    object      U;
}
// * * * * * * * * * * * * * * * * * * * * * * * * * * * * * * * * * * * * * //

dimensions      [0 1 -1 0 0 0 0];


internalField   nonuniform List<vector> 
24700
(
(0.018187 -1.74622 0.0180612)
(-0.00766994 -1.69372 0.0106278)
(-0.0055467 -1.64516 0.00506396)
(0.0678654 -1.44719 -0.0163826)
(0.0289054 -1.55869 -0.0355217)
(0.074828 -1.51345 -0.052726)
(0.0531543 -1.56221 -0.0455856)
(-0.0113564 -1.4916 0.00499895)
(0.0728053 -0.904133 -0.0182185)
(0.0223507 -1.39744 -0.0209911)
(-0.00231862 -1.46478 -0.0242067)
(-0.00372165 -1.49804 0.00345015)
(0.000154191 -1.48458 -0.0197048)
(0.00453633 -1.47001 -0.0198493)
(0.00573481 -1.48494 0.00377014)
(-0.00183472 -1.49485 0.000218693)
(-0.00144493 -1.48903 -0.0160722)
(-0.00395234 -1.56767 0.0161069)
(0.0332256 -1.54239 0.0202408)
(0.00203608 -1.66121 0.088797)
(0.0429841 -1.45289 0.00431043)
(0.0102423 -1.4956 -0.000922229)
(0.0267061 -1.4443 0.00574971)
(0.00583668 -1.56989 0.0482579)
(0.0508523 -1.43893 -0.00145426)
(0.00864401 -1.51243 -0.00607461)
(0.0403199 -1.20488 -0.00167388)
(-0.0121438 -1.49688 0.00793059)
(-0.026547 -1.50318 -0.0308925)
(-0.00928316 0.238587 -0.0215869)
(0.0019473 0.261929 0.00357281)
(0.00394899 0.257806 -0.0051959)
(-0.020914 0.246486 -0.00381742)
(-0.0173358 0.26491 0.0140905)
(-0.0395945 0.263713 0.000581483)
(-0.00883228 0.263311 0.00352612)
(0.00341278 0.26027 -0.0235221)
(0.0055202 0.26513 -0.0248734)
(0.00169499 0.277416 -0.0357437)
(-0.00623857 0.268208 -0.0139927)
(-0.0100809 0.270758 -0.0107955)
(0.00288312 0.261806 -0.00984909)
(0.000585505 0.263777 -0.0135932)
(1.7227e-05 -0.172361 -0.0656236)
(0.00253668 -0.169635 -0.061678)
(0.00643499 -0.174758 -0.0579701)
(-0.00543968 -0.172986 -0.0641703)
(-0.00297426 -0.16955 -0.0642943)
(-0.000188358 -0.175436 -0.069604)
(8.68331e-06 -0.185739 -0.0668602)
(-0.0791214 0.941751 -0.182548)
(0.0398814 1.22534 -0.285737)
(0.154821 0.843961 -0.106348)
(-0.0574594 1.00442 -0.300922)
(0.11333 1.00962 -0.255552)
(-0.00674669 0.797865 -0.209214)
(0.252049 0.83839 -0.17777)
(0.186765 -2.14706 0.337913)
(0.158461 -2.38603 1.489)
(0.707825 -2.13708 -0.592252)
(0.220678 -1.76748 -0.550466)
(-0.507222 -1.49472 -0.175459)
(0.478673 -1.9426 -0.560734)
(-0.443906 -1.65939 -0.538592)
(-4.09057e-05 0.00331786 0.249002)
(-0.000828011 -0.00450719 0.23617)
(-0.00433292 0.0105372 0.229038)
(0.00577492 0.0168643 0.244349)
(-0.00551286 -0.00309939 0.256019)
(-0.0016191 -0.00355289 0.24849)
(0.0039933 0.0222992 0.234124)
(-0.180949 0.857926 0.470037)
(0.0239549 0.918084 0.129504)
(-0.0881333 0.91693 0.340315)
(0.027591 0.704439 0.489852)
(0.15287 0.670818 0.368752)
(-0.0230983 0.864182 0.497242)
(-0.16347 0.863907 0.629101)
(0.0120929 -1.53305 -0.0413798)
(-0.0384105 -1.16873 0.0685988)
(-0.010594 -1.56667 -0.0362274)
(-0.0674098 -1.79543 0.0172525)
(0.0762162 -1.49864 0.0113894)
(-0.0110377 -1.6127 -0.0554352)
(-0.0236959 -1.64092 -0.0532373)
(0.00760933 0.267309 -0.358584)
(-0.0303793 0.50812 -0.287262)
(0.0319454 0.359017 -0.241425)
(-0.011463 0.3045 -0.392587)
(-0.0495647 0.411695 -0.388075)
(-0.0412148 0.553661 -0.317461)
(-0.0237992 0.43711 -0.223466)
(-0.00138843 0.119997 0.144001)
(0.0102568 0.109971 0.140278)
(0.00138123 0.136232 0.151992)
(-0.00491922 0.126626 0.131639)
(-0.00701045 0.124236 0.131291)
(0.00716247 0.104485 0.125024)
(-0.00414125 0.116384 0.135857)
(-6.89666e-05 0.0569164 0.0722592)
(-0.00224211 0.0541633 0.0734648)
(-0.00338845 0.0522006 0.0794388)
(0.000934671 0.0519039 0.0774408)
(0.0013578 0.0563617 0.0713947)
(-0.00162417 0.059402 0.0774695)
(-0.00320947 0.0554865 0.0856129)
(0.000331823 0.00893999 0.0411096)
(-0.00110793 0.0141395 0.0362963)
(-3.24718e-05 0.0101661 0.0393539)
(0.000705809 0.0132288 0.0373945)
(9.40051e-06 0.0103317 0.0397832)
(-0.00104062 0.0143753 0.0362138)
(0.00131649 0.00987019 0.0402626)
(-0.00636536 0.0921924 0.00704746)
(-0.000273917 0.105656 0.00914697)
(0.000935731 0.108394 0.0142936)
(0.011249 0.100261 -0.00612095)
(0.000233145 0.0964637 -0.000593464)
(-0.00691263 0.086834 0.00189455)
(0.0108395 0.0977377 -0.00737292)
(-0.012879 0.0602765 -0.000537474)
(0.0167392 0.096303 -0.0166221)
(-0.0010474 0.0962993 -0.00241101)
(-0.00146595 0.0977047 0.0159301)
(-0.00252038 0.0958225 0.0180027)
(0.000128741 0.102331 0.0192727)
(0.00843091 0.11063 0.00626283)
(-0.0025924 0.103202 0.00466029)
(0.0056919 0.109178 0.00238001)
(-0.00636545 0.108014 0.00115312)
(-0.00528113 0.110611 -0.00397815)
(0.0038553 0.106712 0.0019867)
(0.00255926 0.105713 0.000214161)
(-0.0175259 0.111354 0.0048667)
(-0.00703927 0.110949 -0.000620721)
(-0.00414654 0.107219 0.0118875)
(-0.000602132 0.122251 0.000880093)
(-0.00494513 0.109933 0.00787252)
(0.00559529 0.115531 0.0109406)
(0.00181554 0.117246 0.0122175)
(-0.00311155 0.114091 0.0168043)
(-0.000728479 0.110135 0.0155674)
(-0.00106444 0.119715 0.135337)
(0.00339406 0.113825 0.115585)
(0.00466051 0.115657 0.115406)
(-0.00845975 0.100562 0.122758)
(0.00252311 0.106948 0.127999)
(0.00226692 0.106833 0.116657)
(-0.00271037 0.0996756 0.110504)
(-0.00628792 -0.174813 -0.058022)
(-0.00257129 -0.169639 -0.0616935)
(-1.41834e-05 -0.172262 -0.0655525)
(0.00288777 -0.169428 -0.0643145)
(0.00539529 -0.172947 -0.0641028)
(6.90503e-05 -0.175427 -0.0696851)
(0.000132239 -0.185799 -0.0669112)
(0.0090513 -0.0962576 -0.0884891)
(0.0144529 -0.0942499 -0.0710902)
(0.00147384 -0.0739147 -0.0479751)
(-0.0181801 -0.0111743 -0.0670346)
(-0.0322933 -0.030569 -0.0591504)
(-0.0272726 -0.0551355 -0.0695936)
(-0.0100002 -0.0342541 -0.0897385)
(-0.00262227 0.159913 0.0603064)
(0.0204935 0.226629 0.0743531)
(0.0226399 -0.078059 -0.101743)
(-0.0180853 -0.0391075 0.00783904)
(0.0176888 0.687546 0.27326)
(0.00685793 0.584815 0.178826)
(0.00963095 -0.038155 -0.112659)
(-0.0120692 0.508848 0.0662598)
(0.0377473 0.344213 -0.0588522)
(-0.0192974 0.289717 -0.0135616)
(0.0447827 0.163305 0.263171)
(0.0485877 0.392666 0.187881)
(0.0645911 0.375658 0.0857702)
(0.0358088 0.218873 0.178819)
(0.0937267 0.392492 -0.388631)
(0.106872 0.233262 -0.345014)
(-0.0137565 0.542541 -0.408171)
(-0.191906 0.279735 -0.492822)
(-0.113392 0.39927 -0.457474)
(-0.237973 0.250974 -0.399146)
(-0.208251 0.406465 -0.417825)
(0.181663 -0.441511 0.14437)
(-0.016863 -0.405087 0.298743)
(-0.0159834 -0.336589 -0.151644)
(-0.0670082 -0.514683 -0.0672255)
(-0.0215875 -0.438778 -0.0902925)
(-0.0241045 -0.382644 0.0963776)
(0.115385 -0.446037 0.0639036)
(-0.0148854 0.06006 0.0274318)
(0.00319477 0.0293382 0.0337409)
(-0.00201367 0.0125882 0.050018)
(-0.0144424 0.0929285 0.102971)
(0.018353 0.0516176 0.107335)
(-0.00367989 0.0675239 0.0654278)
(-0.0109649 0.0930174 0.0683961)
(0.00170156 -0.137651 -0.0521433)
(-9.36628e-05 -0.141277 -0.048444)
(0.00173953 -0.137618 -0.0484261)
(-0.00219171 -0.140989 -0.046454)
(-0.00409254 -0.142914 -0.0462257)
(-0.00231064 -0.142805 -0.0496668)
(-0.00160969 -0.139323 -0.0487132)
(-4.2785e-05 -0.342555 -0.0357406)
(0.00146116 -0.366932 -0.0334115)
(-0.00456184 -0.350713 -0.0266298)
(-0.00936951 -0.365106 -0.0712049)
(0.00983035 -0.37621 -0.0676995)
(0.00486805 -0.375529 -0.051239)
(-0.00399471 -0.355265 -0.0656864)
(-0.00257944 -0.251944 -0.115235)
(-0.00525131 -0.22359 -0.098215)
(-0.0120154 -0.22016 -0.0892192)
(0.0111482 -0.225956 -0.0976947)
(0.00804636 -0.223411 -0.0941912)
(-0.0024863 -0.213301 -0.0923712)
(-0.00354339 -0.206168 -0.081135)
(-0.0237917 -0.0572562 -0.165923)
(-0.00201192 -0.0407132 -0.196052)
(-0.013421 -0.0630485 -0.155951)
(0.0209539 -0.0853549 -0.183286)
(0.0186638 -0.0759006 -0.187748)
(0.00335594 -0.0922031 -0.171213)
(-0.00813694 -0.0884214 -0.176403)
(0.0661654 -0.0313735 -0.301888)
(-0.00826155 0.0121792 -0.28371)
(0.0024584 -0.0881246 -0.492446)
(-0.065385 -0.00481874 -0.332961)
(-0.0288165 0.0102672 -0.312826)
(-0.0463839 0.0524996 -0.286991)
(-0.0220994 0.126177 -0.279956)
(0.011281 1.07547 0.224782)
(-0.0351648 0.710939 0.399573)
(0.113569 0.631845 0.38473)
(-0.0269841 1.01741 0.211955)
(-0.169099 0.916874 0.169436)
(-0.0965193 0.753914 0.283277)
(0.0562755 0.736737 0.361881)
(-0.0117262 -0.0114784 -0.00570165)
(0.00497824 -0.056587 0.0925435)
(-0.0200565 -0.054495 0.058528)
(0.0209549 0.0299718 0.083783)
(-0.00864052 0.0447715 0.0405977)
(-0.0645276 -0.0170907 0.0212261)
(-0.0184109 -0.0247205 0.0746642)
(-0.0150006 -0.0457026 0.0344418)
(-0.0388247 -0.00913333 0.0091483)
(-0.0682877 -0.0462693 -0.0268492)
(-0.00551673 0.00327427 -0.074257)
(0.0211874 0.0669641 -0.10274)
(-0.0398558 -0.0351063 -0.174935)
(0.00190115 -0.00019084 -0.0152154)
(0.00545442 -0.00146364 -0.016205)
(0.0151858 0.00930677 -0.0205911)
(0.000253273 0.00191784 -0.0180566)
(-0.0133344 -0.00245349 -0.0191326)
(0.00994547 0.0132503 -0.0212166)
(-0.06993 0.264097 -0.0058938)
(0.0134163 0.260711 0.000799909)
(-0.0649023 0.569539 0.233976)
(0.08269 0.564692 0.0529484)
(0.0474635 0.516602 0.200952)
(0.0588859 0.120648 -0.00536954)
(-0.101929 0.0707932 -0.0987216)
(0.113403 0.0780921 -0.130492)
(-0.00104369 -0.085168 -0.45213)
(-0.016459 0.277965 -0.122195)
(0.0385549 0.274406 0.188667)
(0.0524106 0.458515 0.235906)
(0.279557 0.0490114 -0.0182788)
(0.176742 0.291692 0.174886)
(-0.00576016 -0.0752311 -0.488602)
(0.00324034 -0.0655242 -0.547199)
(0.0139103 -0.102383 -0.579186)
(-0.0377388 -0.0692054 -0.465863)
(0.00641626 -0.0918421 -0.518971)
(0.0050253 -0.0847784 -0.547774)
(-0.0277119 -0.0211748 -0.452116)
(-0.00846133 -0.0744897 -0.306133)
(0.0035316 -0.0304151 -0.304025)
(0.0228815 -0.0799077 -0.314252)
(0.0221266 -0.171881 -0.24622)
(-0.0120648 -0.116774 -0.209002)
(0.00668252 -0.0951377 -0.257691)
(0.0389769 -0.162812 -0.265532)
(0.000178013 -0.25834 -0.139048)
(0.0313844 -0.338984 -0.177776)
(0.000775447 -0.292056 -0.142901)
(-0.0154739 -0.379546 -0.0566147)
(0.0246094 -0.429646 -0.0955175)
(0.0406556 -0.432448 -0.138661)
(-0.00660271 -0.306431 -0.0725582)
(0.00404642 -0.334516 0.354798)
(-0.0303283 -0.459107 0.208284)
(-0.0468581 -0.60979 0.0449869)
(0.025576 -0.660065 0.0261822)
(0.0334074 -0.522137 0.201791)
(0.0169677 -0.586497 0.162749)
(0.00663574 -0.717797 0.0297195)
(0.0311891 1.08624 -0.341207)
(-0.0128973 0.698813 -0.279692)
(0.0108679 0.982982 -0.249605)
(0.0344018 0.875039 -0.5568)
(-0.0252612 0.703988 -0.387204)
(0.034741 0.881658 -0.342629)
(0.0586193 0.96621 -0.492541)
(-0.000962244 -0.150712 -0.0110498)
(-0.00687865 -0.136738 -0.0245083)
(-5.27692e-05 -0.13747 -0.0323292)
(0.0073536 -0.149593 -0.0338666)
(0.00156756 -0.15609 -0.0269993)
(-0.00366576 -0.140759 -0.0329045)
(0.00241358 -0.140843 -0.0376722)
(0.000866191 -0.141021 0.0223716)
(-0.000481028 -0.148041 0.0201007)
(-0.000595396 -0.143909 0.0202165)
(-0.000681215 -0.137102 0.0295143)
(-0.00267659 -0.130295 0.0278389)
(-0.00349953 -0.149384 0.0299073)
(-0.00442728 -0.136523 0.0328628)
(-0.0020033 -0.0926714 0.173258)
(0.00272394 -0.0933386 0.161657)
(-0.000622637 -0.0951005 0.163386)
(-0.00327409 -0.103101 0.153643)
(-0.00171761 -0.108413 0.16061)
(0.00034087 -0.107059 0.165005)
(0.00333191 -0.111895 0.179833)
(0.00821106 0.0834624 0.0721944)
(0.00608911 0.0801444 0.0674776)
(-0.00110885 0.09549 0.085765)
(-0.00819152 0.0775119 0.0678198)
(-0.00291195 0.0871781 0.073399)
(-0.00521626 0.0694526 0.0611343)
(0.00269189 0.0795278 0.0695767)
(-0.000607111 0.078222 0.030904)
(0.00413862 0.0721709 0.0268779)
(0.0025879 0.0684012 0.0225121)
(-0.00175085 0.0705594 0.0278851)
(-0.00619876 0.064721 0.0251758)
(-0.000862824 0.0698762 0.0247948)
(-0.00516097 0.0649461 0.0197999)
(0.00691648 0.0794448 0.0122759)
(-0.000563312 0.0786643 0.025002)
(0.00276054 0.0777746 0.0124951)
(-0.00269448 0.0728581 0.0199009)
(-0.00493856 0.0699716 0.0173505)
(-0.000196565 0.0750188 0.0114819)
(0.000473479 0.0726046 0.010419)
(0.00325895 0.0926785 0.0120432)
(0.00357117 0.0964722 0.00789603)
(0.00063123 0.102172 -0.000475486)
(-0.0041677 0.0951581 0.00477886)
(-0.00378283 0.0953512 0.00697504)
(0.000179071 0.0930709 0.00951804)
(0.0047473 0.0889848 0.0130959)
(-0.00847207 0.106921 0.00380182)
(0.000101581 0.0983974 0.00292684)
(0.000760433 0.0950551 0.0156867)
(0.00356816 0.0971558 0.00416998)
(0.00421767 0.0938521 0.00368026)
(0.00245183 0.096022 0.000547087)
(0.00412333 0.0929076 -0.000306443)
(-0.00336817 0.0999022 0.00561482)
(7.16623e-05 0.0973101 -0.00496806)
(-0.00126138 0.100657 0.00377677)
(-0.000688169 0.0957805 0.00526565)
(0.00659882 0.10546 0.0049704)
(0.00332372 0.103246 0.00875765)
(-0.00138136 0.0992488 0.00899719)
(0.00200575 0.099119 0.00908854)
(0.000584124 0.104968 0.00354565)
(0.0039655 0.100301 0.0109258)
(-0.00639798 0.110665 0.0118404)
(-0.00165104 0.105639 0.0116447)
(0.00179605 0.10183 0.0140843)
(0.00142482 0.103747 0.0149327)
(0.000665718 0.121998 0.000853665)
(0.00514687 0.106089 0.0121751)
(0.00496665 0.109446 0.00755552)
(-0.00205588 0.117233 0.0122949)
(-0.00601275 0.115469 0.010834)
(0.00345524 0.113864 0.0169482)
(0.000643282 0.109879 0.0153449)
(-0.00144151 0.147789 0.0499597)
(-0.00599832 0.131102 0.0407083)
(-0.00368811 0.134877 0.0403735)
(0.00525705 0.140512 0.0364522)
(0.00554021 0.138422 0.0333998)
(-0.00371326 0.131317 0.0317849)
(-0.00341135 0.132718 0.0308506)
(-0.00140389 0.13666 0.152536)
(-0.0103497 0.11014 0.140226)
(0.00153546 0.11958 0.144255)
(0.00729325 0.123939 0.132016)
(0.00467447 0.126819 0.132642)
(-0.00767875 0.104655 0.125525)
(0.00417859 0.116167 0.13597)
(0.000441 0.119826 0.211692)
(-0.00642657 0.103128 0.204747)
(-0.0159651 0.085569 0.214361)
(0.0103796 0.106993 0.227965)
(0.00852624 0.11338 0.219919)
(0.000927105 0.109077 0.218789)
(-0.00332906 0.0951551 0.234864)
(0.000893232 -0.506803 -0.166603)
(0.0101495 -0.465258 -0.127389)
(0.0235432 -0.484006 -0.142106)
(0.0180429 -0.52961 -0.143364)
(-0.031211 -0.529094 -0.102788)
(-0.00694393 -0.487194 -0.0918749)
(0.0255521 -0.521704 -0.143624)
(-0.00272619 0.00888893 -0.361079)
(-0.0365076 0.0222178 -0.338306)
(-0.00459279 0.157081 -0.464322)
(0.0226271 0.0796157 -0.379946)
(-0.0125028 0.0973987 -0.387643)
(-0.0566857 0.0722598 -0.300184)
(-0.0196012 0.0541604 -0.330938)
(0.0261123 0.511659 -0.142519)
(0.075156 1.55762 -0.241893)
(-0.0905335 0.993069 -0.259886)
(0.135884 1.78976 -0.26062)
(0.246465 1.86709 -0.0548157)
(0.167699 1.43207 -0.253353)
(0.346218 1.40785 -0.0310748)
(0.000686042 0.106146 0.0739887)
(-0.00049532 0.106305 0.0772329)
(-0.000731703 0.0931789 0.0550095)
(-0.0106233 0.122383 0.0377969)
(0.00325711 0.0943593 0.0554829)
(-0.0158708 0.132131 0.0616671)
(-0.00103677 0.106885 0.0656713)
(0.0123883 0.207713 0.0574343)
(0.000953729 0.165072 0.00398311)
(-0.0174122 0.184063 0.0559789)
(0.0139557 0.141509 -0.0113982)
(-0.0064012 0.147435 -0.00791333)
(0.0475962 0.166931 -0.00549069)
(-0.0102357 0.199867 0.0347727)
(-0.0241553 0.214172 0.0545123)
(0.0201619 0.194164 0.0195594)
(0.0251704 0.0924878 -0.000979156)
(0.00595114 0.130527 0.0140878)
(-0.00748581 0.16264 0.0404034)
(-0.00259226 0.235943 0.0489886)
(0.0034827 0.221911 0.0319709)
(-0.00123747 0.248613 0.0132379)
(-0.0120589 0.309323 0.0908311)
(0.00850846 0.294026 0.0957203)
(0.00186334 0.287181 0.0845422)
(-0.020423 0.327155 0.0586513)
(-0.0270374 0.345689 0.00232903)
(-0.0134137 0.345204 0.0204982)
(-0.0153235 0.158523 0.0067352)
(-0.0184081 0.205218 0.0199701)
(-0.00474584 0.297079 0.0512542)
(-0.0282223 0.0453347 -0.601307)
(-0.0515582 0.144939 -0.437746)
(0.0375942 -0.0545887 -0.686821)
(0.0988052 0.0941446 -0.444881)
(-0.0107115 0.12779 -0.510871)
(0.0966571 0.102704 -0.455716)
(0.0504623 0.0887807 -0.522291)
(-0.00349902 0.481973 0.0048007)
(-0.00349086 0.185431 0.179068)
(0.00436034 0.245375 0.281306)
(0.0406645 0.494948 0.0309351)
(-0.0550406 0.463353 -0.0236136)
(0.00521417 0.270729 0.129191)
(0.146627 0.323936 0.267355)
(-8.20516e-05 -0.450739 -0.255626)
(-0.0162348 -0.41767 -0.264983)
(-0.00585058 -0.428924 -0.276143)
(0.0154803 -0.43733 -0.144634)
(-0.0158507 -0.400747 -0.17249)
(-0.0224051 -0.412156 -0.168425)
(0.0105068 -0.459235 -0.158722)
(-0.00117324 -0.344296 -0.109312)
(-0.00467525 -0.330276 -0.102846)
(-0.00116248 -0.329835 -0.0947749)
(-0.00396969 -0.311714 -0.0458469)
(-0.00375378 -0.311435 -0.0705838)
(-0.0125708 -0.309233 -0.0725834)
(-0.00770592 -0.313437 -0.0488812)
(-0.000574895 -0.112547 0.0522159)
(-0.00526004 -0.108331 0.0398419)
(-0.00117693 -0.106743 0.0463851)
(0.00503513 -0.101632 0.0428163)
(0.00502184 -0.100035 0.0417834)
(-0.00182635 -0.0994015 0.0347298)
(0.00106955 -0.101529 0.040141)
(-0.00100713 -0.0421003 0.114301)
(-0.00199676 -0.034768 0.114969)
(-0.000369739 -0.0396497 0.120146)
(0.00493869 -0.0337045 0.107057)
(0.00020681 -0.037705 0.109533)
(-0.000392833 -0.028378 0.11017)
(-0.00143823 -0.037248 0.11116)
(-0.00015276 0.0666368 0.116238)
(0.00544702 0.0573557 0.105991)
(0.0010659 0.0563666 0.100524)
(-0.0077265 0.0458538 0.108707)
(0.000781448 0.0507043 0.113596)
(0.0015996 0.0469187 0.111662)
(-0.00724377 0.0434987 0.102478)
(0.00558896 0.0551629 0.0213853)
(0.00346862 0.0558617 0.0207521)
(-0.00041925 0.061161 0.0321332)
(-0.00577785 0.0476297 0.0259899)
(-0.00213672 0.0524353 0.0294845)
(-0.00334049 0.0492302 0.0203774)
(0.00283794 0.0502284 0.0230545)
(0.00419582 0.0527789 -0.00262424)
(0.0020155 0.0568833 -0.00593537)
(0.00928516 0.0414094 0.000788122)
(0.00462723 0.0546457 -0.000880531)
(-0.00180125 0.057667 0.00887126)
(-0.00420674 0.0610458 0.000747224)
(0.00405156 0.0618282 -0.00897775)
(-0.00667889 0.0940537 0.0137322)
(0.000772451 0.103663 -0.00674152)
(-0.00778012 0.0958225 0.00917234)
(0.00628409 0.0871948 0.0105601)
(0.00840853 0.0907739 0.00542176)
(0.00261034 0.0900586 0.0191855)
(0.000410903 0.0905551 0.0162902)
(3.21416e-05 0.175885 0.0243575)
(0.00305016 0.17211 0.0246771)
(-2.84896e-05 0.173264 0.037556)
(0.0049603 0.174234 0.0396196)
(-0.00358132 0.18577 0.0347884)
(0.000913257 0.171254 0.0288221)
(-0.00463635 0.182098 0.0242178)
(-0.00276154 0.186025 0.0457325)
(-0.00365046 0.179327 0.0450916)
(0.000402626 0.185397 0.0517416)
(0.00622106 0.184932 0.0530577)
(-0.00168882 0.195734 0.0469806)
(0.000565037 0.185751 0.0458032)
(-0.00433414 0.194203 0.0417415)
(-0.00455086 -0.201235 -0.224322)
(0.00551578 -0.195779 -0.181453)
(0.0233063 -0.187993 -0.178953)
(-0.00642512 -0.175743 -0.201471)
(-0.0158415 -0.193127 -0.197109)
(-0.0115788 -0.193961 -0.174778)
(0.00180608 -0.176362 -0.174237)
(-0.0456923 0.800008 0.449805)
(-0.100571 1.4399 0.291202)
(0.0373495 1.17477 0.311675)
(0.216337 1.45297 -0.294324)
(0.402623 1.42634 -0.552144)
(0.229896 1.20115 -0.0257107)
(0.388467 1.34428 -0.138038)
(-0.155559 0.002588 0.10154)
(0.200867 -0.446062 0.326594)
(-0.0629693 -0.588915 0.197393)
(0.0835909 -0.519084 -0.0433876)
(-0.392982 0.151966 -0.24684)
(-0.0503339 -0.225245 0.0516747)
(-0.462523 0.52065 -0.259661)
(-0.0444069 -0.229902 -0.0615241)
(-0.0174425 -0.282443 -0.0186761)
(-0.008181 -0.259244 -0.0404374)
(0.0265492 -0.260045 0.0205281)
(0.0478253 -0.247132 0.000660852)
(0.0302297 -0.232657 -0.000876538)
(-0.01998 -0.217264 0.00271948)
(0.00500693 0.11764 0.0409168)
(0.000710572 0.0881674 0.0520186)
(-0.00304569 0.0911786 0.0549511)
(-0.00231892 0.104136 0.0736982)
(0.00133784 0.100976 0.0717079)
(-0.0014392 0.102165 0.0634491)
(0.003062 0.131458 0.0620005)
(-0.00291679 0.07857 0.104771)
(-0.0013617 0.0854789 0.105237)
(0.000871349 0.0709552 0.110907)
(0.00426645 0.0638994 0.108198)
(0.00517228 0.0662846 0.116808)
(0.00789337 0.0837663 0.106241)
(0.00972982 0.0744875 0.100449)
(0.0272172 0.0973948 -0.118946)
(-0.0475433 -0.109509 -0.302735)
(-0.00222678 -0.0150405 -0.226488)
(0.0379184 -0.074803 -0.180519)
(-0.0658428 -0.13449 -0.14563)
(-0.00471621 -0.215894 -0.233418)
(0.0339784 -0.155946 -0.227149)
(0.0394417 0.077997 -0.00814898)
(-0.0108709 0.0973352 -0.0333887)
(-0.150783 -0.16678 -0.0357578)
(0.0740214 0.0116385 -0.141794)
(0.00915383 0.213013 -0.234966)
(0.010501 0.0244275 -0.221396)
(-0.149971 -0.196242 -0.193363)
(0.00257682 0.00116591 -0.129014)
(0.0128377 -0.0256785 -0.214769)
(-0.0584416 -0.0657248 -0.244981)
(0.0117449 -0.0325388 -0.165763)
(0.0172428 -0.0575737 -0.216099)
(0.00313682 -0.146177 -0.217818)
(-0.00967055 -0.125695 -0.151018)
(0.00177485 -0.21926 -0.0758147)
(0.000337927 -0.215151 -0.0710723)
(0.000114561 -0.222838 -0.0813535)
(-0.00240891 -0.215203 -0.0895241)
(0.00161331 -0.219583 -0.0905281)
(-0.000849085 -0.215893 -0.0805489)
(0.00361934 -0.217476 -0.0821188)
(-0.00143277 -0.156341 -0.0523083)
(-0.000617312 -0.169957 -0.0603917)
(-0.00235642 -0.153209 -0.0480163)
(0.000344102 -0.165828 -0.0503755)
(0.00144327 -0.164472 -0.0461139)
(-0.00336885 -0.155946 -0.0451439)
(-0.00284513 -0.156664 -0.0422263)
(-0.00107374 -0.0953729 -0.0223391)
(-0.000331715 -0.094148 -0.0181444)
(-0.000220283 -0.0993987 -0.0202371)
(0.000214918 -0.0921589 -0.0241275)
(0.00299389 -0.0932408 -0.0252049)
(-0.00026695 -0.0951805 -0.0263222)
(0.00118685 -0.0936122 -0.028771)
(-0.00331105 -0.0276688 0.0729318)
(-0.0031872 -0.0303993 0.0723204)
(-0.000333781 -0.0201545 0.0792333)
(0.00424204 -0.0225054 0.0714858)
(0.000368194 -0.0212046 0.074694)
(-0.00386618 -0.0276952 0.0740784)
(-0.000691017 -0.0280585 0.0704804)
(0.00540336 0.0358715 0.0728576)
(0.00585837 0.0336947 0.0684686)
(-0.000490667 0.0424757 0.0798383)
(-0.00660944 0.0288599 0.0697483)
(-0.00193543 0.0304358 0.0733977)
(0.000405764 0.0262823 0.0658391)
(0.00272935 0.0292849 0.0732189)
(0.00509424 0.0276168 1.18745e-05)
(-0.00273129 0.0314471 0.00388888)
(0.000445179 0.0372543 0.000755751)
(0.00049785 0.040931 0.0012051)
(-0.0056644 0.0433016 -0.00656186)
(-0.00556873 0.0352521 0.00192264)
(-1.42916e-05 0.0415033 0.00365738)
(-1.55149e-05 0.0356065 0.00203572)
(0.00321622 0.0514786 0.00644143)
(-0.00384925 0.0429277 0.0104165)
(-0.0013221 0.0340264 0.00236727)
(-0.00419653 0.0378758 0.00194684)
(0.00206175 0.0412062 0.000512759)
(-0.00274358 0.0529836 -0.000489491)
(-0.00578205 0.0520643 -0.00370817)
(0.00339752 0.0506522 0.0017041)
(0.00112503 0.0493822 0.00369536)
(-0.00340559 0.0537743 0.00122399)
(0.000878519 0.054561 -0.00795238)
(0.000138135 0.0587172 0.00527178)
(-0.00460946 0.0551276 0.000246473)
(0.00174137 0.0592834 0.00433557)
(0.00364743 0.0529569 -0.00202985)
(-0.00578968 0.0551542 0.00279816)
(0.00295166 0.0655091 -0.00716723)
(-0.0157638 0.058515 0.00900945)
(7.05034e-05 0.0671112 -0.0122136)
(-0.0261434 0.0789209 0.0192141)
(0.0152668 0.0647674 0.00908514)
(0.000968346 0.198818 0.045556)
(0.00890922 0.201739 0.049883)
(-0.00110548 0.211811 0.0424919)
(-0.00677857 0.203033 0.044224)
(-0.00354657 0.191863 0.0428109)
(0.00372395 0.200173 0.042817)
(-0.00618833 0.213365 0.0392907)
(-0.0318002 0.885386 0.00528323)
(-0.114635 0.624816 0.273278)
(-0.080335 0.501827 0.407899)
(0.109142 0.540685 0.0758115)
(0.0999685 0.234806 0.182056)
(-0.0762024 0.499265 0.249233)
(-0.057207 0.277417 0.293311)
(-0.00105557 -0.0580656 -0.38461)
(0.00438042 -0.07303 -0.37054)
(0.00439445 -0.0363566 -0.353704)
(-0.00676396 -0.0307274 -0.400973)
(0.0103239 -0.074206 -0.413525)
(-0.000632766 -0.0757569 -0.384897)
(0.000381552 -0.025858 -0.355825)
(-0.0091275 -0.0325938 -0.323959)
(0.00232379 0.0227954 -0.299197)
(0.0180764 -0.0283303 -0.339583)
(-0.0079493 0.0177837 -0.287846)
(-0.000798423 0.0329941 -0.319031)
(0.0173578 -0.00481093 -0.346228)
(-0.00462979 -0.0245822 -0.312305)
(-0.0142513 -0.122485 0.0528566)
(-0.000930611 -0.147952 0.0575705)
(-0.0212437 -0.090083 0.075648)
(0.0219168 -0.135383 0.11191)
(0.0102154 -0.15702 0.088577)
(-0.0119508 -0.105693 0.10287)
(-0.0132358 -0.142904 0.0804781)
(0.0361 -0.294142 -0.018114)
(-0.00720915 -0.30327 -0.065728)
(0.01858 -0.288515 -0.0316084)
(-0.0286126 -0.253974 -0.0177722)
(-0.0217739 -0.25467 0.0031047)
(-0.0292696 -0.254829 -0.00888949)
(-0.00965761 -0.252476 0.0030896)
(-0.0116947 2.92312 0.212069)
(0.0348771 3.02018 0.192487)
(0.122128 3.02217 0.177187)
(0.0354411 2.82316 0.491894)
(-0.0678593 2.6932 0.470305)
(0.0381467 2.82629 0.417941)
(0.11409 2.89955 0.356896)
(0.0751347 1.3982 0.639407)
(-0.0900071 1.06139 0.621493)
(-0.00702098 1.73578 0.817165)
(-0.135767 1.1475 0.926027)
(-0.0412244 1.50686 0.993578)
(-0.395178 1.11923 0.821913)
(-0.217895 1.32526 0.887092)
(0.00176493 -0.110497 -0.00227248)
(-0.0181294 -0.10117 0.0303758)
(-0.00864014 -0.10219 0.0169196)
(0.00339517 -0.101258 0.00216874)
(0.0132701 -0.134963 -0.00120865)
(0.00371106 -0.142947 0.0250401)
(0.00709884 -0.111422 0.0119097)
(0.000256776 -0.00273315 -0.000369502)
(0.000101981 -0.100047 -0.0050201)
(0.0206575 -0.0500568 0.0104928)
(0.0111488 -0.0162206 0.00605942)
(-0.00713815 -0.110739 0.0274834)
(0.0101544 -0.0207962 0.115001)
(0.0443936 -0.0423358 0.155456)
(0.00180727 -0.0122072 0.0832707)
(-0.015785 0.0267951 0.0977871)
(0.000417585 0.0346958 0.0690346)
(0.0813659 -0.00139423 0.0889151)
(0.028005 -0.0115038 0.0894838)
(-0.10703 0.393215 0.425921)
(-0.136935 0.549003 0.241653)
(0.0375165 0.115547 0.425081)
(0.174136 0.250045 -0.415778)
(-0.0026175 0.134926 -0.020219)
(-0.0260279 0.461713 -0.14963)
(-0.0634795 0.367672 0.0693763)
(-0.0254305 -0.1521 -0.342902)
(-0.0304001 -0.12651 -0.342733)
(0.011275 -0.176175 -0.32462)
(0.0303564 -0.196275 -0.253847)
(-0.0109508 -0.226747 -0.289549)
(0.00929869 -0.163962 -0.269677)
(-0.0177384 -0.211257 -0.298586)
(-0.0305264 -0.172089 -0.0903115)
(-0.134035 -0.101363 0.143527)
(0.102323 -0.00974888 0.0352899)
(0.0777028 0.0051819 -0.162586)
(-0.00230894 0.0556339 -0.14798)
(0.0950071 0.110642 -0.174251)
(0.0835543 0.168508 -0.210337)
(0.00574086 -0.0894889 -0.3079)
(0.00779511 -0.106701 -0.28751)
(-0.000988405 -0.0602459 -0.314612)
(-0.00396165 -0.0769172 -0.266615)
(-0.00650971 -0.0617532 -0.279971)
(6.96932e-05 -0.0948965 -0.27374)
(-0.00238974 -0.0804717 -0.280973)
(-0.00349024 -0.102771 -0.193815)
(0.00265272 -0.116362 -0.198585)
(-0.000140211 -0.130359 -0.200504)
(0.0022136 -0.134962 -0.176238)
(-0.00324323 -0.116667 -0.162718)
(0.0037143 -0.124141 -0.175151)
(-0.00590438 -0.101556 -0.168212)
(-0.000369945 -0.170798 -0.0839711)
(0.00094978 -0.164552 -0.0797611)
(-0.00108333 -0.164221 -0.078424)
(-0.000244383 -0.160278 -0.0788911)
(-0.000241044 -0.164233 -0.081205)
(-0.00046473 -0.161762 -0.0772077)
(-0.00147986 -0.16043 -0.0754455)
(0.000972606 -0.0287849 -0.00858295)
(-0.00223236 -0.0348047 -0.013448)
(-7.26233e-05 -0.0345486 -0.00541728)
(0.00276651 -0.0403143 -0.0021206)
(-0.00268567 -0.0337363 0.00219172)
(-0.000463221 -0.0392829 -0.00769729)
(-0.00203587 -0.0313613 -0.000651033)
(-0.000244494 -0.0490861 0.0447327)
(-0.00420169 -0.0488758 0.0378753)
(-0.00077032 -0.0468645 0.0401773)
(0.00419892 -0.0450941 0.0383511)
(0.00244466 -0.0443289 0.037695)
(-0.000386012 -0.0456395 0.0350649)
(0.00206324 -0.0454817 0.0367797)
(0.00373852 0.0161569 -1.54015e-05)
(-0.00119494 0.0135436 0.00311891)
(0.00124785 0.017311 -0.000672226)
(-0.000485233 0.0204309 0.00116359)
(-0.00401457 0.022879 -0.00363634)
(-0.00320324 0.0145733 0.00260067)
(-0.000126159 0.0199508 0.0015635)
(6.33303e-05 0.013889 0.00185124)
(0.00288584 0.0254663 0.00663334)
(-0.00369741 0.0202131 0.00705562)
(-0.00018872 0.013449 0.00235501)
(-0.00204444 0.0154845 0.00289569)
(0.000415465 0.0610354 0.0319521)
(-0.00339728 0.0556553 0.020796)
(-0.00564111 0.0547969 0.0212906)
(0.00214661 0.0523237 0.0292481)
(0.00572249 0.0476441 0.0258528)
(0.00332697 0.0491492 0.0203346)
(-0.00289361 0.0500304 0.0228625)
(0.000114681 0.0744877 0.0513743)
(0.00115675 0.0676661 0.0537781)
(0.00240042 0.071799 0.0515855)
(-0.00118641 0.0750681 0.05324)
(-0.00250621 0.0725227 0.0585623)
(-0.00138926 0.0718071 0.0602871)
(0.00276667 0.0774609 0.0566998)
(0.000471765 0.112392 0.0635727)
(0.00339061 0.0989474 0.0701016)
(0.00292508 0.103828 0.0651691)
(-0.00400033 0.106768 0.064386)
(-0.000764447 0.103643 0.0692403)
(0.00338838 0.109485 0.0781873)
(0.0024941 0.111714 0.0714899)
(-0.00026246 0.190004 0.0171287)
(0.00383619 0.197933 0.0274891)
(-0.00766432 0.203564 0.0318559)
(0.00100339 0.196143 0.0373032)
(-9.5922e-05 0.205002 0.0376043)
(-0.0011295 0.203416 0.0383216)
(-0.00490333 0.220063 0.0441929)
(-0.0230171 0.238443 0.0594022)
(0.00652741 0.198203 0.0266112)
(-0.00173333 0.206119 0.0475668)
(0.0129137 0.191838 0.0400889)
(0.0155161 0.189483 0.0327904)
(-0.00395296 0.201216 0.040458)
(-0.0120182 0.209065 0.0431005)
(-0.00957267 0.224163 0.0461729)
(0.00244242 0.207894 0.0404176)
(-0.0148349 -1.43863 -0.0215706)
(-0.0808843 -1.63156 -0.0653248)
(0.0198327 -1.37476 0.0885632)
(0.0460178 -1.43022 0.0171928)
(0.0336587 -1.43034 -0.00850329)
(0.0293973 -1.5448 0.0010298)
(0.0941879 -1.40498 -0.0433561)
(-0.00231812 -0.0904374 -0.124906)
(0.071439 0.309984 -0.192977)
(6.94346e-05 0.398718 -0.187841)
(-0.0372442 0.465927 -0.266895)
(-0.0455395 0.313564 -0.225723)
(0.020175 0.352556 -0.277365)
(-0.0320164 0.0527585 -0.20818)
(-0.00159432 0.213392 -0.278195)
(0.00223571 0.179179 -0.283936)
(-0.0160127 0.162292 -0.261673)
(0.00642742 0.210032 -0.242198)
(0.0132473 0.208879 -0.246947)
(0.0136255 0.193256 -0.267241)
(-0.00512686 0.164713 -0.237068)
(0.00585041 0.0237753 -0.07446)
(0.000422781 0.0278203 -0.101291)
(-0.00685611 0.00423305 -0.0863375)
(0.0065866 0.024692 -0.120111)
(-0.00325793 0.0459924 -0.104786)
(0.00101577 0.0123364 -0.107161)
(0.0016441 0.0412094 -0.0933036)
(0.0114733 -0.0739244 0.117987)
(0.00406587 -0.0875362 0.136381)
(-0.000774524 -0.0678799 0.175748)
(0.0139271 -0.0230103 0.199193)
(-0.0200389 -0.00262752 0.162413)
(0.0159837 -0.0399241 0.182263)
(-0.00389082 -0.0218803 0.130426)
(0.00933975 0.454728 0.3553)
(0.135552 0.851599 0.58885)