/*--------------------------------*- C++ -*----------------------------------*\
| =========                 |                                                 |
| \\      /  F ield         | OpenFOAM: The Open Source CFD Toolbox           |
|  \\    /   O peration     | Version:  v2012                                 |
|   \\  /    A nd           | Website:  www.openfoam.com                      |
|    \\/     M anipulation  |                                                 |
\*---------------------------------------------------------------------------*/
FoamFile
{
    version     2.0;
    format      ascii;
    class       volScalarField;
    location    "0.35";
    object      alpha.water;
}
// * * * * * * * * * * * * * * * * * * * * * * * * * * * * * * * * * * * * * //

dimensions      [0 0 0 0 0 0 0];


internalField   nonuniform List<scalar> 
6576
(
1
1
1
1
1
1
1
1
1
1
1
1
1
1
1
1
1
1
1
1
1
1
1
1
1
1
1
1
1
1
1
1
1
1
1
1
1
1
1
1
1
1
1
0.145162
0.478552
0.914511
0.834264
0.789002
0.911339
0.914618
0.914511
0.914511
0.000656122
0.00064549
0.000643544
0.000784686
0.00064549
0.00064549
0.000643544
0.000223143
0.000542671
0.000214842
0.000985802
3.2768e-05
0.00022536
0.00148601
5.81579e-05
4.66936e-05
3.58303e-05
3.83529e-05
6.36487e-05
1.14678e-05
4.07688e-05
0.00159382
0.00198955
0.0022135
0.00073349
0.000769238
0.00221998
0.000906441
0.0051631
0.00517423
0.0051631
0.00359318
0.00168085
0.00517761
0.00436363
0.0141563
0.0142869
0.00943219
0.0223983
0.00942614
0.034868
0.0131128
0.00710172
0.00484082
0.0157491
0.0047669
0.005892
0.0138242
0.00711548
0.418542
0.358322
0.358118
0.358312
0.358236
0.358118
0.356917
0.435165
0.358272
0.358811
0.434856
0.358673
0.358711
6.16981e-09
1.90061e-109
1.2897e-09
2.96246e-13
1.26434e-14
5.54328e-10
7.14776e-10
0.263323
0.811284
0.951208
0.956628
0.912892
0.982087
0.920349
7.01592e-61
7.63269e-63
4.39905e-215
1.28491e-44
1.30366e-26
1.18551e-44
8.85822e-26
1.00788e-05
1.78696e-05
9.99534e-06
2.52765e-05
3.14872e-05
3.20082e-05
1.72388e-05
1.67945e-05
2.85594e-05
2.81613e-05
1.59294e-05
2.80246e-05
2.06638e-05
8.4568e-06
5.79171e-06
5.78373e-06
5.75584e-06
5.80384e-06
6.0015e-06
5.79616e-06
5.79781e-06
9.63388e-06
6.24898e-06
9.53498e-06
9.64494e-06
3.8355e-06
4.90862e-06
8.38091e-06
1.52088e-06
3.61884e-06
3.35465e-06
5.28223e-06
3.29751e-06
3.41343e-06
6.45003e-06
1.11611e-05
5.03566e-06
7.41059e-07
4.17603e-07
1.82564e-07
8.90774e-07
3.3369e-07
1.59988e-07
1.62101e-07
1.0985e-07
3.48033e-07
8.41544e-07
5.18066e-07
8.41544e-07
8.4062e-07
2.2119e-07
2.9985e-07
5.05678e-07
4.23871e-07
7.50613e-08
2.30023e-08
1.41679e-07
2.58442e-08
2.09855e-06
7.21403e-07
1.52635e-06
2.98262e-07
9.57762e-10
6.93468e-10
2.87478e-10
1.85699e-08
6.03491e-09
7.67266e-09
3.72016e-09
5.1701e-11
1.27193e-11
1.45573e-11
9.32295e-11
1.4462e-10
1.61745e-10
9.45227e-11
1.49167e-17
2.15487e-16
8.43014e-15
1.21554e-13
3.3921e-13
9.18316e-14
5.78793e-15
5.25037e-07
1.49293e-06
5.21781e-07
2.47725e-06
1.27502e-06
6.94812e-07
6.84834e-07
6.90139e-06
6.38787e-06
6.82426e-06
1.06203e-06
3.64328e-06
2.07778e-06
4.07806e-07
1.65126e-06
8.37989e-07
2.11604e-07
6.96026e-06
3.87422e-06
2.00776e-06
3.25751e-06
1.29055e-07
3.61222e-08
5.95341e-08
3.14235e-08
6.70962e-08
5.9544e-08
1.48772e-07
1.62979e-06
2.95416e-06
6.31743e-06
5.81575e-07
6.62835e-07
1.52685e-06
9.38258e-07
2.22967e-06
5.27094e-06
5.70703e-06
5.70703e-06
5.71894e-06
1.00672e-05
1.58573e-05
9.63485e-06
1.53538e-05
1.60841e-05
1.4624e-05
1.75376e-05
3.04522e-05
4.22171e-05
1.62885e-05
3.28815e-05
0.532777
0.4081
0.568768
0.569561
0.39596
0.500306
0.504711
0.403651
0.563773
0.927663
0.912969
0.927686
0.646855
0.920871
0.55536
0.843965
0.963635
0.962155
0.963635
0.963635
0.950442
0.963454
0.963561
0.963485
0.949252
0.701703
0.906498
0.4467
0.944183
0.959548
0.965018
0.956693
0.93405
0.948799
0.924813
0.0355218
0.0320929
0.032538
0.0654054
0.0331804
0.0525025
0.07345
0.163405
0.066463
0.0270541
0.0440487
0.0339454
0.0272802
0.0270854
0.0250169
0.0253763
0.000165545
0.000166536
0.000166903
0.000163908
0.000348074
0.000484492
0.000421878
0.012698
0.0290627
0.0133414
0.0196099
0.0192422
0.0125031
0.064046
0.0211337
0.0493251
0.0142222
0.299531
0.173563
0.0734687
0.0699208
0.0289149
0.0820101
0.0465225
0.0810638
0.0484472
0.0483123
0.0736855
0.670822
0.684956
0.606192
0.163199
0.573247
0.573247
0.573247
0.568144
0.573246
0.475566
0.57317
0.586193
0.525836
0.586366
0.396605
0.395632
0.5835
0.493176
0.5835
0.55111
0.0901103
0.0278262
0.149179
0.0266484
0.276539
0.0109445
0.0942864
0.00714353
0.00478054
0.00919124
0.00321645
0.00929934
0.0019151
0.00412367
5.23419e-05
5.23423e-05
6.41145e-05
5.23418e-05
5.23427e-05
5.23415e-05
5.23417e-05
5.23421e-05
5.23419e-05
0.00154233
0.00143659
0.00154189
0.0012409
0.00154189
0.000978733
0.00154331
0.0014544
0.00072775
0.00118023
0.000500413
0.000603415
0.00119582
0.000890779
0.0010298
0.0014883
0.0288405
0.0612444
0.166936
0.0724983
0.0255982
0.0167541
0.129599
0.944872
0.944871
0.944872
0.817068
0.926893
0.878242
0.94487
7.56835e-06
7.4837e-06
8.73029e-06
1.82453e-05
2.36591e-05
1.53549e-05
1.13012e-05
3.98628e-05
2.30304e-05
1.61617e-05
3.47942e-05
8.32907e-05
3.46476e-05
1.8031e-05
0.000113282
0.000154284
0.000153589
0.000149106
0.000153607
0.000154359
0.000154359
0.000130045
0.000104422
0.000129842
0.000124856
8.55583e-05
8.9327e-05
8.71032e-05
8.50081e-05
8.55583e-05
0.000289018
0.000221336
0.000167317
0.000253576
0.000161661
0.00019656
0.00013403
0.0497073
0.0497558
0.0898728
0.0497104
0.0497073
0.0497073
0.0600477
0.0230164
0.0131146
0.0485067
0.0907293
0.0692407
0.0384186
0.0907293
0.08909
0.084083
0.0890828
0.0890887
0.08909
0.0639404
0.08909
0.0890511
0.0886878
0.0888351
0.0610361
0.086614
0.0890378
0.0888375
0.088868
0.08909
0.0425939
0.0442985
0.0461147
0.0692074
0.00379147
0.00217684
0.00381112
0.00381112
0.00297919
0.00139655
0.00381112
0.00369746
0.00178774
0.00371756
0.00170197
0.00376067
0.00168379
0.00372284
0.00189159
0.00229686
0.00183597
0.00297892
0.0016179
0.00303957
0.00190694
0.000877315
0.00174935
0.000859854
0.00085844
0.00151105
0.000909849
0.000905482
0.000988638
0.000905107
0.00117372
0.000858181
0.000858181
0.00117795
0.000858181
0.00077495
0.00118568
0.000369786
0.000672453
0.00118616
0.000593794
0.000248781
1.96395e-05
3.33886e-05
2.65232e-05
3.9506e-06
9.13788e-06
7.14505e-06
1.03076e-05
2.20689e-05
1.4613e-05
4.71756e-06
4.2225e-06
2.08933e-06
2.07943e-06
4.73837e-06
3.44189e-06
8.59429e-06
2.0238e-07
4.29225e-07
8.6374e-07
3.87554e-07
2.01251e-07
2.86406e-07
6.14277e-07
1.8418e-06
1.06362e-06
2.21547e-06
1.05618e-06
1.14157e-06
1.47576e-06
1.98596e-06
9.97475e-07
8.90571e-07
7.20919e-07
1.80992e-06
4.09496e-06
1.03688e-07
4.02067e-08
2.24425e-08
2.22967e-08
2.66993e-08
3.62996e-08
8.47225e-08
3.12732e-08
1.88269e-08
1.65935e-08
2.45311e-08
1.64479e-08
1.62008e-08
1.61155e-08
9.9972e-07
2.08045e-06
2.54577e-06
2.43691e-06
2.54577e-06
2.24443e-06
2.39615e-06
0.00149174
0.000417201
0.00116968
0.000461028
0.000347831
0.00060817
0.00106895
0.00126246
0.00126246
0.00126246
0.000707601
0.000318621
0.000978915
0.00053488
0.00110405
0.00125672
0.000978192
0.000774439
0.000422892
0.000906191
0.000912298
0.00041282
0.00090208
0.655394
0.655314
0.317369
0.184032
0.241936
0.655371
0.652633
0.632489
0.56211
0.655182
0.651556
0.571697
0.655182
0.65529
0.110388
0.11042
0.604272
0.648797
0.650456
0.439386
0.537741
0.935737
0.935738
0.935738
0.935735
0.935735
0.935738
0.935738
0.939051
0.939053
0.939052
0.885935
0.938935
0.938429
0.93891
0.902939
0.912427
0.819556
0.889036
0.491181
0.492643
0.491181
0.891479
0.492581
0.888938
0.888675
0.835467
0.963115
0.807421
0.88125
0.807421
0.812125
0.962728
0.929123
0.962474
0.828142
0.68678
0.80417
0.686781
0.946359
0.828797
0.888214
0.963535
0.943282
0.90312
0.90312
0.936158
0.963308
0.964019
0.960033
0.949214
0.96334
0.950076
0.652399
0.357431
0.397061
0.661254
0.430955
0.521987
0.397996
0.964774
0.949055
0.963394
0.930105
0.886202
0.935336
0.928386
0.839898
0.132521
0.12694
0.132521
0.0413276
0.04261
0.0626581
0.0651554
0.630511
0.608138
0.630533
0.0509065
0.261015
0.744858
0.744858
0.744858
0.744515
0.587099
0.180028
0.436342
0.573246
0.476628
0.570299
0.414195
0.57385
0.432587
0.443721
0.566474
0.492818
0.56969
0.565213
0.539951
0.574769
0.570924
0.540001
0.57491
0.449568
0.540499
0.56185
0.573184
0.572864
0.572924
0.522774
0.519445
0.519426
0.569122
0.5704
0.519426
0.519426
0.567411
0.564941
0.517456
0.575942
0.453914
0.575993
0.575547
0.56969
0.57493
0.575197
0.575993
0.575993
0.573376
0.573405
0.573375
0.573324
0.573397
0.564056
0.572571
0.523254
0.166002
0.559793
0.559084
0.568394
0.570605
0.57046
0.0387045
0.0381212
0.0275112
0.0770398
0.0473996
0.03286
0.027383
0.0296664
0.0125781
0.0322101
0.0217539
0.0269039
0.02732
0.0267947
0.000189367
0.000189353
0.000189353
0.000189197
0.000189367
0.00019884
0.000280719
0.00047756
0.000373307
0.000538276
0.000487748
0.000373523
0.000476377
0.000738585
0.00312438
0.00312254
0.00159717
0.0017833
0.00149203
0.000757178
0.00133827
0.00114165
0.00042954
0.00158229
0.000359224
0.000519281
0.00041217
0.000772461
0.00124391
0.001096
0.000135444
0.000169621
0.000164982
0.000590237
0.000701828
0.000379653
0.00043663
0.000213383
0.00019388
0.000689765
0.000762475
0.000691809
0.00079814
0.00110655
0.00110573
0.00110757
6.6076e-06
1.47978e-05
1.46003e-05
9.24803e-06
8.84651e-06
1.64346e-05
6.47796e-06
4.16775e-06
2.61864e-06
4.04161e-06
1.65836e-06
7.51892e-07
1.34638e-06
1.92132e-06
1.2718e-06
2.47985e-06
1.90839e-06
3.24848e-06
9.60933e-06
7.58939e-06
1.13353e-05
1.19209e-05
2.86915e-05
8.04794e-06
3.12862e-05
3.35156e-05
0.000197032
0.000197032
0.000139922
0.000162261
4.53977e-05
3.40072e-05
0.000112946
0.00118533
0.000727858
0.000399593
0.000432585
0.000874559
0.000388332
0.000432157
0.200006
0.180419
0.119917
0.200096
0.200084
0.200096
0.168764
0.022159
0.010555
0.0485811
0.0642084
0.12193
0.0317967
0.184581
0.118782
0.10128
0.0796139
0.154327
0.20028
0.0796022
0.155812
0.156064
0.200292
0.200281
0.0704123
0.02835
0.0805415
0.081609
0.0654086
0.0621532
0.0524753
0.151602
0.129571
0.148201
0.147826
0.0907573
0.0497073
0.049795
0.00055201
0.00055201
0.000294736
0.000418672
0.000118448
0.000168248
0.00054622
0.00255993
0.000974677
0.00300704
0.00300704
0.00276782
0.00179755
0.0023761
0.00135787
0.00135719
0.00110822
0.000583057
0.000836655
0.00113892
0.000437868
0.000670176
0.00118635
0.00118538
9.56411e-05
9.48765e-05
5.49921e-05
5.02732e-05
2.87406e-05
3.23679e-05
5.68507e-05
2.12565e-05
3.65769e-05
1.65718e-05
3.87863e-05
1.46928e-05
2.54075e-05
2.72648e-06
2.87937e-06
4.42562e-06
2.13249e-06
2.20178e-06
3.08374e-06
7.4655e-08
2.27163e-07
8.62043e-08
8.79021e-08
8.13428e-08
9.0613e-08
8.8218e-08
6.31444e-09
6.84229e-09
6.17641e-09
1.01522e-08
6.77667e-09
7.65395e-09
1.34107e-08
1.65897e-07
1.18908e-07
2.79002e-08
1.93279e-08
1.67104e-08
7.98289e-08
4.55566e-08
2.29371e-08
2.67275e-08
9.23678e-08
7.92894e-08
2.22235e-07
7.97112e-08
1.47249e-07
3.4169e-07
1.32309e-07
5.81038e-06
8.82285e-06
7.7437e-06
6.17407e-06
4.51015e-07
6.97424e-06
4.81646e-06
3.36741e-07
6.0317e-07
4.08869e-07
3.73174e-08
5.53193e-08
4.10334e-08
3.56793e-08
2.04029e-07
2.02893e-07
7.49101e-08
9.02452e-09
7.07258e-09
1.39395e-06
9.51463e-07
8.53028e-07
2.13771e-07
9.85336e-07
3.15266e-07
1.20966e-06
1.3517e-06
2.63971e-07
0.00106968
0.00159688
0.00106976
0.00106968
0.00107866
0.00106984
0.0021842
0.00144852
0.00106968
0.000588011
0.00123509
0.000563269
0.000895917
0.00116328
0.00262199
0.00108509
0.000623653
0.000431284
0.000572308
0.00132521
0.00175106
0.000524601
0.000378065
0.00061376
0.000250426
0.000255754
0.000967174
0.000335581
0.00118585
0.000730485
0.00112218
0.0026062
0.00131563
0.00163533
0.00256817
0.00050201
0.000225256
0.000615062
0.000648828
0.736896
0.736896
0.736896
0.736887
0.594305
0.607186
0.467345
0.614657
0.612655
0.806658
0.861445
0.776904
0.766119
0.861443
0.61368
0.86143
0.635828
0.557433
0.55791
0.557434
0.861334
0.725589
0.780741
0.740248
0.535218
0.740845
0.627354
0.535199
0.568188
0.637897
0.539598
0.535199
0.768448
0.491363
0.871161
0.89244
0.961882
0.944399
0.962474
0.0066025
0.00675202
0.00668591
0.0123521
0.00767317
0.0107843
0.0177964
0.526163
0.52518
0.570411
0.57338
0.511561
0.335479
0.0385738
0.438089
0.126693
0.413695
0.573477
0.573405
0.573489
0.514197
0.515042
0.513977
0.145386
0.515042
0.133128
0.201388
0.297658
0.515042
0.0580268
0.460484
0.506589
0.51049
0.397057
0.51655
0.389618
0.396706
0.460842
0.462327
0.462327
0.459476
0.268746
0.268998
0.0133122
0.0125096
0.0296623
0.024779
0.0302039
0.0113937
0.0128612
0.0283144
0.0133354
0.05145
0.0308585
0.0533501
0.039858
0.0246672
0.00311278
0.000937271
0.00514006
0.00234149
0.00778147
0.00126913
0.00395321
0.000264754
0.000135522
0.000136948
0.000139331
0.000190035
0.000254074
0.000193807
0.342879
0.116477
0.5942
0.161586
0.630597
0.100803
0.0986704
0.588238
0.786723
0.899143
0.870439
0.89913
0.89913
0.898701
0.0113347
0.0253717
0.0167693
0.0734847
0.0397283
0.0248977
0.058151
0.00576981
0.00255201
0.00245709
0.0275876
0.00284657
0.00625721
0.0270064
0.00232176
0.0029082
0.00208136
0.00170271
0.00362867
0.00383354
0.0040609
1.48157e-05
9.21562e-06
2.94504e-05
8.67141e-06
7.56271e-06
7.52094e-06
1.56454e-05
5.18861e-06
5.749e-06
5.21259e-06
5.18861e-06
5.18861e-06
1.11065e-05
7.24362e-06
1.35359e-05
2.39816e-05
2.95821e-05
3.59183e-05
1.4624e-05
2.33924e-05
1.39118e-05
0.000337699
0.000239112
0.000311414
0.000312419
0.000240994
0.000429514
0.000335951
0.000856708
0.0027925
0.00055744
0.00287304
0.00166558
0.00123865
0.00135979
0.00139111
0.0015803
0.00155192
0.000668467
0.000674968
0.00152662
0.00136005
0.000780843
0.00135095
0.177488
0.223959
0.291401
0.177487
0.177487
0.177483
0.188713
0.0801858
0.0292538
0.0862048
0.291491
0.291404
0.120284
0.291404
0.162901
0.234516
0.137704
0.236291
0.236677
0.214921
0.132527
0.208053
0.123259
0.209291
0.211801
0.205489
0.208911
0.208126
0.236677
0.234023
0.236677
0.113805
0.115108
0.10964
0.200281
0.192776
0.20017
0.00012855
8.50086e-05
0.000216046
0.00010452
0.000168143
0.00015694
0.000226029
0.000130636
8.50081e-05
8.5502e-05
0.000130636
0.000100458
0.000126275
9.48981e-05
0.000291836
0.000294183
9.22966e-05
9.36856e-05
0.000289798
0.000127636
6.16184e-05
0.00013019
7.10091e-05
7.01359e-05
5.35693e-05
8.1837e-05
0.000142064
9.96686e-05
0.000287464
9.77901e-05
0.000208656
0.00028911
0.000162985
8.59788e-06
1.88977e-05
9.94599e-06
8.55417e-06
1.46803e-05
3.08351e-06
1.71752e-06
2.8098e-06
2.93114e-06
4.56977e-06
6.31291e-06
7.86287e-06
7.92277e-06
5.19921e-06
2.71163e-06
2.93427e-06
2.26232e-06
2.71753e-06
4.82787e-06
3.50196e-07
1.6696e-07
1.6302e-07
3.38094e-07
1.54083e-07
1.62525e-07
3.23861e-07
7.37373e-08
7.52344e-08
3.79887e-07
5.60623e-09
5.31988e-09
5.29862e-09
6.42157e-09
5.68654e-09
8.5111e-09
1.26962e-08
1.87697e-08
7.15262e-09
9.69454e-09
1.57353e-07
4.52307e-07
1.53848e-07
1.4501e-07
3.13562e-07
3.29336e-07
1.50044e-07
6.24965e-08
5.74203e-08
2.79675e-07
1.1743e-07
9.47641e-08
6.85043e-07
4.20559e-07
5.20361e-08
5.67501e-08
1.39816e-07
3.7454e-06
1.21506e-06
2.49538e-06
3.74965e-06
1.3945e-06
4.7629e-06
4.72528e-06
1.0083e-06
7.97986e-07
6.55792e-06
1.35926e-06
1.00659e-06
6.44323e-06
6.80176e-06
2.48287e-10
3.10705e-06
2.83169e-06
1.24788e-10
1.93466e-06
1.70745e-06
1.66187e-07
6.33814e-06
1.92716e-06
6.7797e-06
6.66888e-06
6.7797e-06
2.11056e-06
4.70075e-06
5.08089e-05
7.84993e-05
5.70223e-05
1.73978e-05
1.25563e-05
1.51853e-05
1.90936e-05
2.282e-05
2.30123e-05
4.70143e-05
3.36723e-05
4.48087e-05
1.91735e-05
3.99321e-05
2.27531e-05
2.27472e-05
3.86968e-05
2.27531e-05
3.15134e-05
2.55717e-05
2.30897e-05
0.00919998
0.00919947
0.00919656
0.00376429
0.00350661
0.00367514
0.0088771
0.00919581
0.00653285
0.00275701
0.00412508
0.0069417
0.00533489
0.00267243
0.00265812
0.00691095
0.000724006
0.000105871
0.00138474
0.000508
0.000105884
0.000780313
0.001485
0.000259903
0.000262329
0.000447075
0.00109291
0.00105096
0.000737911
0.00104697
0.000370685
0.000539607
0.000939133
0.00108889
0.00109291
0.000934527
0.0024008
0.000931542
0.000931417
0.00103253
0.00109261
0.00351021
0.00137578
0.00218558
0.00134683
0.00307076
0.0023474
0.00321502
0.000262264
0.000307619
0.000548113
0.000256592
0.000256103
0.000256228
0.000286972
0.000852235
0.00772494
0.00321867
0.00575931
0.00778179
0.00376985
0.00198293
0.3401
0.340684
0.255284
0.338342
0.294777
0.255681
0.255748
0.180543
0.336886
0.0693465
0.3335
0.099746
0.150135
0.0662941
0.0307985
0.0307519
0.0307519
0.0344427
0.0750003
0.0307873
0.0410742
0.337177
0.548608
0.442654
0.29394
0.291306
0.293205
0.295096
0.28028
0.230922
0.0926306
0.0926306
0.373132
0.617453
0.363136
0.33573
0.549043
0.28868
0.324112
0.572308
0.288997
0.736499
0.595222
0.660673
0.652661
0.780789
0.780789
0.487562
0.77813
0.78061
0.467345
0.833575
0.86085
0.860122
0.00170812
0.001185
0.00374461
0.00131982
0.0011748
0.00115543
0.00248176
0.396629
0.604568
0.566071
0.604568
0.604567
0.248171
0.604454
0.467824
0.389266
0.472557
0.573287
0.319594
0.581922
0.319575
0.381866
0.588399
0.46713
0.426448
0.319575
0.603615
0.0140131
0.0128788
0.00692467
0.00799834
0.0315609
0.0198223
0.00335695
0.00336356
0.00738185
0.00302721
0.00701943
0.0158034
0.020174
0.00685674
0.000770756
0.00077172
0.000314667
0.00027677
0.000577949
0.000570223
0.000273951
0.209727
0.102787
0.202563
0.150911
0.101969
0.0244191
0.0676557
0.0671601
0.0549606
0.00446964
0.00203197
0.00206674
0.12092
0.0490909
0.638269
0.323546
0.000170289
0.000161881
0.000154108
0.000285372
0.000188901
0.000154108
0.000153399
0.000319983
0.000278216
0.000412888
0.00116317
0.00019012
0.000205867
0.000442593
1.52867e-05
4.77023e-05
8.56528e-05
4.82323e-05
0.000399853
0.000121811
4.33396e-05
9.14435e-05
4.92322e-05
1.632e-05
1.12428e-05
3.95311e-05
5.13557e-05
4.36067e-05
6.68098e-05
0.000109897
8.15363e-05
0.000131181
0.000382594
0.000531705
0.000464695
0.000728789
0.00120183
0.000990734
0.00152618
0.190842
0.185642
0.247404
0.185642
0.248052
0.296879
0.579466
0.159413
0.322161
0.174834
0.2561
0.189969
0.314519
0.175904
0.599073
0.572865
0.58917
0.640184
0.645367
0.322161
0.268174
0.322161
0.130658
0.14073
0.571819
0.592965
0.64999
0.138107
0.384265
0.319514
0.0464497
0.121293
0.020928
0.222758
0.177483
0.177488
0.253246
0.000407217
0.000427666
0.00051019
0.000452249
0.000757343
0.000381538
0.000639869
0.000437638
0.00044181
0.000160125
0.00032334
0.000417587
7.3978e-05
5.79984e-05
0.000189415
0.00011883
0.000137325
6.33476e-05
8.14136e-05
3.58306e-05
3.34518e-05
4.86101e-05
1.44285e-05
2.26436e-05
5.0922e-05
1.84352e-05
6.02877e-05
5.85316e-05
6.85545e-05
0.00018617
0.000250278
9.09135e-05
0.000133397
8.32764e-06
4.80367e-06
4.79399e-06
1.05679e-05
5.89307e-06
4.98417e-06
4.79832e-06
3.82104e-06
9.86172e-07
8.37896e-07
3.50194e-06
2.91946e-06
3.7578e-06
6.2985e-06
1.019e-06
3.74983e-06
1.01877e-06
3.44281e-06
1.68093e-06
2.98367e-06
6.79832e-06
3.61863e-06
1.31191e-06
1.68339e-06
4.37878e-06
7.14248e-11
6.79832e-06
4.8571e-13
1.27583e-11
4.51143e-19
2.72517e-11
8.04791e-12
2.98394e-13
7.75117e-13
7.66053e-09
2.3755e-10
1.89804e-09
7.4184e-43
6.13704e-57
1.0505e-20
1.03303e-21
4.78546e-21
1.30731e-26
2.18694e-44
1.03855e-43
4.0335e-27
5.59334e-16
3.04822e-16
9.74113e-18
7.00798e-18
4.1518e-18
2.54334e-18
3.88776e-19
0.32399
0.823563
0.972084
0.950329
0.985074
0.949185
0.929329
0.000925747
0.00199925
0.000532277
0.00651255
0.00177088
0.000439864
0.000467859
0.00235838
0.022617
0.00515764
0.0148654
0.00249896
0.0722532
0.00916009
1.52474e-09
2.2454e-09
2.27819e-09
1.64399e-09
4.16271e-08
1.00803e-08
2.77401e-10
7.81516e-07
1.07243e-05
8.16642e-06
3.2146e-08
0.000181273
8.01416e-08
5.12693e-05
8.67865e-05
8.61883e-05
3.44978e-05
0.000217938
0.000122085
3.72778e-05
2.97625e-05
4.89002e-09
1.13638e-07
7.78813e-08
7.06472e-08
1.45009e-08
3.1499e-09
5.49762e-08
1.465e-07
2.38484e-08
0.000133083
2.54685e-05
2.11575e-05
5.42348e-05
2.1659e-05
5.56404e-05
0.000372076
1.84502e-05
1.04528e-05
2.82573e-06
2.50191e-05
1.24312e-05
7.44658e-07
1.65311e-05
0.000155576
0.000127329
6.20447e-05
8.02389e-05
0.000187708
6.1846e-05
8.14622e-05
0.00143599
0.00136607
0.00143599
0.000792027
0.00109634
0.000497517
0.000791085
0.0268746
0.0169439
0.0362905
0.0198101
0.0461226
0.0257504
0.00718347
0.086302
0.0772857
0.0891242
0.25212
0.0772857
0.115761
0.315374
0.176869
0.0427972
0.0427122
0.0428018
0.0427897
0.0602747
0.0427235
0.042805
0.0427897
0.0786625
0.441079
0.427677
0.441812
0.0909955
0.443011
0.185041
0.431872
0.432723
0.328262
0.183311
0.432094
0.0788774
0.056664
0.43271
0.259682
0.0428127
0.355911
0.35408
0.356533
0.315688
0.116714
0.180329
0.030952
0.0660462
0.235747
0.0901212
0.593315
0.083856
0.0708075
0.329527
0.085719
0.196934
0.0856948
0.617578
0.617578
0.617312
0.127553
0.13709
0.127553
0.394297
0.175644
0.128883
0.129127
0.000453751
0.000751399
0.00182877
0.00174271
0.00284515
0.000751799
0.0011299
0.000188962
0.000188962
0.000188962
0.000194443
0.000188962
0.000188981
0.000208037
0.0262751
0.105332
0.109944
0.0556992
0.00906054
0.00974772
0.0528992
0.0203774
0.0200026
0.0399321
0.0598753
0.0255422
0.0202916
0.109279
0.896005
0.897248
0.89769
0.884421
0.89657
0.898602
0.835935
0.697261
0.811018
0.811018
0.811018
0.811018
0.810384
0.000590537
0.00116436
0.0013215
0.00223383
0.00189898
0.00612791
0.00319705
0.0108415
0.017104
0.0164556
0.0388127
0.0221979
0.0656389
0.0328385
0.162661
0.243281
0.0862214
0.418382
0.806382
0.358192
0.159735
0.803962
0.387522
0.732076
0.806006
0.647204
0.801553
0.805914
0.569439
0.568547
0.56935
0.80481
0.804889
0.713693
0.802795
0.568547
0.679991
0.801996
0.0131485
0.016724
0.0130994
0.0190327
0.0229731
0.0175236
0.034563
0.00179565
0.00219202
0.00149235
0.00727022
0.00469989
0.0036388
0.00528228
0.00018655
0.000116435
0.000188139
0.000702511
0.000364164
0.000431073
0.000286921
6.84298e-06
7.25265e-06
1.25018e-05
7.21203e-06
7.14506e-06
8.76949e-06
1.10848e-05
4.77728e-08
4.77728e-08
6.19712e-08
1.17509e-07
7.47602e-08
6.23239e-08
9.64687e-08
1.37089e-07
5.88256e-08
2.06464e-07
2.04953e-07
1.95236e-07
4.97925e-07
3.0104e-07
2.47793e-07
4.90887e-07
5.82133e-07
2.42146e-06
1.84903e-06
2.83465e-09
2.0085e-09
7.13325e-09
1.72088e-09
6.26644e-09
3.23326e-09
2.06471e-08
0.918529
0.699424
0.967589
0.745679
0.843777
0.191177
0.889222
0.00153317
0.00559625
0.0022946
0.00131311
0.00400723
0.0057539
0.00261981
0.000476299
4.12584e-05
0.00019255
8.86814e-06
1.12923e-05
3.12353e-05
0.000122406
1.56951e-10
7.1517e-11
6.04401e-11
8.51465e-07
5.10502e-09
1.03278e-06
3.81832e-09
2.97658e-07
1.21872e-07
8.43789e-07
1.3808e-07
2.6332e-09
6.32417e-08
9.53499e-09
2.55563e-08
8.42555e-15
1.5033e-08
2.40826e-09
9.52714e-09
2.7596e-12
1.7577e-13
5.4741e-11
6.60927e-11
4.47065e-11
9.12798e-10
2.45053e-10
2.09967e-09
1.87955e-09
4.606e-09
1.27854e-09
4.08971e-10
5.69732e-10
1.97678e-09
3.82542e-05
5.99199e-05
2.50105e-05
0.000187291
6.36002e-05
1.60439e-05
7.57808e-05
0.00116683
0.00116683
0.000829447
0.00113021
0.00116683
0.00105479
0.00101577
0.000480822
0.000479591
0.000479556
0.000646414
0.00064648
0.000516674
0.000646392
0.000345461
0.000341799
0.000345632
0.000385075
0.000516166
0.00052449
0.000521298
0.000340587
0.000344818
0.000816378
0.000951567
0.00046718
0.00103418
0.00105009
0.000469775
0.00046718
0.119849
0.114938
0.324987
0.245723
0.380384
0.0482256
0.380223
0.0916102
0.345154
0.0884834
0.344562
0.333768
0.333768
0.33384
0.380286
0.364739
0.380384
0.203807
0.345154
0.34496
0.345154
0.204728
0.339095
0.251311
0.0772857
0.0772857
0.222296
0.157113
0.156698
0.225734
0.156698
0.318236
0.316133
0.0428889
0.443011
0.0873909
0.332888
0.158367
0.140971
0.331399
0.136935
0.332924
0.230119
0.133676
0.193424
0.0416692
0.0170702
0.0436009
0.0495016
0.0501985
0.00028738
0.000153292
0.000153206
0.0002405
0.000428897
0.00225946
0.00203021
0.00203214
0.00359006
0.00233462
0.00236121
0.00360708
5.19296e-05
7.60705e-05
5.18658e-05
5.18658e-05
5.19296e-05
5.85884e-05
5.18944e-05
0.000488214
0.000917883
0.000943242
0.000491069
0.000684029
5.69091e-05
0.000193704
0.00021461
0.000136264
0.000179034
0.000110013
6.36386e-05
0.00025851
0.000203221
0.000222609
0.000254074
0.000255012
0.000254859
0.000255784
0.0049389
0.00289127
0.00487671
0.00302735
0.00323418
0.000756774
0.00304914
0.893912
0.772816
0.247501
0.92555
0.933502
0.933459
0.933534
0.933533
0.929115
0.933528
0.916551
0.900022
0.916551
0.749135
0.916762
0.849454
0.906951
0.908303
0.909178
0.919451
0.919172
0.902013
0.750572
0.921476
0.928905
0.822185
0.566514
0.616505
0.566294
0.79359
0.748337
0.702511
0.789848
0.728511
0.390588
0.728511
0.738224
0.738224
0.738224
0.737552
0.73785
0.738224
0.559696
0.000358557
0.000358557
0.000195914
0.000356666
0.000302694
0.000206422
0.000358557
0.000353626
0.000103072
0.000185146
0.000358422
0.000256563
7.70789e-05
0.000263841
1.45629e-07
3.92276e-07
4.2323e-07
8.17731e-08
2.04142e-07
2.10851e-07
8.38445e-08
3.06092e-07
7.19221e-07
1.20875e-08
1.05179e-07
1.42109e-07
9.61027e-09
2.26917e-08
1.9834e-09
2.24839e-09
3.12869e-09
1.54827e-09
1.50363e-09
1.79102e-09
9.30979e-10
1.56296e-09
2.89899e-09
2.9203e-10
8.04073e-10
1.14601e-09
2.58596e-10
6.29655e-10
9.13556e-05
9.9883e-05
0.000215742
0.000153856
0.000335288
0.000380309
6.1703e-05
1.81963e-05
1.25706e-05
1.25508e-05
1.25563e-05
1.2592e-05
4.10502e-05
3.3806e-05
1.56393e-05
3.07394e-05
3.94359e-06
1.56716e-05
3.94217e-06
8.15646e-06
8.05451e-06
2.46374e-05
1.68121e-05
1.25689e-08
6.05485e-08
2.64998e-08
3.58196e-09
3.0395e-08
9.72486e-09
5.02523e-09
2.11343e-08
1.16794e-08
1.01855e-08
1.2482e-10
3.7983e-16
2.94122e-10
1.39593e-16
6.10776e-11
1.59154e-11
1.22636e-10
4.15271e-11
1.49375e-19
2.18692e-11
8.5408e-13
9.67401e-12
3.34832e-16
5.81067e-12
4.2319e-12
2.50697e-12
4.6761e-17
1.38311e-18
6.96027e-17
9.14488e-13
1.9668e-13
2.09765e-13
1.71005e-13
1.26938e-06
1.78235e-06
5.80657e-06
2.27562e-06
4.90994e-06
4.00761e-05
2.03823e-05
1.90706e-05
8.75635e-06
0.000144911
0.00020076
0.000164694
0.000202965
0.000136582
0.000134124
0.000136284
0.00109741
0.000559311
0.0011075
0.00108305
0.000684337
0.00114824
0.000629387
0.325925
0.261838
0.257816
0.318743
0.325919
0.317757
0.249086
0.279268
0.213149
0.326155
0.326033
0.325821
0.326155
0.326155
0.325368
0.207852
0.189648
0.373628
0.373629
0.373629
0.32557
0.11196
0.247148
0.38019
0.333848
0.37986
0.000753596
0.00113559
0.000370746
0.00110145
0.00185596
0.000353309
0.00119485
0.00136074
0.00147076
0.00275618
0.00127984
0.00069985
0.00259884
0.00248195
0.0522763
0.0193947
0.0160079
0.0290683
0.00759094
0.0148287
0.0145691
0.00214191
0.00352948
0.00549653
0.0039957
0.00330911
0.00389702
0.0107715
0.00940493
0.00366187
0.0137165
0.00234706
0.00521939
0.00556147
0.0128918
9.62294e-05
0.000182372
0.000212951
0.00133997
0.000437568
0.000206496
0.000911063
0.00128718
0.00154277
0.00152418
0.00151339
0.00154255
0.00154265
0.000821387
5.2353e-05
5.36002e-05
5.23705e-05
5.33058e-05
0.000193363
0.000569158
0.000570375
0.00110883
0.000570953
0.000715814
0.00107735
0.00107368
0.000137952
0.000113217
9.47558e-05
0.0001961
0.000468794
0.00019604
0.000380931
0.000384632
0.000269628
0.000501856
0.00082866
0.00113849
0.000702208
0.000509354
0.919594
0.919594
0.920539
0.878057
0.878276
0.878057
0.877803
0.878214
0.878276
0.878276
0.901013
0.901988
0.901013
0.901013
0.520487
0.836548
0.865103
0.865308
0.86511
0.865332
0.865165
0.856778
0.58124
0.865913
0.877915
0.615096
0.182965
0.345898
0.135827
0.0964782
0.179302
0.043852
0.0817557
0.864345
0.925799
0.783102
0.764851
0.843422
0.70979
0.817579
0.473464
0.370166
0.370166
0.370166
0.370301
0.425949
0.370646
0.590365
0.575011
0.926276
0.559492
0.54937
0.612535
0.116005
0.157596
0.191558
0.679741
0.523758
0.424353
0.202223
0.0754265
0.0416596
0.162545
0.0649059
0.0653833
0.0556819
0.085392
0.0434732
0.0544865
0.000214999
0.000862438
0.000211899
0.000431532
0.000213526
0.00115728
0.000227841
0.00289658
0.00271889
0.00425903
0.00132856
0.000586467
0.00903325
0.00519659
7.85964e-10
1.86923e-09
1.21259e-09
1.91154e-09
3.15406e-09
5.42105e-10
1.38984e-09
1.1618e-12
6.48294e-13
4.65406e-13
3.81731e-09
2.39122e-09
1.42111e-09
9.7217e-09
2.74115e-08
7.24814e-09
2.90379e-09
1.69874e-10
1.0545e-11
6.44821e-10
1.12471e-08
3.21959e-09
4.28384e-11
7.76109e-11
9.18946e-10
4.31993e-10
1.33103e-11
2.7639e-12
1.36269e-12
8.56725e-09
2.23083e-09
3.20732e-10
1.29857e-08
5.61751e-08
8.07709e-09
1.38021e-10
2.20286e-09
1.00851e-09
1.30938e-08
3.75225e-09
1.82082e-08
2.71664e-08
3.14005e-07
7.16891e-08
1.62314e-07
4.9199e-08
7.65741e-08
1.87542e-07
9.89684e-08
6.41398e-08
3.73905e-07
1.31923e-06
0.000951197
0.000638266
0.000141842
0.000139752
0.00029233
0.000955333
0.000633929
0.312903
0.313428
0.312903
0.208853
0.1612
0.309157
0.316207
0.316942
0.316496
0.0523172
0.224499
0.316499
0.0823128
0.312242
0.325992
0.325992
0.325992
0.000219548
0.00021953
0.000401764
0.000219548
0.000219532
0.000219522
0.000219532
0.0007425
0.00104817
0.000799477
0.00145237
0.00193615
0.00120631
0.00169283
0.000826641
0.000505068
0.000515698
0.000647656
0.00189623
0.00206076
0.00353489
0.000220636
0.000284451
0.000220736
0.000254281
0.000220138
0.000223643
0.000565475
0.000341951
0.000424619
0.000340422
0.000340422
0.000340422
0.000482186
0.000423719
0.00032366
0.000307079
0.000378526
0.000456839
0.00028382
0.000409208
0.00083238
0.000319429
0.000260276
0.000301374
0.000263147
0.000256932
0.000257576
0.000259013
0.0026062
0.00188203
0.00258675
0.00146197
0.00241263
0.00136845
0.00173621
0.000281606
0.000599064
0.000554402
0.000269921
0.000417744
0.000350439
0.000342172
0.00103863
0.00028052
0.00203924
0.00170168
0.0026062
0.000121554
8.03855e-05
0.000130143
4.96837e-05
7.13812e-05
9.37481e-05
4.93945e-05
7.50414e-05
4.93945e-05
0.000132581
0.000276534
0.000131194
0.000151016
0.000518607
0.000179405
0.000294282
0.000205186
0.000449417
0.000230079
0.00022792
0.000400948
0.000402377
0.000294176
0.000163196
0.000140324
0.000232213
0.000167358
0.000168333
0.0002627
0.000190652
0.000358349
0.000757883
0.00154137
0.00153907
0.00150237
0.000541795
0.000976791
0.000639264
0.00126655
0.00154368
0.00146945
0.00154195
0.00154548