/*--------------------------------*- C++ -*----------------------------------*\
| =========                 |                                                 |
| \\      /  F ield         | OpenFOAM: The Open Source CFD Toolbox           |
|  \\    /   O peration     | Version:  v2012                                 |
|   \\  /    A nd           | Website:  www.openfoam.com                      |
|    \\/     M anipulation  |                                                 |
\*---------------------------------------------------------------------------*/
FoamFile
{
    version     2.0;
    format      ascii;
    class       surfaceScalarField;
    location    "0.35";
    object      alphaPhi0.water;
}
// * * * * * * * * * * * * * * * * * * * * * * * * * * * * * * * * * * * * * //

dimensions      [0 3 -1 0 0 0 0];
oriented        oriented;


internalField   nonuniform List<scalar> 
13152
(
9.77057e-07
2.02802e-05
-1.61469e-06
-1.96426e-05
1.87004e-05
-1.7118e-05
-6.05333e-07
-3.47701e-06
4.24576e-05
-3.46513e-05
3.54292e-05
-2.39257e-06
2.12142e-05
-7.55081e-05
2.85276e-05
-2.44314e-05
6.04798e-05
-1.6104e-05
-2.95503e-05
-2.84158e-05
7.40701e-05
3.88637e-07
-1.67922e-05
2.9964e-07
-2.99074e-05
7.45753e-07
7.84952e-06
5.16045e-06
-2.98022e-05
7.8202e-06
3.28962e-07
-5.07705e-06
-1.55186e-05
-2.9824e-05
-8.64596e-06
-1.46137e-05
-5.1314e-06
2.8391e-05
-6.90205e-08
-8.66623e-06
8.92947e-08
-1.4145e-05
-5.37653e-07
5.66066e-06
-3.05625e-05
1.62356e-05
-2.93312e-05
2.98605e-05
2.93626e-05
-5.06254e-07
3.87937e-08
-1.52284e-05
-2.99058e-05
1.20514e-07
-7.49364e-05
3.3232e-07
1.59925e-05
3.01848e-05
8.02787e-09
7.45683e-05
3.58101e-05
1.2673e-05
2.53853e-05
-7.38684e-05
3.51815e-07
-7.00974e-07
3.61592e-05
1.24195e-05
2.52921e-07
-1.87716e-05
7.36487e-05
7.78675e-05
2.91831e-05
-7.26178e-07
-2.93959e-05
9.38957e-07
-1.64108e-05
-2.69135e-05
7.25075e-05
1.78026e-07
-1.7315e-05
-8.07513e-06
8.01113e-06
2.4202e-07
5.29622e-06
-3.06864e-05
-4.96853e-06
-1.39339e-05
-2.90682e-05
-1.38115e-05
1.19654e-07
2.91508e-05
2.02262e-07
2.91149e-05
9.96222e-07
-1.83616e-05
-1.1894e-05
-2.82153e-05
6.58263e-07
5.5525e-05
-2.13127e-05
-5.18065e-06
-4.55426e-05
-2.65379e-05
7.55863e-05
-4.34465e-06
-5.7859e-05
5.67881e-06
-9.30609e-06
-1.75211e-05
3.30116e-06
-2.6828e-06
-1.3013e-05
-1.00121e-05
-2.65428e-05
-1.70273e-09
2.0352e-08
-3.46895e-09
-1.59691e-08
3.39641e-08
-1.10489e-08
-2.55279e-08
-1.00295e-08
-3.46504e-08
1.25298e-08
6.00607e-09
-2.97899e-08
1.2562e-08
-4.41124e-09
-4.70795e-08
4.66544e-08
-7.84224e-08
-6.1565e-09
-1.18415e-08
-1.16771e-09
1.96277e-08
-5.81592e-09
-9.14828e-09
9.91704e-09
-1.68238e-08
1.3818e-09
-2.91386e-10
3.15794e-08
-4.11347e-08
2.30705e-09
-5.18725e-11
-1.90351e-08
2.07619e-08
5.80066e-09
1.68985e-11
9.31099e-11
9.79561e-10
-2.75432e-10
2.65012e-10
2.13656e-10
-1.84939e-10
1.48898e-11
4.5802e-10
6.60961e-10
7.27692e-11
-2.99442e-10
-1.9524e-11
2.30909e-09
3.24273e-10
-1.25587e-11
1.60633e-09
-5.55741e-08
-8.42666e-08
-3.19922e-08
1.74948e-07
-1.66324e-08
-4.51427e-08
2.71864e-08
-3.98713e-09
-4.455e-08
6.52268e-08
-1.65978e-08
-9.2055e-08
-1.06355e-07
1.50511e-07
-9.71709e-08
2.71127e-08
-1.42392e-07
4.9579e-08
4.75629e-08
-5.3244e-08
-3.01615e-08
-1.90229e-08
-8.62816e-08
1.55204e-07
-8.37697e-08
1.22612e-07
4.88914e-08
1.16694e-07
-1.79896e-07
1.56965e-07
-7.70693e-08
-2.52697e-07
2.77495e-07
-1.66947e-07
-1.9958e-07
-2.37612e-07
-6.03352e-08
4.86159e-07
-1.46973e-07
5.81191e-10
-6.73438e-08
-3.60781e-07
-1.76428e-07
2.28755e-07
-1.1256e-07
-7.05257e-07
6.40477e-08
-1.23158e-07
3.0025e-07
-6.4515e-07
2.52766e-07
-2.87081e-07
-8.22655e-07
-1.50772e-07
1.20588e-06
-2.77312e-08
2.4986e-08
-3.10289e-07
-1.24582e-06
2.38789e-07
-1.622e-07
1.33474e-07
3.93307e-08
3.1051e-07
-8.16982e-07
7.64531e-07
-1.66534e-06
7.24003e-07
6.84559e-06
-1.88353e-07
-6.3788e-06
4.25278e-07
-1.16421e-05
-3.59933e-06
2.22114e-05
2.76745e-07
-1.17797e-05
-4.47136e-06
-2.24649e-05
2.38737e-05
-2.2516e-05
1.17765e-05
-2.37159e-05
1.80853e-06
-5.78107e-05
1.15279e-05
9.53758e-06
2.32852e-05
-4.40947e-05
-1.16052e-06
5.98602e-06
5.57539e-06
3.77128e-06
5.1379e-06
8.92307e-06
2.05566e-05
-3.46547e-06
1.57394e-05
6.40512e-06
-1.48959e-113
3.1858e-13
1.71428e-14
-2.61511e-13
0
0
0
1.55689e-14
3.15001e-13
1.62601e-18
6.47224e-18
-7.02031e-18
3.88318e-19
1.29223e-18
-1.689e-14
3.3811e-14
2.04411e-15
1.8398e-05
6.88646e-07
-1.82017e-05
-1.0061e-08
-2.31971e-05
-2.69876e-05
6.89201e-05
4.97427e-07
-2.31999e-05
-2.56692e-05
2.60045e-05
-1.37996e-07
2.00688e-05
-7.03093e-05
-1.0268e-06
-3.92728e-08
-9.8302e-09
-7.0942e-68
-6.19089e-219
0
0
-3.97491e-219
0
-1.25599e-67
0
0
0
3.23695e-50
-5.35267e-50
-1.67228e-30
1.57002e-30
0
6.16562e-50
-3.77032e-30
2.68809e-10
8.19459e-11
-5.70101e-10
-1.06094e-10
-4.25224e-12
-1.63767e-09
1.66227e-09
-5.60497e-10
4.34066e-10
1.37156e-09
3.49356e-10
-2.82648e-09
7.82849e-10
-1.79168e-10
8.22055e-10
-1.67052e-09
3.28807e-10
2.61775e-10
9.8914e-10
2.75978e-10
-1.02133e-09
5.10881e-10
-1.86918e-10
2.67148e-10
6.09893e-10
1.29695e-09
1.00092e-09
-6.86207e-10
1.71122e-11
-2.74683e-10
1.82365e-09
-7.54301e-10
1.2387e-09
-1.17776e-09
-1.48031e-10
-4.28764e-10
3.21708e-13
5.76663e-10
-1.49082e-10
1.84265e-10
-1.8396e-10
-3.24222e-10
-2.40299e-10
-3.70452e-10
1.08227e-10
4.44741e-10
1.47e-11
-5.10923e-10
4.58756e-10
-7.67676e-10
5.6557e-10
-2.22393e-11
3.57635e-10
5.4541e-10
-8.25206e-10
2.68421e-10
2.22439e-10
-6.82207e-10
2.9026e-10
4.20612e-10
-1.53456e-11
2.12671e-10
3.64027e-10
1.15978e-10
6.66451e-11
2.10232e-10
-2.04817e-10
2.84284e-10
-2.95278e-10
9.45297e-10
1.296e-11
-1.09244e-10
-7.00694e-11
-1.5521e-10
3.22342e-11
2.07327e-10
-2.12657e-10
2.04826e-10
-2.83115e-10
-2.39294e-10
1.47897e-11
1.59593e-10
-5.45801e-10
-2.75092e-11
-6.63124e-11
-8.07715e-10
5.16898e-10
-1.05409e-09
4.09869e-10
2.49789e-12
9.80157e-12
2.36831e-11
-5.54123e-11
2.89602e-12
5.496e-12
-1.92995e-11
4.74758e-12
4.13338e-12
3.03987e-11
4.63152e-11
-7.72353e-11
1.26455e-11
1.73951e-11
-4.34799e-12
-1.19746e-11
1.64983e-11
-1.02819e-11
6.13485e-12
1.16493e-11
-1.10056e-11
3.52618e-11
-8.72958e-12
5.51314e-12
1.84476e-11
-1.10816e-11
1.03554e-11
4.37204e-12
-2.94198e-11
5.37526e-12
1.68167e-11
-1.65023e-12
6.1509e-12
1.5108e-11
2.04648e-12
-1.3886e-13
9.99152e-12
-3.87154e-12
3.69084e-12
-3.38048e-12
3.60776e-11
-7.20089e-13
6.31671e-13
-2.55039e-12
-6.63284e-14
-4.41823e-13
3.51128e-13
2.25418e-14
-2.42633e-13
-1.83296e-12
3.06159e-12
6.06632e-13
-1.63023e-12
2.94935e-11
-2.22836e-11
-2.26023e-11
-6.70906e-12
9.48333e-12
-2.65247e-11
2.98069e-12
-2.07904e-17
1.42417e-15
4.70332e-18
3.34672e-14
-8.75146e-15
4.18827e-15
1.23948e-15
3.68581e-15
-5.59995e-15
2.20419e-13
-5.27289e-14
-5.51478e-14
-1.44745e-13
4.23796e-13
3.48614e-15
-1.75217e-13
-3.01212e-16
-1.92943e-16
1.0948e-16
8.43378e-16
-4.2632e-16
2.82725e-16
1.01549e-16
-7.03583e-16
2.2895e-16
1.47856e-16
-3.91821e-15
-9.7165e-16
-5.27443e-15
2.83777e-16
5.92345e-15
-1.23787e-14
4.65504e-15
1.87463e-21
1.78678e-21
1.80631e-21
-5.68524e-21
-2.82871e-20
2.55164e-20
2.32661e-21
1.02353e-18
-1.23639e-18
-4.50273e-17
-6.57972e-19
4.47137e-17
-1.13076e-17
-3.86533e-17
7.71204e-19
-1.30756e-17
7.60141e-20
-1.00215e-11
-1.15783e-12
4.03956e-12
3.24238e-12
1.38279e-11
2.32572e-12
-3.10121e-11
1.12411e-11
-1.49045e-12
3.87699e-12
2.54087e-12
1.08772e-11
1.15126e-11
-6.05265e-12
1.80435e-12
1.07009e-11
1.54096e-11
-2.02042e-12
1.40488e-12
7.58314e-12
-5.4726e-12
3.47546e-12
9.11007e-12
9.70344e-12
-1.14709e-12
-8.46716e-12
3.5831e-12
9.13656e-13
9.84355e-12
-2.29092e-11
-3.09659e-12
3.85651e-11
-1.05567e-12
9.67139e-12
9.52808e-13
-4.30847e-11
1.03641e-11
-2.12352e-12
1.34854e-12
1.05032e-11
7.6968e-13
-8.96276e-13
1.0652e-10
1.71283e-12
-1.42532e-10
2.283e-11
-1.89548e-11
3.23179e-11
-3.10145e-11
1.43217e-12
3.09988e-12
5.22769e-13
-7.67783e-12
5.99776e-13
2.33637e-13
-2.75026e-13
1.59161e-13
2.42158e-12
-9.10656e-13
-1.48468e-13
1.00499e-12
-1.89552e-12
-2.88064e-13
-3.14963e-12
2.62218e-12
-6.15765e-12
5.58271e-11
-1.99566e-10
-3.3504e-12
4.42633e-11
-3.53658e-10
5.18951e-11
5.5002e-12
-8.13958e-10
2.51819e-11
-4.55181e-11
-8.15236e-12
7.09447e-12
3.59239e-11
2.05298e-11
-4.51886e-11
-3.98206e-11
-1.50317e-11
3.1507e-11
-7.6467e-11
8.56833e-11
-1.83202e-10
1.22514e-10
-1.87398e-10
3.69072e-10
-2.3429e-10
-3.77994e-10
2.95157e-10
5.30624e-10
-1.06777e-09
-5.45426e-10
-1.19745e-10
-6.87641e-10
-3.17522e-10
-2.30109e-10
3.16977e-10
-5.77625e-10
2.21748e-09
-1.35614e-10
-2.29185e-09
1.97982e-10
-2.24718e-09
-8.83362e-10
5.46856e-09
-2.1146e-09
-1.2033e-09
8.36599e-09
6.23175e-10
-1.17256e-08
4.67379e-09
3.16273e-09
-3.27252e-09
6.91686e-09
-5.45959e-09
-7.68025e-06
1.71565e-06
8.47669e-06
-1.59045e-06
7.45871e-06
1.76855e-06
-1.73646e-05
4.49372e-06
7.76996e-06
-3.26235e-06
1.03463e-05
1.50586e-06
8.45321e-06
-1.00779e-05
5.00517e-06
-2.16878e-05
2.7534e-05
-1.39251e-05
3.22796e-05
4.20448e-06
-1.78341e-05
7.69942e-07
-4.06459e-06
-7.8844e-07
5.69158e-06
-6.70764e-07
1.30822e-05
1.11768e-06
-1.7984e-05
-5.65226e-07
1.36463e-05
3.49645e-06
1.17216e-05
-1.35505e-05
2.0448e-05
-1.09994e-05
2.4121e-05
-5.81255e-06
6.08341e-05
-2.96605e-05
-1.18845e-05
-2.35085e-05
6.51181e-05
-1.64011e-06
-3.78535e-05
8.8504e-06
-1.28574e-05
-6.1549e-07
1.30949e-05
8.05201e-06
-3.39772e-05
1.29916e-05
-7.12272e-07
5.7803e-05
-2.57633e-05
-6.97564e-05
-3.48799e-05
6.92494e-05
4.61622e-06
-2.22799e-05
-1.73658e-05
8.4004e-06
8.23057e-06
-3.00547e-05
-2.38592e-06
-8.42163e-06
-1.39004e-07
2.91583e-05
-2.59639e-05
-1.93979e-06
1.4435e-05
-1.54524e-05
4.11194e-08
-2.6584e-05
7.04514e-05
6.28546e-06
4.01254e-06
-2.58118e-05
6.65869e-06
-4.28118e-07
-5.00914e-06
-1.43481e-05
-2.66582e-05
-5.07569e-07
-6.24752e-07
-2.0292e-07
1.04161e-06
-8.51489e-08
-1.11447e-06
2.90243e-07
-5.27617e-08
-1.18087e-06
1.0441e-06
-1.31391e-06
-1.3351e-06
-5.26015e-07
1.12051e-06
-6.43705e-07
-6.63997e-07
-3.35762e-06
5.0091e-06
1.2521e-07
-4.56194e-06
-5.50488e-07
-1.14665e-06
-8.38243e-07
6.96369e-06
-1.06923e-06
7.04998e-09
6.29075e-07
-7.24742e-07
-4.44502e-06
-5.61982e-07
3.389e-07
1.28846e-06
6.0579e-07
-2.97552e-06
1.27256e-06
-1.00519e-10
-1.32039e-07
8.20861e-07
-2.68177e-07
2.22036e-09
1.42405e-09
-1.30586e-09
-2.37932e-09
-2.88369e-09
-3.38938e-09
8.43633e-09
-2.74791e-09
1.17944e-09
-2.2591e-09
6.12371e-09
-5.12871e-09
3.08123e-09
-8.64597e-09
-1.0387e-08
1.35077e-08
-1.0182e-08
9.84649e-08
-2.38868e-07
4.73197e-07
-3.28438e-07
-3.48177e-07
8.57191e-07
2.02884e-07
8.02318e-08
-6.52563e-07
-6.63485e-07
-1.75869e-06
3.72701e-06
-4.47834e-07
3.97972e-08
-2.90802e-07
3.10856e-09
-7.34897e-07
-1.7758e-07
1.01978e-06
7.62505e-07
-1.779e-06
6.63286e-07
-8.64501e-07
1.7303e-06
1.37603e-06
7.17593e-06
-7.91296e-06
-1.35418e-06
-3.6219e-06
1.60888e-05
3.10051e-08
-6.26978e-06
3.15882e-07
-1.93505e-06
1.17898e-07
-6.51178e-06
6.57833e-06
-1.23663e-05
-1.26617e-06
1.49157e-07
3.28514e-06
-8.17132e-07
2.52656e-06
2.87973e-06
-5.84805e-06
4.66436e-06
1.14257e-07
-5.1584e-07
1.25297e-06
2.93984e-06
3.79064e-06
-1.30769e-06
-2.58878e-05
-4.9009e-06
4.84762e-05
-2.32138e-05
3.60714e-06
2.77249e-06
-2.27479e-05
4.62851e-07
7.64738e-06
-7.03202e-07
-8.63719e-06
1.69355e-06
-9.28343e-06
-3.79032e-06
2.07218e-05
1.23551e-06
-1.12197e-05
-7.14495e-06
-2.27965e-05
2.58701e-05
-3.25493e-05
1.6755e-05
-2.94574e-05
1.91063e-06
-7.3211e-05
-3.48008e-06
-3.74378e-06
9.26614e-06
-1.45373e-06
-4.67525e-06
3.90019e-06
-5.16261e-06
1.55162e-05
-3.87698e-05
4.20778e-07
-3.36437e-05
-1.1946e-05
3.02302e-05
1.08285e-05
-4.10597e-05
6.0822e-06
1.77512e-05
-1.80385e-06
-3.06401e-06
-2.37112e-06
7.33709e-06
-1.14213e-06
-1.43881e-06
1.02341e-06
-2.92595e-06
-1.154e-06
4.96286e-06
7.66463e-07
-8.59736e-06
1.14034e-05
-9.12098e-06
1.8881e-06
-2.62603e-06
1.07937e-05
-2.85975e-08
-7.92526e-08
-1.69346e-07
3.03411e-07
-7.03638e-08
-1.5126e-07
1.90848e-07
-1.6804e-07
-8.32928e-08
2.31164e-07
6.33322e-08
-4.58685e-07
3.7254e-07
-3.39257e-07
1.27034e-07
-2.02592e-07
3.00681e-07
-2.1674e-10
-7.75796e-10
8.20734e-11
9.09053e-10
-3.13894e-10
4.34899e-10
-3.39889e-10
-6.2612e-10
-1.22489e-09
-1.13531e-09
4.03956e-10
1.16495e-09
-1.89061e-10
-1.28746e-09
-3.18629e-10
4.15568e-11
6.80617e-10
1.18826e-10
-6.26843e-10
3.03272e-10
-8.10904e-10
4.26536e-10
-1.07448e-09
1.17743e-08
2.30265e-08
-3.36124e-08
1.91015e-08
1.64411e-08
-3.46807e-08
9.52297e-09
2.15543e-08
4.24315e-09
-1.98304e-08
1.65149e-08
-3.37562e-08
5.97047e-08
-2.28427e-08
2.22649e-08
-3.34608e-08
1.27753e-08
1.04078e-08
1.00939e-08
-2.63145e-08
-3.24742e-09
2.19422e-09
1.16889e-08
4.08252e-09
-4.43433e-09
6.83477e-09
-1.07794e-08
3.00738e-09
-2.09232e-09
1.87247e-08
3.22261e-09
-7.50929e-09
-1.84472e-08
-1.38456e-09
1.78865e-09
-3.70215e-09
5.67951e-09
-7.23795e-10
2.19185e-06
2.28657e-07
-2.11128e-06
-6.89385e-08
-3.28536e-06
-1.58144e-06
7.0865e-06
-6.45304e-06
3.29927e-06
1.73254e-06
8.0423e-06
-1.13722e-05
1.76932e-06
-1.35905e-10
2.49525e-07
-8.23332e-10
2.52018e-06
1.35077e-06
-3.72112e-05
-1.40598e-06
3.72683e-05
-3.8874e-05
3.63724e-05
3.8534e-06
3.43684e-05
-0.000110452
3.84927e-05
-3.48756e-05
-5.13265e-06
-3.60721e-05
0.000111803
-3.04024e-06
3.25193e-06
-3.54651e-06
2.12264e-10
1.65988e-10
-2.35629e-10
-4.4917e-10
8.95767e-12
-4.20632e-10
3.96078e-10
-1.77078e-10
2.27602e-10
-2.5094e-10
6.24634e-10
-9.72031e-10
6.53255e-10
-2.19712e-09
1.287e-10
-2.87994e-10
3.36215e-10
1.45446e-09
8.83193e-10
-1.09403e-09
-2.53653e-09
-2.82628e-10
-2.53771e-11
7.2156e-10
-6.86027e-10
2.95326e-10
-2.73406e-09
-1.82775e-10
1.84398e-09
9.53931e-10
-1.02592e-08
1.32626e-09
-2.93274e-09
7.09346e-10
2.57388e-09
4.12459e-09
-2.35497e-09
-6.54219e-09
4.11399e-09
-1.41326e-08
1.32195e-08
-6.73193e-09
1.23804e-08
-6.04286e-09
1.26169e-08
-5.59635e-09
7.59416e-09
-1.99299e-08
1.24243e-08
-1.83826e-08
1.8783e-08
7.93829e-09
-6.7724e-10
-1.03086e-08
3.61158e-09
-5.99041e-09
-2.72122e-09
1.11589e-08
1.43335e-10
-6.70304e-09
2.05006e-09
-2.96972e-09
-8.40248e-09
-2.17408e-09
1.45471e-09
-7.9367e-09
7.4314e-09
5.91285e-11
3.227e-09
-1.82534e-08
-2.06847e-09
7.29835e-09
-1.85939e-09
1.7764e-08
1.48169e-09
-8.29037e-09
-3.90091e-09
-9.53034e-09
-4.95835e-09
3.86186e-08
1.74106e-09
-6.76676e-09
-1.47788e-08
7.54123e-09
1.03478e-08
2.77676e-09
-2.2922e-08
-1.31084e-08
2.36145e-08
-1.90106e-08
-1.20647e-06
-1.06769e-07
-3.22336e-08
1.31689e-06
3.14065e-06
2.4244e-06
-6.79857e-06
3.69665e-06
-5.86099e-07
6.9489e-07
-6.81089e-07
-5.2156e-08
-5.08229e-07
2.51184e-06
4.22291e-07
1.31285e-06
3.53837e-06
-6.13474e-08
1.8598e-06
1.09753e-07
-1.82384e-06
1.19637e-06
-1.20143e-06
-5.23304e-09
-3.71196e-06
6.70736e-06
-4.09024e-06
3.78245e-06
1.17852e-06
-7.80039e-06
7.79515e-08
-3.75001e-09
3.16995e-07
-1.76608e-07
-3.03595e-06
-1.07038e-08
3.22546e-06
-4.63658e-06
3.18978e-06
-1.00795e-06
4.51061e-06
-1.21806e-05
1.32462e-06
-1.2601e-06
-7.47576e-08
-7.4896e-07
5.29967e-06
-7.75137e-07
3.56753e-06
2.476e-06
1.20292e-06
2.78758e-06
6.41077e-07
-4.7117e-06
-8.87083e-08
1.24761e-06
4.15232e-08
2.88268e-06
-1.73444e-07
7.97623e-07
4.49794e-06
-3.85438e-06
4.21273e-06
-2.01402e-06
-5.07998e-06
-7.48171e-07
-2.4372e-06
-3.17556e-06
1.09739e-05
-3.40687e-08
-7.13196e-07
3.54382e-08
-2.57405e-06
-4.06232e-07
-9.47405e-07
-7.76287e-06
-5.45306e-08
-1.24394e-07
-4.67516e-08
2.28862e-07
-5.4311e-08
-1.01201e-07
1.06431e-07
-3.16367e-08
-1.32489e-07
1.20209e-07
-1.53164e-07
-6.50064e-08
-1.77235e-07
2.49601e-07
-1.19261e-07
-8.49782e-08
-3.94385e-07
4.27012e-08
1.18795e-07
-9.81171e-08
-4.83366e-08
2.28672e-08
-3.52693e-08
6.09457e-08
-5.61425e-08
2.03691e-07
9.82022e-08
1.21645e-07
-2.90585e-07
1.93571e-07
-1.33032e-07
-7.57594e-08
1.68083e-07
4.01637e-09
-1.43346e-07
2.15688e-07
1.47948e-07
-7.69053e-08
3.72626e-08
5.44627e-08
-1.37259e-08
1.75938e-07
1.4212e-08
-2.61073e-07
6.30699e-08
1.51301e-07
-2.36495e-08
4.20731e-09
7.13533e-08
-1.10567e-08
-2.86189e-08
-7.1358e-09
-8.53643e-09
1.97897e-08
-1.5463e-08
-3.94415e-09
2.68389e-08
-3.07667e-08
8.32758e-08
-3.44956e-08
-4.39289e-08
-3.27043e-08
-3.19237e-09
-1.22972e-08
-2.36248e-08
-2.62773e-08
-2.47469e-08
-4.58436e-08
-5.04084e-08
-2.76597e-08
-2.14012e-08
1.70221e-08
2.43788e-08
-8.78371e-08
-4.26854e-08
5.22523e-10
1.17335e-08
-6.15737e-09
-9.58066e-09
2.74428e-08
-1.62685e-08
-1.33639e-08
-1.18319e-08
-2.92356e-09
-8.86835e-09
-3.29947e-09
4.58455e-09
-6.4676e-09
-1.77882e-08
6.86903e-09
-2.90833e-08
-1.47896e-09
-1.11321e-10
-6.25451e-10
9.06041e-11
3.24943e-10
-8.73931e-10
5.0137e-10
-2.38489e-10
2.41239e-10
-1.85449e-09
1.3928e-10
-1.62671e-10
4.98757e-11
-6.41258e-11
3.84219e-10
5.85564e-11
-1.0549e-10
-1.37853e-10
-1.47492e-10
7.71572e-11
-1.31871e-10
3.78696e-10
-6.87232e-12
1.95645e-12
5.52846e-11
1.39517e-10
-1.86668e-10
6.07079e-11
4.93735e-11
-1.31277e-10
2.07327e-11
4.41505e-11
7.81413e-12
-5.06382e-11
3.79159e-11
-1.49792e-10
1.36618e-10
-1.17607e-10
8.93426e-11
-1.89584e-10
3.59877e-12
-6.7268e-12
-3.30829e-12
1.77326e-12
-1.99318e-11
9.92613e-13
1.65043e-11
-7.09628e-12
5.35391e-12
-1.41898e-12
-1.13864e-11
9.70711e-13
2.67058e-12
-9.61006e-12
7.79915e-12
-2.50388e-11
2.02961e-11
1.29864e-12
4.16988e-11
-6.87397e-11
-2.44437e-11
1.54704e-11
1.48606e-11
3.01183e-11
-6.30723e-11
2.8382e-12
-2.8428e-11
3.01505e-11
-1.17264e-11
2.23153e-11
-1.15627e-11
2.19424e-11
-1.05639e-11
2.19651e-11
2.97178e-11
-1.33355e-11
-9.62983e-11
8.20805e-12
5.84834e-11
3.65011e-11
-1.08606e-10
-2.27256e-11
-5.60421e-10
3.46668e-12
1.57018e-12
-4.94869e-13
-7.30695e-12
-7.30884e-13
1.16176e-13
2.69798e-12
4.09548e-13
-1.98627e-13
-8.20658e-13
1.20506e-13
8.37976e-13
-8.78697e-13
-6.96153e-13
-1.716e-12
1.26602e-12
-4.93099e-12
1.78434e-12
3.60573e-13
-3.52083e-13
-2.42373e-12
-4.77596e-13
5.14436e-14
2.04639e-12
-4.00803e-13
1.69385e-13
8.76481e-13
-4.17033e-14
-1.34813e-12
2.10642e-13
7.5076e-13
-7.14321e-13
9.25315e-13
-1.14764e-12
5.50349e-11
3.24839e-12
-4.21007e-11
-3.66895e-11
-4.93985e-11
-5.32e-12
1.1473e-10
-3.92128e-11
5.07578e-13
6.74202e-11
6.60947e-12
-9.43229e-11
5.24562e-11
2.10522e-11
-6.09497e-11
5.90117e-11
-7.82741e-11
4.21203e-09
-9.29555e-10
5.98238e-09
-1.09286e-08
-3.3376e-09
1.38014e-09
2.61806e-09
5.29118e-09
-1.39862e-08
4.01021e-09
-5.78401e-09
-2.0553e-10
-2.15243e-09
8.1266e-09
-4.43419e-09
5.3274e-09
-6.46866e-09
-2.43087e-08
-4.49593e-09
2.58483e-08
3.46041e-09
1.69097e-08
1.36457e-08
-5.45333e-08
2.36837e-08
-1.09391e-08
-1.29405e-08
-5.3208e-09
4.1685e-08
-1.43744e-08
3.29929e-09
-5.54645e-09
-7.11757e-09
6.3689e-09
-7.66929e-09
-1.25238e-08
9.97782e-09
-3.17564e-09
2.66496e-08
1.90948e-08
-4.83944e-10
-2.70079e-08
8.92248e-09
-8.84609e-09
-9.16075e-09
3.53151e-08
4.6452e-10
-1.35565e-08
-3.87822e-08
-1.23864e-08
4.26608e-08
-1.12155e-08
-5.39157e-08
-1.48476e-08
1.03312e-09
-3.85838e-08
-9.79745e-07
5.43676e-06
1.6679e-05
-2.10639e-05
3.30162e-06
9.97583e-06
-1.42071e-05
9.91171e-07
2.62905e-06
1.91855e-06
-6.0162e-06
1.26559e-06
-7.33963e-06
4.94375e-06
8.57263e-06
-5.8886e-06
1.24304e-05
5.54194e-06
3.38019e-06
-3.57682e-06
-8.51306e-06
-3.3821e-06
-6.19022e-07
5.36626e-06
-4.5224e-06
4.62928e-06
4.54393e-06
1.42049e-06
-9.27076e-06
-2.31258e-06
3.70648e-06
1.24197e-05
-1.54401e-05
1.47875e-05
7.4519e-07
1.49446e-06
2.64319e-06
-4.92943e-06
4.20775e-07
1.28231e-06
-9.89405e-07
3.77723e-06
2.69117e-06
-8.79711e-08
-7.50715e-06
1.18133e-05
-6.93258e-06
9.75882e-06
-5.13623e-06
7.94159e-06
-6.17293e-06
1.84383e-05
4.83849e-06
-1.04091e-05
-1.2863e-05
-1.33103e-05
-7.27796e-06
3.90336e-05
-1.42527e-05
5.79026e-06
9.33656e-06
-5.72835e-06
-1.40126e-05
-1.19914e-05
1.40548e-05
2.41333e-05
-4.41072e-05
1.79368e-05
-3.44477e-05
-4.70181e-06
1.97895e-05
1.94742e-05
8.74868e-06
1.03337e-05
-5.34302e-05
-2.23326e-06
6.37144e-06
1.59554e-05
-1.92033e-05
5.81984e-07
-8.63137e-06
3.07094e-05
3.61122e-05
2.2125e-05
-4.7828e-05
1.23674e-05
4.30929e-05
1.02106e-06
1.79904e-06
4.41698e-06
-2.33824e-05
-9.27636e-06
-5.44906e-06
3.62409e-05
1.29274e-06
-2.40114e-05
-9.84389e-06
4.85196e-07
3.26303e-06
-2.22784e-06
-1.11478e-05
3.65645e-06
-1.37404e-07
6.21606e-06
9.75664e-06
-1.8276e-05
1.58373e-05
-6.36285e-06
3.00424e-05
-4.42772e-05
4.05568e-05
-2.55505e-05
-1.28714e-06
1.77975e-05
5.70147e-06
1.04832e-05
1.502e-05
-5.1427e-05
-4.73097e-07
7.93839e-06
1.16764e-05
-1.21897e-05
-6.52905e-07
-4.01747e-06
2.27682e-05
-3.33283e-06
1.72822e-05
1.22556e-06
1.64309e-05
-4.96646e-06
-2.28478e-05
3.58939e-05
-1.86795e-05
-6.00598e-06
-1.26365e-05
4.06588e-05
-7.97986e-06
7.17516e-08
6.88617e-06
4.4135e-06
-1.97035e-05
6.35491e-06
3.04956e-08
6.29084e-06
-2.07709e-05
2.25968e-05
-1.02774e-05
4.41814e-05
-2.65607e-05
-3.7161e-07
2.22442e-05
4.46553e-06
1.86684e-05
2.36481e-05
9.68819e-07
1.65107e-05
2.08967e-05
2.90292e-06
-1.91899e-05
5.6437e-05
5.73115e-06
1.39454e-05
1.79984e-05
3.95319e-06
-3.58216e-05
3.29187e-07
1.40852e-05
-1.52377e-07
-2.07675e-05
1.26213e-05
-5.05736e-05
1.92601e-05
1.46247e-05
9.91556e-06
-5.13201e-05
-8.83038e-07
1.57805e-05
-9.61541e-07
1.11225e-05
2.84897e-05
2.51811e-05
5.14843e-06
1.86092e-05
1.98819e-05
-3.61967e-06
3.1547e-05
2.32697e-05
1.15788e-05
2.30555e-05
1.70543e-07
-3.39295e-05
-3.62422e-05
-7.36975e-05
-1.39298e-05
-1.38695e-06
2.22526e-05
-3.25261e-06
-4.25012e-06
-3.9443e-06
-2.25013e-06
-8.40889e-07
-3.32086e-06
1.57378e-06
-1.90357e-06
-3.19311e-07
2.52834e-08
-2.32359e-06
-9.87525e-08
-3.86893e-06
2.59974e-07
-6.52711e-06
-1.70499e-06
-2.67529e-05
-1.59498e-06
6.696e-06
1.56178e-05
-4.31231e-05
-2.19654e-07
1.57055e-05
5.69292e-06
-9.16373e-06
1.11953e-05
2.60887e-05
1.17795e-05
1.69675e-05
-3.75198e-05
8.60718e-06
1.51494e-05
6.78147e-06
-1.54858e-05
1.77081e-05
-1.92576e-05
9.18315e-06
-1.13087e-05
1.92419e-05
5.12446e-06
1.33092e-05
1.45193e-05
8.17979e-06
3.92335e-05
1.37687e-07
-3.787e-05
6.37223e-07
-2.17765e-05
-2.23998e-05
8.34681e-05
6.22428e-07
-2.03361e-05
-1.89809e-05
1.9502e-05
8.48541e-07
3.16399e-06
-4.24384e-05
-3.18766e-05
2.95585e-05
-6.65419e-05
-8.67476e-06
-2.65157e-05
4.92762e-06
3.0842e-05
6.94768e-07
-9.82828e-06
4.09454e-07
-2.80886e-05
2.31611e-06
-1.19402e-05
-1.58423e-05
3.28403e-05
-3.58734e-05
1.40152e-05
4.52049e-05
9.14668e-06
-8.23869e-05
4.28283e-05
2.80542e-06
5.31544e-05
-8.00247e-05
7.94888e-05
-1.31465e-05
-2.92183e-05
1.42742e-06
5.16607e-06
9.39301e-06
1.1318e-06
-9.91032e-06
-7.27356e-07
-1.99151e-05
-9.18252e-07
3.01306e-05
8.6371e-07
-2.01104e-05
9.58041e-06
-3.56556e-05
1.6217e-05
-2.49322e-05
3.36373e-05
-1.91682e-05
1.91112e-05
7.12929e-07
9.04092e-07
-4.02715e-05
3.24491e-05
-6.7134e-05
2.66574e-05
-1.29405e-05
-1.21521e-05
-5.47684e-06
2.95701e-05
-2.66366e-07
-1.24756e-05
-1.66424e-07
-1.04867e-05
1.00289e-05
-3.95432e-05
1.70703e-05
3.41388e-05
2.63015e-05
-7.90913e-05
-7.96922e-05
-1.70481e-05
-3.37232e-05
-8.09263e-08
3.98078e-07
8.16195e-06
1.26163e-07
-8.08722e-06
-1.94692e-07
-1.80066e-05
-5.59565e-06
3.17881e-05
-5.99132e-07
-1.72504e-05
4.90321e-06
-2.83628e-05
1.53804e-05
-3.21409e-05
3.14702e-05
-2.67411e-05
-2.83334e-06
-7.22707e-05
-3.35122e-05
-1.67965e-05
-2.71654e-05
-3.05486e-07
-3.20368e-05
-8.35635e-09
-1.74319e-05
2.14264e-05
-8.04836e-05
3.22551e-05
-7.76901e-05
6.09295e-07
-1.9937e-07
2.22006e-07
1.86653e-06
2.8016e-06
1.12436e-06
-5.55527e-06
-1.31349e-08
1.84541e-08
1.69423e-06
3.86529e-06
-9.18562e-09
3.21597e-06
-3.27104e-06
-1.59021e-06
6.53698e-06
-4.26937e-06
7.58046e-06
-6.06778e-06
-2.14468e-06
-1.81443e-06
-7.05583e-07
4.89786e-06
2.03818e-08
-2.05286e-06
-8.03992e-09
-1.15438e-06
6.85453e-08
1.96406e-06
2.88926e-07
-3.46741e-06
2.0484e-06
3.06392e-07
2.7793e-06
-4.37784e-06
4.35082e-06
3.38441e-09
6.73869e-11
-5.6055e-09
2.13795e-09
-2.44065e-09
-1.74617e-09
7.56225e-09
-2.72093e-09
3.2972e-10
6.60141e-09
-1.62541e-09
-1.05975e-08
-4.45716e-09
9.3019e-09
4.56944e-09
-8.38179e-09
-4.95874e-10
-1.26657e-09
-8.64975e-09
-3.67624e-10
1.17726e-08
4.74075e-10
-2.1334e-09
1.74936e-10
-1.43952e-09
-6.71522e-09
9.9095e-11
3.81129e-09
-4.26649e-09
1.0464e-11
1.16282e-10
8.37855e-09
-1.03599e-08
1.32464e-08
5.82989e-09
1.33079e-08
1.65586e-08
-4.1346e-08
-2.22033e-09
1.08488e-08
-6.55301e-09
-2.36307e-09
7.4795e-09
3.35176e-10
3.39334e-09
-2.09282e-10
1.12523e-08
4.60322e-10
1.35035e-08
-6.25941e-09
2.03006e-08
-4.47205e-09
-9.33294e-09
1.32764e-09
8.44185e-09
-7.07397e-09
2.64038e-09
-1.56324e-09
-5.4725e-09
-1.43263e-08
-3.90343e-09
1.07047e-09
3.80284e-09
-2.9701e-09
-4.35286e-09
-3.29147e-09
-4.74059e-10
4.26512e-09
-7.21349e-10
-6.24249e-09
6.30327e-09
-1.49305e-08
5.88228e-09
-8.303e-10
-1.95054e-09
-4.02868e-10
2.28532e-09
3.29097e-11
-1.33159e-09
-1.56397e-09
-3.00156e-09
6.76568e-11
1.07303e-09
1.70447e-09
2.20811e-09
-4.00152e-09
3.31089e-10
6.99139e-10
7.25677e-11
7.80954e-10
1.09542e-09
5.39107e-10
-1.54617e-09
5.34012e-10
1.16623e-08
-1.5804e-09
-1.50616e-08
4.75829e-09
-1.6346e-08
-1.55185e-08
4.29794e-08
-1.58562e-08
-2.46313e-09
-3.12257e-09
-1.39696e-08
4.73924e-09
-1.50022e-08
-1.45016e-09
8.16769e-09
-3.38393e-08
-6.97882e-09
-1.74286e-10
5.65816e-10
-3.22044e-10
2.84229e-11
5.69595e-10
-3.21085e-10
-1.0496e-10
-5.49818e-10
2.02404e-09
1.68706e-10
2.49708e-10
-8.1176e-10
3.29653e-10
-4.35096e-10
1.48851e-10
9.3855e-11
1.0875e-10
2.86335e-11
-1.38187e-10
-1.16861e-11
-1.19693e-10
-5.135e-11
2.82172e-10
2.34622e-11
-1.3077e-10
4.60582e-12
-9.01729e-11
-6.04383e-11
-4.76778e-11
2.49374e-12
-4.18164e-11
1.7898e-11
-2.65054e-10
-1.56823e-10
-4.51153e-11
7.24455e-11
5.03831e-11
-1.9171e-10
1.58647e-10
-1.6842e-10
-7.1373e-10
-4.53121e-10
4.95263e-10
5.73466e-10
-8.84642e-10
-1.80293e-10
3.07169e-12
-2.19765e-09
3.01655e-09
-2.7132e-09
3.75617e-09
-7.74317e-11
1.60938e-09
-2.59205e-09
5.54531e-10
-8.12112e-10
-2.78497e-10
-6.19948e-10
-9.04567e-10
-1.54543e-08
-1.15003e-08
-9.14437e-09
4.31126e-08
4.67343e-09
-2.33596e-09
-3.76516e-09
-1.05818e-08
6.58736e-09
-1.04464e-08
3.37555e-08
-5.37133e-09
2.77182e-09
-1.50279e-08
1.13534e-08
-1.71428e-08
5.06697e-08
-7.47401e-08
-2.71774e-09
3.99085e-08
3.06453e-08
2.71844e-08
1.7744e-08
-1.25651e-07
1.98268e-08
-5.07706e-10
4.67977e-09
1.36543e-08
-1.99739e-09
2.30431e-08
1.70634e-08
-1.25317e-08
5.09063e-08
-5.72647e-10
-3.50795e-06
-2.14895e-07
-5.89854e-08
3.83483e-06
5.11216e-06
7.28138e-06
-1.51759e-05
6.34996e-06
-7.85247e-07
2.2273e-06
-2.17268e-06
-1.0349e-07
-1.29667e-06
7.37197e-06
1.22611e-06
3.89609e-06
8.20857e-06
-1.74816e-08
1.44708e-06
-1.42534e-06
5.71833e-08
7.71303e-07
-7.76411e-07
-4.03658e-09
-2.91943e-06
4.88963e-06
4.66082e-06
9.40509e-07
-6.85512e-06
4.53204e-06
2.25966e-07
-5.08854e-09
1.32287e-06
-3.09204e-06
-3.92661e-06
-6.39196e-06
1.78578e-05
-4.45958e-09
1.97153e-07
-3.22482e-06
-3.5618e-06
-3.04708e-07
-4.49515e-06
4.87659e-06
-8.21178e-08
1.97368e-06
-9.67852e-06
3.56061e-06
-5.13901e-06
6.32262e-06
2.17617e-06
-1.72154e-07
7.04494e-06
2.86047e-06
-1.95567e-05
7.09352e-06
-7.58071e-08
-2.49907e-06
1.17906e-05
-2.6258e-06
-5.83011e-09
4.01889e-06
-1.50005e-07
-5.13298e-08
-2.58794e-06
-2.66855e-06
-1.85956e-06
-7.56356e-08
-2.06186e-06
-5.328e-06
8.35368e-06
-4.0447e-09
4.93046e-06
-1.21587e-05
-4.01945e-06
-1.43617e-07
2.21811e-05
2.79214e-05
8.14437e-08
3.97496e-06
1.31764e-06
-2.46107e-09
-1.58234e-08
1.78498e-08
6.58792e-09
-1.12253e-08
2.14867e-08
-4.15961e-10
5.74552e-09
-2.70714e-08
-1.01352e-08
-1.29314e-08
4.54203e-08
-6.65007e-09
-2.46299e-09
1.80397e-09
-1.09703e-09
1.28352e-08
-1.02653e-07
-1.16231e-07
-1.72159e-08
9.83298e-09
-5.48721e-08
-4.93127e-08
2.5367e-08
-9.74818e-08
-8.88121e-08
7.18298e-08
5.94908e-08
2.51005e-08
-1.46775e-07
6.95682e-08
-8.42956e-08
1.30232e-07
1.17397e-08
3.82701e-08
-5.12894e-09
-2.75527e-08
2.07826e-08
-3.86263e-08
3.82204e-08
-3.34049e-08
9.79852e-08
-6.6559e-09
1.91298e-08
-1.22621e-08
6.3735e-08
-8.63917e-08
-1.21614e-08
4.82598e-08
-2.09727e-08
7.06022e-09
-1.66769e-08
-4.96684e-08
-8.1531e-08
-3.39727e-10
-2.82351e-09
1.40889e-09
1.85206e-09
-1.67617e-09
1.57722e-09
-6.2591e-11
6.02895e-10
-4.77938e-09
-1.07861e-09
-1.76933e-10
2.80712e-09
-6.83158e-10
-5.47274e-10
5.33652e-10
-5.03746e-10
1.7482e-09
1.67811e-10
2.86267e-10
-3.12976e-10
-3.59759e-11
4.44521e-10
-1.54508e-09
-3.26549e-10
-3.43618e-10
1.27083e-10
-1.7942e-09
-2.80788e-10
-3.45817e-11
-4.42246e-10
1.10888e-10
8.55447e-11
-5.17331e-11
-1.48464e-10
-6.81643e-11
-7.94379e-11
-5.49647e-11
-2.81341e-13
-1.16237e-12
-6.35705e-11
2.4837e-12
-4.04485e-11
-1.55747e-10
-2.90615e-13
1.62509e-12
-5.75164e-13
-7.94123e-13
4.44599e-12
-9.82816e-13
-3.87493e-12
-1.76234e-12
-1.49223e-12
-6.56393e-13
6.39243e-14
-7.42181e-14
1.50483e-13
-1.89271e-12
1.85132e-12
-3.65604e-12
1.26179e-13
-6.70842e-14
-7.1765e-14
-1.75046e-14
1.51848e-13
4.37369e-16
-7.29373e-14
-7.24511e-15
-8.81981e-14
-3.11831e-15
-9.38125e-14
-1.56607e-13
2.23771e-13
-1.09328e-13
-5.82016e-14
2.21942e-13
-4.3811e-13
2.11629e-14
-3.20238e-12
2.55848e-13
3.06837e-12
-4.33767e-12
9.73926e-13
1.53954e-12
-9.33728e-12
7.54395e-14
4.80481e-13
1.95078e-13
-4.57339e-13
1.7654e-13
-2.42164e-13
6.06461e-13
2.17873e-13
1.3552e-12
-6.03619e-13
4.96462e-13
4.08617e-13
3.05152e-13
-7.31843e-13
7.73617e-13
-1.99173e-13
-2.87e-12
4.15254e-13
1.42345e-12
-1.8271e-12
6.96254e-13
-1.11167e-12
-1.21252e-12
-6.90676e-12
-2.04283e-12
-7.26177e-15
1.55696e-12
-2.00472e-12
3.94138e-12
-1.06401e-11
2.98739e-12
-2.83857e-11
-2.47143e-11
1.09402e-12
-1.47621e-11
2.70414e-11
-1.95537e-12
-2.01481e-11
-1.29864e-11
-9.07823e-12
6.50871e-11
3.24901e-12
-1.21073e-11
-6.7953e-11
-1.69689e-12
3.24711e-12
-1.02984e-12
1.84272e-12
1.05902e-11
-4.46263e-12
1.14195e-11
1.12573e-12
-2.67088e-12
8.27367e-13
5.4344e-13
8.49295e-13
-1.41489e-13
-1.02441e-12
4.39964e-14
1.38292e-12
1.89751e-12
-3.71595e-13
-2.2966e-13
4.74392e-14
3.34822e-12
3.06369e-13
-4.72267e-13
-5.77243e-13
7.66435e-13
4.10018e-11
1.08446e-11
-5.41066e-12
-6.66167e-12
-2.16684e-11
-6.63786e-12
-9.21261e-12
1.09782e-11
6.48567e-12
1.33678e-12
-9.10556e-12
4.62238e-11
-1.06079e-11
2.41738e-12
2.51172e-12
-2.27797e-12
9.41955e-12
5.02847e-11
-2.55518e-12
4.49059e-12
-8.77121e-12
-1.1459e-08
-1.66038e-09
3.44583e-09
9.60859e-09
6.44117e-09
-5.50495e-09
-2.39275e-08
7.27579e-09
-2.58651e-09
-2.11892e-09
3.72326e-10