/*--------------------------------*- C++ -*----------------------------------*\
| =========                 |                                                 |
| \\      /  F ield         | OpenFOAM: The Open Source CFD Toolbox           |
|  \\    /   O peration     | Version:  v2012                                 |
|   \\  /    A nd           | Website:  www.openfoam.com                      |
|    \\/     M anipulation  |                                                 |
\*---------------------------------------------------------------------------*/
FoamFile
{
    version     2.0;
    format      ascii;
    class       volScalarField;
    location    "0.35";
    object      p;
}
// * * * * * * * * * * * * * * * * * * * * * * * * * * * * * * * * * * * * * //

dimensions      [1 -1 -2 0 0 0 0];


internalField   nonuniform List<scalar> 
6576
(
-368.6
-391.626
-359.786
-366.854
-375.95
-355.414
-355.447
-341.412
-361.61
-359.036
-358.604
-349.615
-336.781
-352.092
-261.894
-280.032
-316.06
-310.527
-284.07
-277.209
-318.203
-346.729
-355.565
-426.455
-255.557
-213.757
-139.764
-397.659
-397.884
-394.999
-386.91
-377.653
-339.357
-242.337
-225.325
-239.939
-267.06
-264.838
-257.625
-260.24
-296.329
-341.805
-290.162
916.214
527.558
1320.21
593.582
840.375
1392.59
1436.25
964.374
1232.71
-4.6375
-4.84216
-4.71169
-5.03842
-6.24864
-7.18985
-5.06693
-5.71889
-4.67858
-4.36433
-3.80049
-4.97591
-6.63603
-4.9114
-2.38187
-2.49867
-2.60353
-2.58801
-2.5029
-2.64664
-2.70243
4.68254
3.74231
4.60163
4.13348
5.60814
4.63443
4.40099
4.97165
5.34852
4.78391
4.857
5.36464
5.39775
4.28992
-15.1558
-15.3547
-9.28621
-6.52114
-0.62803
-15.8102
-8.74697
-15.3779
-20.175
-21.7607
-21.2462
-20.4903
-18.3417
-17.6205
103.224
190.434
51.8861
149.445
190.205
99.5687
116.918
1183.47
1219.78
1219.78
1088.88
1275.4
1611.34
-2.7996
-2.89923
-2.86319
-2.95014
-3.39164
-2.9195
-2.94666
-16.2731
-55.8134
-145.045
-79.6534
-15.0937
-43.5029
4.49529
-2.4857
-3.14623
-2.9693
-3.43446
-3.3051
-3.5445
-3.56979
-17.2433
-17.7371
-17.7184
-16.5049
-16.4272
-16.4618
-17.0458
-17.0165
-16.4827
-18.0399
-14.6038
-15.2275
-16.1235
-15.4716
-13.9839
-14.7073
-13.2377
-16.8084
-16.7908
-15.0577
-15.4673
-11.1434
-10.1015
-10.2832
-11.0464
-9.4834
-8.89343
-10.6045
-9.08172
-10.9437
-7.93334
-6.81591
-7.11557
-9.61702
-8.45741
-7.4597
-8.18367
-5.98107
-5.684
-5.88169
-6.3413
-5.9109
-6.19632
-5.58406
-6.04789
-6.54041
-3.76631
-3.70655
-3.88302
-3.83113
-3.77333
-3.91108
-4.05416
-3.98403
-3.875
-3.50954
-3.51659
-3.40481
-3.49654
-3.65541
-3.43374
-3.5554
-3.69409
-3.64869
-3.55893
-3.78911
-4.03575
-3.71035
-3.61012
-3.56484
-3.41139
-3.65701
-3.51588
-3.52757
-3.44446
-3.46195
-3.54776
-3.7777
-3.88711
-3.75216
-3.56923
-3.79373
-4.06099
-3.16082
-3.19057
-3.23145
-3.1334
-3.15782
-3.2259
-3.2578
-3.1262
-3.1322
-3.21927
-3.16532
-3.16481
-3.29178
-3.25557
-3.44119
-3.53603
-3.40341
-3.41112
-3.47112
-3.55275
-3.44636
-3.81795
-3.88339
-4.14277
-3.69565
-3.58787
-3.86002
-3.69041
-5.21692
-6.16451
-5.38044
-4.43337
-4.48872
-4.67953
-4.90196
-5.73946
-5.26725
-10.2604
-12.1008
-11.378
-9.11003
-9.14714
-11.9022
-11.2136
-10.0183
-10.6267
-12.0776
-8.4
-7.06487
-8.75423
-10.4242
899.313
967.615
746.679
1079.53
824.675
805.197
1236.35
734.252
1178.19
996.841
1015.79
965.797
888.314
730.932
810.407
595.288
251.098
150.621
233.206
300.184
260.96
246.633
300.375
263.321
255.455
952.641
932.693
941.255
419.789
461.093
286.627
551.716
486.132
351.994
476.916
0.75598
1.07089
-4.29288
3.07563
-0.505143
-7.39658
-6.63977
1.55866
1.05338
1.34566
2.69776
1.82746
1.4613
2.17096
1.74011
2.70895
3.13178
3.20651
3.4464
3.04568
3.10848
3.10873
3.17987
21.3244
17.4956
22.1838
15.4345
13.4905
19.2367
18.5469
34.5086
40.0856
21.8158
36.6912
38.6201
22.4781
31.6061
20.546
23.6829
172.733
178.364
222.785
180.035
191.277
187.973
256.02
253.69
179.165
419.991
823.347
404.511
437.29
527.016
337.177
555.246
1193.43
1029.31
1092.03
1279.42
1004.63
482.674
1007.33
1048.75
1336.13
70.3915
22.1428
49.2097
51.8783
82.1109
48.8701
90.731
15.0965
9.53674
11.438
10.2908
12.0584
10.6064
14.5648
3.82684
3.74044
3.87109
3.58385
3.68983
3.68912
3.74797
3.83209
3.80214
3.4114
3.19115
3.48906
3.5206
3.56603
3.4051
3.48278
2.94755
3.14714
3.12017
3.23318
3.27756
3.18844
3.23492
3.16931
3.06489
8.54242
4.35169
6.20366
5.2678
4.46884
4.20643
3.31557
-0.737325
-1.56229
-6.26497
10.2671
-3.08431
12.4071
18.5819
-4.00243
-3.88704
-3.65017
-4.10491
-3.7242
-3.88073
-3.71533
-2.91708
-2.85365
-2.83833
-2.77129
-2.77686
-2.51187
-2.68443
-2.66368
-2.96317
-2.2256
-2.83337
-2.73069
-2.52783
-2.22177
-2.67026
-2.02383
-2.55836
-2.62255
-2.23442
-2.89605
-2.41933
-2.67664
-2.50204
-2.53601
-2.55274
-2.76548
-2.65675
-2.78088
-2.44751
-2.51192
0.276212
-1.40402
-2.17933
6.07279
-1.09093
2.31781
-1.60179
-6.94709
-3.23206
-4.74243
-5.38709
-13.1315
-3.27408
-0.63717
-10.4928
-5.25746
-5.56663
-2.75226
-34.273
-8.53368
10.2722
-15.9816
-10.6926
-15.3622
-14.4261
-18.801
-5.81223
-4.42607
-50.2089
-2.47772
-14.6748
-9.249
-11.4428
8.56276
-9.28792
-9.21005
-8.41857
-9.08341
-10.2068
-7.90283
-7.72106
-7.8279
-9.70981
-8.54422
-9.18398
-7.87386
-10.4721
-9.14093
-10.5902
-9.82431
-10.5958
-5.26905
-4.93259
-6.15994
-5.31901
-4.95595
-5.54233
-4.9323
-5.05162
-6.12328
-5.45866
-5.90337
-5.51455
-4.69263
-4.83307
-5.5941
-4.58661
-4.59189
-6.77725
-3.802
-4.17951
-3.98115
-3.48868
-3.67133
-3.62949
-3.53429
-2.54482
-2.47663
-2.41544
-2.62465
-2.58727
-2.57398
-2.57045
-2.50708
-2.48869
-2.6972
-2.83662
-2.73147
-2.74358
-2.73234
-2.78237
-2.72361
-2.92338
-2.8585
-2.7911
-2.93722
-2.91873
-2.87732
-2.88647
-3.25109
-3.18943
-3.13222
-3.15116
-3.07014
-3.07279
-3.17036
-5.31261
-5.99759
-4.98996
-4.65882
-4.89567
-4.69546
-5.0851
-4.60822
-4.31486
-4.26866
-4.54993
-4.39469
-5.18953
-5.25706
-5.14399
-4.84618
-4.88573
-5.05003
-4.97732
-4.60658
-4.67981
-4.6621
-4.46755
-4.25221
-4.4334
-4.50895
-0.0800967
-0.123208
-0.219714
0.180856
-0.0951154
-0.103553
0.0583421
0.193558
0.016908
0.2843
0.653246
0.343062
0.511436
0.260566
0.114651
0.268899
1.27549
1.65736
1.3706
1.75718
1.41315
1.51579
1.31507
-37.5293
-45.9374
-48.8824
-24.5686
-27.196
-51.5137
-49.5241
7.02314
2.0763
3.58189
10.7383
-4.53919
33.6098
-6.9187
75.6623
70.1143
62.606
42.0453
33.0844
61.6988
55.9989
33.5081
15.7204
33.2288
74.3876
32.2578
98.735
20.2559
78.3548
219.618
118.834
149.004
181.692
190.585
169.231
157.158
152.509
158.999
175.799
185.046
186.248
195.606
182.68
159.053
178.253
150.793
125.84
218.216
179.991
163.695
185.669
135.136
164.446
148.823
207.384
180.943
210.382
250.61
162.956
207.937
146.384
163.649
159.431
299.048
127.935
186.07
194.514
150.069
373.975
293.524
307.749
262.866
315.678
76.1078
36.5104
121.967
136.197
72.2465
185.558
131.615
299.337
278.374
251.555
243.964
302.504
449.26
517.872
503.3
45.4919
143.859
80.7677
72.6696
145.457
134.338
66.8376
350.016
201.975
213.789
172.133
140.591
729.771
474.523
510.058
678.743
273.252
466.97
753.199
655.937
602.153
1284.19
29.6176
80.1199
17.3146
95.5081
17.6227
103.045
-19.6676
367.038
273.801
249.004
264.347
347.608
179.64
82.8138
205.279
161.289
493.467
366.445
339.222
22.2737
12.9475
-20.4098
6.55736
11.0493
57.4658
86.4567
-8.60545
6.62408
26.8863
153.513
129.631
86.0254
113.8
139.446
-29.8383
126.1
117.917
80.5734
62.8512
-60.8778
-11.1788
160.479
39.7831
20.0569
70.7649
23.0197
24.5113
103.99
4.9693
0.901738
18.5882
58.9325
10.702
13.5541
6.70856
13.126
16.7737
8.74294
12.9984
8.71146
4.8727
4.37211
5.35143
7.39029
7.97668
8.78515
4.65285
4.51472
4.52755
4.57306
4.45266
4.50765
4.48728
3.9619
3.96618
3.95517
4.02914
3.9528
3.82984
3.91319
4.15752
4.15662
4.29981
4.20678
4.29323
4.35933
4.24083
4.06156
4.23853
4.08633
4.32541
4.2583
4.32581
4.27579
4.20062
4.194
3.94084
4.15782
4.03721
4.03827
4.0006
4.08826
3.98841
4.14297
3.96142
3.9726
4.00393
3.96908
3.90897
3.96107
3.8447
3.94696
-11.3184
-12.2278
-12.3583
-12.2064
-13.4899
-13.6388
-12.4761
-9.27671
-8.30749
-8.15098
-9.26441
-8.45757
-7.83635
-8.26815
-8.15153
-8.88826
-10.3415
-11.7977
-11.8483
-8.4897
-9.61013
-7.0785
-8.43088
-9.88029
-10.1789
-8.39117
-4.96642
-5.72577
-7.44299
-4.52261
-5.44738
-5.52637
-3.81248
-4.28526
-3.68303
-3.99322
-3.68167
-3.34961
-3.33647
-3.6797
-5.31904
13.7573
-5.19857
-8.64886
-11.3894
-20.1708
-13.4833
2.97427
-3.05843
-5.22784
-2.6099
-3.11358
-3.4102
-5.81006
7.49073
17.1569
6.82012
8.9963
27.4775
-9.41943
-8.55031
9.83939
12.1456
8.77173
2.83253
-0.0845582
-7.37085
-12.3331
-14.5167
-11.9839
-3.973
-5.0087
-11.4174
9.64668
-4.02615
4.9144
8.32617
10.6748
-2.44698
-2.57832
-2.24423
-2.62947
-2.53158
-2.46476
-2.56911
-4.57403
-3.92574
-3.90633
-3.93126
-3.29757
-3.76877
-4.53075
-3.14432
-3.46668
-3.34361
-3.01219
-2.90053
-3.23189
-3.21254
-3.55792
-4.33307
-3.66253
-2.82809
-2.82642
-2.60155
-2.91164
-2.81417
-2.79508
-2.93012
-3.103
-3.32514
-2.98033
-3.07574
-2.96958
-2.9622
-2.90979
-2.9419
-2.94626
-2.92536
-2.91363
-2.88732
-2.92335
-2.93838
-2.94212
-2.89916
-2.89315
-2.91021
-2.92114
-2.93389
-2.91001
-2.91694
-2.9378
-2.90891
-2.90776
-2.92768
-2.80403
-2.80562
-2.83262
-2.86293
-2.87051
-2.83091
-2.83135
-2.85095
-2.85633
-3.02013
-3.00267
-3.05472
-2.96099
-2.93458
-2.94631
-2.94169
-3.4128
-3.40134
-3.31159
-3.42248
-3.339
-3.39165
-3.31971
-3.86237
-3.85067
-4.03148
-3.76657
-3.8183
-3.97123
-3.92147
-4.32925
-4.50961
-4.20282
-4.3521
-4.19144
-4.08744
-4.50521
-4.46894
-4.06568
-4.263
-4.16562
-4.31471
-4.46828
-4.30109
-1.29445
-1.20289
-1.31774
-1.31102
-1.24412
-1.3944
-1.52808
-1.45619
-1.39578
-1.24136
-1.24205
-0.985276
-1.11543
-1.85255
-1.45623
-0.92294
-1.26044
-0.885463
-0.473346
-0.278782
-0.0603057
-1.02421
-0.889071
0.998961
1.93197
0.152596
0.952156
1.21403
-1.291
-2.11921
-0.911625
-0.488863
0.04404
-0.00541155
-0.164322
-0.350881
0.113896
0.0795245
-0.259821
23.0757
26.7955
34.9216
67.0771
29.8493
133.845
69.3606
116.49
98.3746
112.802
99.0524
102.386
37.5214
84.8819
90.2135
103.558
83.0917
103.025
106.657
100.014
93.8493
75.6529
45.8891
122.656
134.022
133.369
128.027
142.518
125.869
134.157
120.302
138.973
124.634
188.252
198.56
187.95
145.115
242.966
166.291
9.89554
11.7974
21.9658
17.9028
12.6199
10.8618
11.6722
170.339
45.5881
66.7024
32.8086
26.2392
24.4798
15.8638
15.281
9.19139
12.0311
119.729
-76.591
36.4853
-24.2903
37.3125
-6.29269
4.20413
-0.222233
-1.38668
40.4807
67.4981
23.5214
21.0263
32.4472
8.48068
13.4471
89.7075
23.7121
45.325
89.2788
68.6531
43.0471
67.6606
3.48915
27.3443
44.0981
5.26442
5.1454
8.10461
7.01853
6.57329
6.84595
5.48103
5.04533
3.68296
3.44689
4.71645
8.00144
4.86682
5.32267
4.60985
4.36045
4.06233
4.62055
6.44777
4.2552
4.72457
4.45112
4.42989
4.64397
4.70872
4.83424
4.4764
4.47701
4.54108
8.23455
9.03823
-6.8318
-9.51228
0.177221
4.08415
7.07649
-25.7608
4.92176
3.23023
-3.23217
19.9931
-5.94287
7.12501
9.99521
8.9546
7.71917
6.50469
3.08477
7.81089
5.43544
6.51109
5.75607
6.25319
5.86203
5.92039
7.69199
4.54184
3.98858
4.32587
4.30523
5.12613
5.13754
4.5748
-18.05
-17.3098
-17.3086
-18.5739
-18.5094
-17.8964
-18.2098
-14.9152
-17.3227
-15.2484
-13.9687
-14.6132
-16.3763
-14.9997
-11.3326
-10.7357
-8.9175
-6.89716
-8.44974
-9.32493
-10.5621
-4.82684
-4.27004
-5.59626
-2.57652
-3.63411
-5.1654
-4.37676
-2.12041
-1.81462
-1.56435
-1.52109
-1.80516
-2.0681
-1.4617
-3.16954
-2.13283
-2.45803
-3.20189
-2.86336
-3.34797
-2.81473
-2.97797
-3.26004
3.22306
8.76655
5.27604
4.48837
-8.24334
-0.174866
-2.04565
8.92656
-0.450872
-3.08862
6.11214
-1.21903
0.0466087
1.3856
9.60364
15.7234
11.2997
7.06617
-15.5074
-26.3069
0.537617
-4.95614
4.01521
-9.89798
-10.7837
-7.89413
-5.27375
-4.29668
0.338685
0.911606
5.44558
17.3584
10.478
5.08643
9.11378
-6.298
-18.8006
-2.75858
-2.79727
-2.64343
-2.84037
-2.88316
-2.62958
-2.67075
-2.5091
-2.6993
-2.00179
-2.84021
-2.35054
-2.22079
-2.19041
-2.12361
-2.27396
-1.80238
-2.1976
-2.41781
-2.98977
-2.14081
-2.95107
-2.52745
-3.20913
-2.11882
-2.23974
-1.97186
-1.8773
-2.1791
-2.09165
-1.90271
-1.99232
-1.97147
-2.52712
-2.5205
-2.57841
-2.56042
-2.46476
-2.77757
-2.77252
-2.70861
-2.78133
-2.73051
-2.79806
-2.69479
-2.68734
-2.60886
-2.67939
-2.69823
-2.74641
-2.67045
-2.72619
-2.79149
-2.82575
-2.81219
-2.81161
-2.84221
-2.82381
-2.79703
-2.88104
-2.8608
-2.90653
-2.90731
-2.93286
-2.90824
-2.88665
-2.90599
-2.90213
-2.87535
-2.91977
-2.93857
-2.89509
-2.94608
-2.92676
-2.92556
-2.92581
-2.91417
-2.91515
-2.91352
-2.93652
-2.93748
-2.94425
-2.92612
-2.93981
-2.94658
-2.92691
-2.93041
-2.91996
-2.91343
-2.95101
-2.94808
-2.95876
-2.94143
-2.93707
-2.95259
-2.94325
-2.93062
-2.95144
-2.94615
-2.95785
-2.93972
-2.94985
-2.95929
-2.96685
-2.97543
-2.96514
-2.96897
-2.96298
-2.97019
-2.96787
-3.04554
-2.98805
-3.02413
-2.97541
-3.01471
-2.99968
-3.03427
-2.36342
-2.46897
-2.29872
-2.36141
-2.34537
-2.45807
-2.45345
-2.23463
-2.11792
-2.01602
-2.21013
-2.18808
-2.18992
-2.05386
-2.35338
-2.33262
-2.36586
-2.319
-2.33698
-2.35919
-2.39157
-1.91463
-1.97375
-1.99567
-2.40782
-2.29798
-2.37702
-2.33966
-2.04409
-2.13458
-1.89296
-1.83179
-1.93165
-1.83014
-1.72999
-1.64055
-1.82359
-2.20086
-2.33014
-2.17456
-2.29979
-2.36747
-2.21313
-2.28964
-2.21798
-2.2375
-2.56858
-3.06209
-2.78095
-2.78579
-2.6277
-2.41647
-2.32731
-3.78831
-3.8664
-3.3665
-3.96248
-4.263
-3.86723
-4.15869
-3.9971
-3.54521
-3.2135
-3.70266
-2.83686
-4.49055
-3.96807
-3.86872
-3.40461
-2.16639
-2.10682
-1.78216
-1.93245
-2.81686
-2.14669
-1.48135
-1.47325
-1.21081
-2.54444
-1.35402
-1.15495
-1.45533
-1.29244
5.64903
6.49216
6.4659
-15.99
-1.18844
-12.9351
-16.8527
-0.573787
-20.1592
-4.5717
-3.62857
5.28529
-11.2644
1.12566
-21.7834
-21.6188
-12.3377
-17.4451
-23.7025
-17.3305
-20.141
59.2334
57.0722
31.3827
43.3305
59.1114
46.9607
25.1388
30.9986
16.8252
16.4599
2.53496
5.22596
-8.83771
2.68941
103.222
75.9379
78.1561
70.2422
22.317
62.9959
65.0724
36.6287
34.8672
35.2874
39.1369
17.8705
30.9747
32.737
51.3207
51.0581
115.315
101.628
97.4741
4.17365
4.3693
4.22833
4.33741
3.52836
3.80647
4.38707
49.3435
79.2365
15.0667
43.1606
12.2915
10.6796
35.8223
46.2822
45.5758
12.2074
101.435
130.642
174.109
72.6095
75.0792
97.7067
166.501
114.92
59.1785
61.1371
27.3052
34.7057
17.6104
18.104
36.6573
30.4677
16.1294
18.9831
9.12998
9.77241
16.9773
14.1196
9.73851
11.4708
6.85992
6.85628
6.93337
6.74717
6.72398
6.68283
6.63512
11.3958
7.80163
25.5501
10.011
12.0543
12.4217
4.92218
10.4354
5.31122
6.50122
5.6545
1.67523
6.01464
2.99194
-5.54921
0.623373
6.32304
6.79338
6.83838
6.95045
6.82594
6.90243
6.86958
6.9846
6.88296
7.31299
7.23704
7.15756
7.24071
7.16929
7.04282
7.07678
7.09561
7.115
6.61436
6.38559
6.58347
6.54285
6.2266
6.66611
6.49996
-8.62051
-8.87921
-6.27915
-7.60517
-8.49855
-3.45134
-5.79669
-1.95434
-3.97485
-2.42823
-2.77095
-3.54051
-0.792649
-2.29263
0.893602
7.85671
8.4366
0.167334
-13.4375
-6.19442
-18.6115
-3.31737
13.2272
6.12569
24.0957
5.69735
7.0855
3.956
3.48824
20.1892
-9.50532
-5.81954
-25.0453
-12.2212
7.61037
18.9681
5.43142
-5.24813
13.188
15.7058
-17.7988
6.09684
5.37908
7.32837
2.65669
0.84756
0.253232
-3.06119
0.669888
-1.67241
-0.41758
-3.44224
-3.34791
-3.62407
-2.79326
-3.14293
-3.54596
-2.66239
-4.37714
-5.04062
-5.76381
-3.7976
-4.74118
-3.84596
-5.19795
-3.79649
-3.95029
-3.99784
-4.45448
-3.98922
-7.79802
-10.5801
-8.79423
-8.838
-6.63316
-6.76672
-8.23618
-2.55712
-3.6333
-3.57744
-3.29863
-3.87774
-4.04148
-4.06159
-2.82827
-2.8448
-3.09832
-3.01078
-2.95433
-3.57944
-3.22723
-2.94286
-3.00502
-3.03538
-3.06125
-3.02671
-3.00932
-3.07198
-2.94461
-2.92759
-2.93318
-2.95603
-2.96319
-2.9718
-2.97327
-2.96894
-2.9782
-2.992
-2.94405
-2.94955
-2.96881
-2.94482
-2.96291
-2.95144
-2.9691
-2.97044
-2.97688
-2.9749
-2.96725
-2.96078
-2.97087
-2.95292
-3.14995
-2.88936
-2.93861
-2.95714
-2.84973
-3.19063
-2.93163
-2.99876
-4.0598
-4.20148
-4.91027
-4.43602
-4.47109
-4.66437
-4.57344
-7.04712
41.6132
-6.40274
-23.8824
-19.0246
-9.30999
-49.1332
-3.46299
-6.53105
-5.68688
-4.71226
-6.85866
-6.77024
-3.0302
-2.35305
-4.26685
-3.45329
-5.94645
-6.8911
-3.26695
-5.27314
-2.9943
-2.05547
-2.81385
-2.77339
-2.62779
-2.47971
-2.60132
-2.35456
-2.04031
-2.86781
-1.47752
-1.28893
-2.50576
-3.38059
-2.29697
-2.27915
-2.30514
-2.28407
-2.29215
-2.33915
-2.32074
-2.45378
-2.4183
-2.40555
-2.36281
-2.37406
-2.4546
-2.42174
-2.38071
-2.40169
-2.31112
-2.23406
-2.26307
-2.25471
-2.27566
-2.20094
-2.23439
-2.20714
-2.36672
-2.2753
-2.32059
-2.40998
-2.2884
-2.3346
-2.70793
-2.62744
-2.65204
-2.6129
-2.77512
-2.6247
-2.86569
-5.37113
-4.97019
-5.26619
-5.94723
-5.52121
-5.31334
-5.37897
-2.58808
-3.37632
-2.58369
-2.34636
-2.20078
-1.6819
-2.09081
0.614963
12.0844
6.72147
3.08336
8.15235
6.8101
-0.333088
4.56013
8.95237
6.6784
21.745
9.04278
12.958
17.0989
7.52371
7.59864
7.85923
31.2897
20.8729
38.1812
11.2191
3.99727
5.70716
-11.8669
25.1743
4.34631
-0.212632
-7.34646
-5.19067
6.01051
16.0247
0.691244
5.75414
-20.9179
-22.0147
-7.48327
1.57398
-26.4649
-14.2322
-21.931
-21.5788
-34.88
-11.4118
-17.7037
-47.8212
-18.8666
-8.94197
-10.5639
-9.01962
-13.387
30.6032
68.0123
-4.38595
-3.63908
-8.90039
-2.9345
-14.6694
-45.5356
-24.8372
1.61507
4.37259
4.37139
4.34747
4.30721
4.30048
4.38373
4.45372
4.43006
4.51062
4.42943
4.43977
4.43886
4.4015
4.38342
6.31016
6.04025
18.9176
6.78724
4.89418
-0.499381
3.25597
4.18491
8.10976
3.17765
17.7084
5.86474
11.7514
18.2045
1120.29
551.168
1228.01
623.247
697.03
698.077
930.985
46.8492
-151.539
-1.03624
-35.8308
172.934
141.522
0.818406
-5.59468
-2.28418
-3.23144
-5.71245
-2.46588
-1.97171
-0.12446
-5.98908
0.745138
-3.26401
-4.08892
-1.36737
-4.42622
-0.500577
36.2419
-5.98029
31.1717
31.1187
9.76493
4.78076
59.5245
41.5569
13.9354
35.5319
92.5118
45.507
18.7436
37.0781
77.6285
93.7504
60.7574
55.2833
44.2207
42.8454
44.8921
22.7374
30.3389
1.49822
-0.276941
0.0746017
3.95606
1.70187
0.878547
0.527302
-1.47478
-4.68632
1.43626
-1.61395
-1.05654
-3.93795
-2.80455
-6.90699
-5.21318
-4.88002
-4.39662
-0.649341
-5.95292
-5.63273
-6.29994
-5.94084
-3.90148
-8.48764
-6.59678
-8.22617
-5.89283
-5.22609
-5.20248
-5.38034
-5.05208
-5.17854
-5.30525
-5.15701
-5.00371
-4.90944
-4.85416
-4.92496
-4.90354
-4.78771
-4.76968
-4.31914
-4.53269
-4.2856
-4.48918
-4.33217
-3.6567
-3.38371
-4.09225
-3.87693
-3.80273
-4.15836
-4.44409
46.5144
-16.4506
21.9002
12.786
0.412407
-6.29162
7.56916
-3.12564
-4.11253
-5.77264
-2.46734
-3.24103
-2.88662
-3.13301
-2.45645
-2.63295
-2.45541
-2.65922
-2.93052
-2.59979
-2.63871
-2.83938
-3.55061
-3.05692
-2.83103
-2.91051
-2.84695
-2.91712
-2.85386
-2.88093
-2.83806
-2.83132
-2.93014
-2.84818
-2.89215
-2.87484
-2.9294
-2.85587
-2.8937
-2.88946
-2.91803
-2.93417
-2.91744
-2.89503
-2.8952
-2.88269
-2.88243
-2.69132
-2.6454
-2.70771
-2.72897
-2.68483
-2.72258
-2.76568
-2.38118
-2.3609
-2.28109
-2.33679
-2.31737
-2.30807
-2.36722
-2.77425
-2.64562
-3.1826
-2.93625
-2.82081
-2.81174
-3.14618
-3.94317
-4.11708
-4.18637
-3.86112
-3.43958
-3.8609
-4.12314
-4.50724
-4.16171
-4.10516
-3.69606
-3.41692
-3.80824
-3.57555
-3.98502
-4.1896
-2.53246
-2.85728
-2.45526
-2.4775
-2.70435
-2.54255
-2.4237
2.31557
0.579409
-12.696
-5.09634
-4.23637
-1.24614
1.55809
-19.2515
-18.8749
-4.66132
26.4003
18.5159
23.9749
-20.1914
3.44069
-38.7136
-3.96779
-9.53337
-18.9073
-8.05216
-19.567
-1.83606
-28.9947
4.35278
10.9946
4.61605
1.73052
-4.39974
0.820455
-0.148466
-3.06997
10.7765
3.1211
19.3436
34.1088
8.77137
10.3844
19.042
27.5764
17.5846
15.6747
14.5763
13.5061
6.26535
5.44966
8.14558
2.4694
-0.885457
2.99928
-0.0317427
3.98563
4.04308
3.91257
4.3128
4.16098
4.1741
4.12839
4.14856
3.99519
3.95411
4.05046
4.11506
4.48433
4.41468
4.44032
4.35351
4.43807
4.36891
4.45417
4.24191
4.16893
4.23309
4.41377
4.21023
4.58335
4.46332
4.70145
4.96569
4.83811
4.8711
4.83765
5.0875
5.07726
4.82465
4.52693
4.50196
4.67222
4.72399
10.6074
9.92951
8.083
9.18054
7.97672
6.71659
7.39769
671.926
113.318
494.944
2764.92
1262.75
2191.16
2154.63
1673.57
2651.68
2208.27
1602.83
720.295
1785.91
1368.66
1762.99
1746.83
1095.78
671.523
637.372
483.623
603.548
-81.931
365.278
592.585
3533.74
2352.88
58.6587
116.774
149.415
122.125
191.847
63.8367
71.1483
18.7031
44.4969
119.263
-13.2335
45.2245
45.2682
22.0087
17.5648
16.7309
17.7487
7.00092
6.37232
8.14263
4.6194
4.8409
5.69055
5.01749
5.71686
5.24024
4.38923
7.2145
8.98069
6.76644
5.76138
-4.88491
-4.92697
-4.95382
-4.51256
-4.26147
-4.8842
-4.16837
-4.38877
-5.1128
-4.20191
-5.05178
-5.4389
-3.5196
-4.90718
-3.26579
-3.40988
-3.53083
-4.08479
-3.24061
-3.62063
-3.45571
-4.02953
-3.85315
-3.45272
-4.17222
-3.82323
-3.86865
-4.33391
-2.19178
-2.19783
-2.52093
-2.48619
-2.49781
-2.62373
-2.41543
-2.12088
-2.27467
-2.17275
-2.2539
-2.42892
-2.30953
-2.28653
-2.31856
-2.3315
-2.79201
-2.78343
-2.71898
-2.97435
-2.77019
-2.96402
-2.72458
-2.77956
-2.72053
-2.75257
-2.70196
-2.66519
-2.70816
-2.73889
-2.87546
-2.85701
-2.88976
-2.88173
-2.91822
-2.8699
-2.91513
-2.87904
-2.88137
-2.84855
-2.89558
-2.93459
-2.89395
-2.87585
-2.86009
-2.92703
-2.83703
-2.88265
-2.88148
-2.90994
-2.93092
-2.90813
-2.87391
-2.87837
-2.86359
-2.86322
-2.40522
-2.38612
-2.32456
-2.3805
-2.3484
-2.24516
-2.2897
-2.28043
-2.31112
-2.38738
-2.44939
-2.48905
-2.34243
-2.3307
-2.34623
-2.27837
-2.3651
-2.24162
-2.22291
-2.32615
-2.25087
-3.05816
-2.11297
9.86286
22.7078
6.97955
-18.874
9.92621
-53.4774
-1.93477
-22.0253
23.9838
17.2052
20.7947
11.8339
10.743
-6.85234
-55.5221
14.7202
-1.68805
-4.97454
-20.5977
-7.17739
-1.86022
-6.06054
-21.3653
2.33366
2.38474
-12.7991
-3.18891
-2.67825
-3.29522
-3.37227
-3.41841
-3.32475
-3.22692
1.86933
1.4851
1.78765
1.63988
1.98384
1.16443
1.74808
-5.67034
-2.02673
-3.91877
-2.87906
-0.418907
-0.232343
-2.95377
2.74904
2.8364
2.55086
2.88758
3.71514
3.32071
2.88075
4.25256
4.2919
4.08927
4.10723
3.28523
4.39134
4.08072
3.91958
4.04752
3.92234
4.05786
3.9725
3.93208
3.98539
3.44624
3.42699
3.50694
3.36533
3.54663
3.47218
3.31514
3.85743
3.82286
3.76366
3.66134
3.80051
3.97417
3.96519
4.03153
4.2056
4.11159
4.13266
4.24328
4.39595
4.39221
4.45436
4.41616
4.37033
4.50794
4.44296
4.51338
4.43842
4.52074
4.47124
4.44391
4.48706
4.48675
1261.43
814.87
413.128
393.85
263.843
773.983
-41.9497
154.799
-14.247
55.7729
-615.208
39.5598
439.417
6.36373
180.389
-243.484
-50.2396
190.455
87.9871
-260.928
65.1004
-147.56
64.1403
-162.591
11.2195
16.1094
37.3384
39.551
37.6924
41.3841
49.3032
42.6695
41.7573
41.5709
29.9493
52.7751
23.9835
15.5581
61.7268
49.1487
21.3279
13.0275
53.9341
47.5426
21.1901
70.5875
39.0772
41.142
28.8301
85.1576
94.7301
61.2597
75.6843
28.0619
14.6185
31.2871
25.8076
-4.07071
13.2242
0.49167
28.0581
29.1525
33.3638
23.9715
26.4773
24.885
23.3498
30.2817
30.0699
-1.24739
-0.894845
-1.30829
-1.16003
-1.25579
-1.30214
-1.37079
-1.22377
-1.71558
-1.59884
-1.58886
-1.91146
-1.52224
-1.98182
-2.43926
-2.38729
-2.38668
-2.37479
-2.39892
-2.44328
-2.40441
-2.85614
-2.83056
-2.87292
-2.61119
-2.54862
-2.60081
-2.63131
-2.57533
-2.54139
-2.58889
-2.85363
-2.90576
-2.83566
-2.79951
-2.74492
-2.84929
-2.89733
-2.84413
-2.7987
-2.87602
-2.93116
-2.8734
-2.92955
-2.90296
-2.90791
-2.86035
-2.86534
-2.85155
-2.85012
-2.84956
-2.84307
-2.80857
-2.86489
-2.92572
-2.84875
-2.81778
-2.85924
-2.86419
-2.89113
-2.84024
-2.81676
-2.8892
-2.82836
-2.77152
-2.81868
-2.29874
-2.33553
-2.1977
-2.26143
-2.26312
-2.30745
-2.29359
2.75893
-8.60556
13.0145
2.57098
0.986405
-19.5365
11.5988
-16.5195
-5.40583
0.0270107
-19.504
8.17753
-19.955
-58.5308
7.41843
12.8321
-34.7479
-3.61173
-3.23049
-3.53127
-3.62907
-3.82038
-3.4317
-3.36553
-3.37304
-2.91608
-3.07346
-2.63432
-2.99307
-2.78212
-3.13412
-2.8346
-2.804
-2.60076
-2.50363
-2.36585
-2.67282
-2.83709
-3.50152
-3.12736
-3.44051
-3.94697
-3.66953
-3.489
-3.78312
-3.42438
-3.14784
-3.47269
-3.17769
-3.37045
-3.2471
-2.9639
-4.75109
-4.75334
-4.70164
-4.69519
-4.48673
-4.69558
-4.98088
-3.11077
-2.62066
-3.15236
-3.74374
-3.11962
-3.02981
-3.68489
-0.984974
-1.29502
-1.86587
-2.77463
-2.99454
-1.54353
-1.50586
0.0331734
-1.03915
-1.73134
-0.942175
-1.98638
-1.92613
-1.63679
-0.914039
1.4704
0.923998
0.727918
-0.0830892
2.11585
2.28171
2.42577
2.64736
2.42411
2.08812
2.2804
2.2668
2.44129
2.37764
2.73767
2.39332
2.24043
2.29675
2.38665
2.56696
2.30784
2.16069
2.84742
2.97812
2.84366
2.9183
2.70699
2.9646
2.83535
2.92451
2.94294
2.81779
3.09905
3.04438
2.99084
3.05444
3.42539
3.56826
3.53243
3.36687
3.58302
3.40355
3.30149
3.60656
3.62742
3.54337
3.63678
3.55065
3.60812
3.61289
3.6478
3.60069
3.66898
3.76062
3.62083
3.63121
3.59026
10.2119
8.85145
19.3618
7.54713
6.34644
9.3529
8.33485
-264.977
-2.37659
-88.4521
116.17
-23.765
50.8082
50.661
-39.7416
146.697
77.7186
185.473
53.1911
62.2564
56.4087
-177.118
13.2376
-101.677
104.086
41.7156
18.3793
29.9175
73.8139
28.3884
95.0534
-43.8198
-112.88
16.2794
-12.8425
28.8046
-10.6115
23.2455
-81.8962
-3.52903
38.6182
5.02777
5.41464
5.58045
2.91692
4.60254
4.87963
5.43871
2.52139
2.38935
3.55307
1.94752
-1.00414
1.32679
2.76341
3.88485
3.29029
2.18768
3.96191
2.61926
2.08061
-0.581063
0.786105
2.41625
2.85413
3.89125
4.01463
3.45671
2.75274
3.58213
4.38918
4.03848
3.23665
-18.5999
-12.1139
-14.8032
-25.8088
-18.2599
-20.6997
-18.8165
-15.7735
-25.5681
17.8839
4.56929
4.26718
34.614
10.3432
174.949
180.156
252.167
164.1
142.992
154.842
192.151
201.121
294.269
345.216
348.509
265.27
241.728
307.467
147.978
140.365
153.086
198.736
148.576
130.153
203.215
127.945
204.117
178.082
223.741
217.086
162.961
205.608
200.2
148.218
227.05
270.368
218.652
47.3125
95.238
96.2811
70.7417
65.1794
86.0197
123.114
47.2387
76.5368
69.8754
89.4328
85.9199
149.528
184.727
131.56
189.854
173.104
131.477
156.283
74.3031
206.077
7.89881
61.6409
141.54
218.793
68.0152
-1.33431
19.659
26.7523
12.8137
81.4231
11.2375
51.5484
-14.1583
-198.266
7.18597
294.07
105.01
-27.3155
-140.743
1370.92
1413.28
1319.04
455.904
964.171
1254.43
389.225
437.133
573.769
607.536
516.581
85.1044
349.275
181.317
249.471
379.466
784.922
475.954
572.064
705.18
-27.0383
-34.4836
-17.6812
-22.8642
-18.8889
-21.4572
-22.8656
-24.8752
-33.1656
-21.7462
-24.5408
-21.2472
-24.6221
-18.0674
-36.6594
-10.0938
14.2906
-19.1063
41.2717
4.37194
-8.10977
5.9453
5.57954
5.4172
5.26975
5.31431
5.30726
5.49699
6.0916
5.87401
5.73023
5.894
5.54945
5.29145
5.32834
6.3661
6.23244
6.29736
6.23591
6.26414
5.83286
5.7194
6.46334
6.09255
5.58096
5.77904
5.98458
5.43533
5.17353
5.64052
5.7094
14.519
14.4634
-15.1804
4.49212
-7.18488
4.9882
1.05763
5.28982
0.925935
5.5712
7.7676
-13.6438
11.6569
4.99983
6.97096
6.30389
-1.11703
8.94431
-5.80598
5.28545
1.79337
4.76385
7.44808
3.43062
1.07726
1.68248
0.484657
-0.484588
-1.91184
-1.48739
-1.97122
-1.22406
-1.00909
-1.23336
-1.26346
-1.28499
-1.15146
-1.22345
-1.32035
-1.29494
-1.3526
-1.3286
-1.38315
-1.42584
-1.22094
-2.41468
-2.41786
-2.5097
-2.41272
-2.43318
-2.41536
-2.46393
-2.29036
-2.42417
-2.41723
-2.39601
-2.37189
-2.36656
-2.40992
-2.28359
-2.33014
-2.31085
-2.31605
-2.33029
-2.28219
-2.30766
-2.30017
-2.23803
-2.25958
-2.24427
-2.29517
-2.31414
-2.26374
-2.33419
-2.26005
-2.33704
-2.32055
-2.40297
-2.50326
-2.40838
-2.50492
-2.52602
-2.48322
-2.38765
-2.45747
-2.78705
-2.82041
-2.77986
-2.68013
-2.74852
-2.75402
-2.69796
-2.92758
-2.86598
-2.8517
-3.07167
-2.67011
-2.73306
-2.95062
-3.69809
-2.96834
-3.1672
-2.82338
-2.76879
-2.79246
-2.99546
-3.04581
-4.31357
-3.31059
-2.85656
-3.25681
-2.97325
-2.7686
-6.6888
-5.87184
-5.32269
-3.27588
-3.60349
-3.41189
-3.44211
-3.99379
-3.51727
-3.29143
12.8656
-17.6748
21.1857
-0.473777
-0.413712
5.09102
-20.9942
-7.11374
-54.3161
-9.44601
2.74519
13.2794
16.2418
6.31878
1.54536
-34.4505
-2.19544
-1.50088
-2.15048
-2.25971
-2.29929
-2.38961
-2.15297
-2.18613
-2.26581
-19.6877
-8.82778
-6.91195
-1.16383
-5.91634
-3.91
-14.5634
-3.30183
-3.67375
-3.29869
-2.8823
-3.13767
-3.43492
-3.5475
-2.72523
-2.88759
-2.63111
-2.58618
-3.0367
-2.44603
-2.65232
-4.42546
-4.59212
-4.61966
-4.74843
-4.84877
-4.49503
-4.237
-3.81812
-3.69806
-3.93201
-3.46581
-4.25344
-4.40102
-4.59703
-4.91493
-3.99952
-4.02718
-4.08463
-4.29737
-5.40501
-5.03971
-5.29486
-5.38389
-5.13556
-5.05435
-5.36169
-5.2115
-5.01853
-4.94349
-4.86649
-5.04765
-5.0643
-5.28069
-3.85599
-4.16874
-4.39302
-3.31886
-3.67808
-4.96186
-5.15846
-5.07283
-4.93839
-5.05597
-5.34696
-5.05489
-4.99561
-5.00537
-4.77819
-5.02916
-4.97508
-4.89181
-4.83262
-2.1205
-2.46689
-2.66934
-1.92772
-1.79331
-2.09258
-2.23053
-0.802421
-0.712638
-0.549815
-0.279313
-0.389681
-0.485041
-0.587488
-0.791813
-0.886116
-1.85736
-1.47394
-1.27566
-1.65238
-0.820578
-1.23117
-1.87588
0.339485
0.00436098
0.170743
0.374871
0.64334
0.309242
0.200404
-0.147616
0.132869
-0.114212
-0.147017
0.142926
0.608669
0.885022
1.0656
0.921348
1.19807
1.37064
1.16781
2.74322
2.66655
2.65226
2.55764
2.66028
2.6175
2.71137
2.67914
2.6321
2.59668
2.72276
2.78169
2.69049
2.80203
3.24528
3.22122
3.08476
2.99888
3.06026
3.06544
3.09488
2.99193
3.14448
3.18037
3.25217
3.1565
3.33016
3.2512
3.19411
3.23335
3.25469
3.16612
2.94356
3.32472
3.4899
3.456
3.5735
3.50038
3.55814
3.52796
19.3693
17.6919
19.9225
8.29528
8.18534
6.62152
3.92418
74.1506
-107.122
-59.2728
211.306
51.9762
140.738
-57.1058
45.6952
-79.1798
53.5431
-23.9532
87.4796
1.18221
55.2074
-57.6207
4.6884
166.344
33.6134
-17.991
-22.0491
-39.7672
38.5925
156.101
37.1137
44.39
63.5101
247.162
320.637
220.773
272.138
273.079
355.637
232.008
215.061
255.948
244.017
360.689
274.131
297.547
249.342
225.687
395.604
333.471
361.287
265.082
246.794
230.541
216.3
343.365
201.356
249.662
326.394
385.728
89.204
216.816
158.576
54.7909
64.7329
93.6628
371.933
191.4
57.6093
194.493
154.555
98.3146
150.411
380.211
164.579
411.66
150.75
141.526
-275.399
0.872482
-38.0288
-4.81697
-8.06402
0.608207
0.479155
5.23077
-8.94723
27.0939
83.6252
43.9139
224.144
18.2188
104.469
185.25
200.352
215.582
340.359
220.097
-127.852
15.351
24.3043
137.79
-152.25
-32.1841
10.3315
8.99464
-21.2343
11.2151
14.9313
23.0295
-9.08883
-1.62051
4.57893
58.5949
6.24566
-5.51695
27.5129
10.6159
-2.24325
-11.154
2.05581
-7.679
-9.65618
-6.30269
-6.17835
-9.6769
-10.4496
-6.9323
0.416887
2.21354
3.28568
4.12756
2.85135
3.3047