/*--------------------------------*- C++ -*----------------------------------*\
| =========                 |                                                 |
| \\      /  F ield         | OpenFOAM: The Open Source CFD Toolbox           |
|  \\    /   O peration     | Version:  v2012                                 |
|   \\  /    A nd           | Website:  www.openfoam.com                      |
|    \\/     M anipulation  |                                                 |
\*---------------------------------------------------------------------------*/
FoamFile
{
    version     2.0;
    format      ascii;
    class       surfaceScalarField;
    location    "0.35";
    object      phi;
}
// * * * * * * * * * * * * * * * * * * * * * * * * * * * * * * * * * * * * * //

dimensions      [0 3 -1 0 0 0 0];
oriented        oriented;


internalField   nonuniform List<scalar> 
13152
(
9.77028e-07
2.02802e-05
-1.61464e-06
-1.96426e-05
1.87003e-05
-1.7118e-05
-6.05309e-07
-3.47701e-06
4.24576e-05
-3.46513e-05
3.54291e-05
-2.39244e-06
2.12142e-05
-7.55081e-05
2.85276e-05
-2.44314e-05
6.04797e-05
-1.6104e-05
-2.95503e-05
-2.84158e-05
7.40702e-05
3.88634e-07
-1.67923e-05
2.99638e-07
-2.99074e-05
7.4571e-07
7.84955e-06
5.16046e-06
-2.98023e-05
7.82023e-06
3.28958e-07
-5.07705e-06
-1.55185e-05
-2.9824e-05
-8.64597e-06
-1.46137e-05
-5.13142e-06
2.83911e-05
-6.90411e-08
-8.66623e-06
8.92971e-08
-1.4145e-05
-5.37693e-07
5.66066e-06
-3.05625e-05
1.62356e-05
-2.93312e-05
2.98605e-05
2.93626e-05
-5.06307e-07
3.87902e-08
-1.52284e-05
-2.99057e-05
1.20506e-07
-7.49364e-05
3.32302e-07
1.59926e-05
3.0185e-05
7.81126e-09
7.45687e-05
3.58101e-05
1.2673e-05
2.53854e-05
-7.38684e-05
3.51792e-07
-7.0095e-07
3.61592e-05
1.24194e-05
2.52963e-07
-1.87716e-05
7.36486e-05
7.78674e-05
2.91829e-05
-7.26204e-07
-2.93959e-05
9.39135e-07
-1.64107e-05
-2.69135e-05
7.25072e-05
1.78036e-07
-1.7315e-05
-8.07511e-06
8.0111e-06
2.42049e-07
5.2962e-06
-3.06863e-05
-4.96852e-06
-1.39339e-05
-2.90682e-05
-1.38115e-05
1.19686e-07
2.91508e-05
2.02272e-07
8.38362e-05
4.00884e-06
-3.74611e-05
-5.0384e-05
-3.29822e-05
7.05441e-07
0.000116113
-2.33579e-05
-5.61549e-06
-6.7028e-05
-2.93884e-05
9.71219e-05
-5.42212e-06
-9.90669e-05
6.1794e-06
-9.4233e-06
-2.0114e-05
3.61251e-06
-3.0486e-06
-1.42511e-05
-1.15248e-05
-2.90965e-05
-5.51103e-06
3.1798e-05
-8.20193e-06
-1.80851e-05
4.77906e-05
-1.91811e-05
-3.41205e-05
-1.65111e-05
-5.37892e-05
1.84862e-05
1.01396e-05
-4.7807e-05
1.47224e-05
-4.43814e-06
-4.79614e-05
4.61728e-05
-9.1611e-05
-1.24253e-05
-2.69094e-05
-5.23799e-06
4.45726e-05
-1.32831e-05
-8.72037e-06
9.57823e-06
-2.1079e-05
-1.91135e-05
-4.94122e-06
2.70933e-05
-4.32311e-05
3.96652e-05
-6.37199e-05
-1.45443e-05
4.89715e-05
3.82862e-06
9.43089e-07
3.44414e-06
8.90428e-06
-1.32915e-05
3.68642e-06
3.999e-06
-6.74232e-06
5.18446e-07
6.61213e-06
8.8184e-06
2.06708e-06
-6.88648e-06
-3.52092e-07
1.80748e-05
1.42418e-05
-1.16563e-05
2.05019e-05
-4.19592e-05
-4.05029e-05
-2.21944e-05
0.000104657
-7.70105e-06
-4.45434e-05
1.02852e-05
-3.32927e-06
-4.48746e-05
6.42202e-05
-1.93083e-05
-8.94552e-05
-5.77313e-05
9.9757e-05
-6.78028e-05
6.74229e-06
-0.000131986
1.351e-05
1.28047e-05
-1.29158e-05
-1.33989e-05
-4.00046e-06
-1.6902e-05
3.44125e-05
-1.70817e-05
2.58859e-05
1.88136e-05
1.82961e-05
-5.00254e-05
4.51485e-05
-3.97338e-05
-2.96174e-05
5.78638e-05
-2.8403e-05
-1.85804e-05
-2.28571e-05
-1.00818e-05
5.15194e-05
-1.39502e-05
-7.3879e-09
-4.62286e-06
-1.66841e-05
-2.01232e-05
1.78541e-05
-3.663e-06
-3.08752e-05
2.44581e-05
-2.67272e-05
1.45065e-05
-1.81769e-05
2.88827e-05
-5.30311e-05
-7.82961e-05
-2.74469e-05
0.000158774
-1.86883e-06
4.83463e-06
-5.59969e-05
-8.87796e-05
8.61466e-06
-8.56917e-05
7.59996e-05
1.45267e-05
2.87813e-05
-0.00017047
0.000111905
-0.000171903
0.000160458
1.70845e-05
-5.11151e-07
-1.7518e-05
9.44729e-07
-3.20941e-05
-1.01681e-05
5.93467e-05
7.6712e-07
-3.33724e-05
-1.26447e-05
-6.0578e-05
6.30546e-05
-6.20126e-05
3.18499e-05
-6.55238e-05
5.71283e-06
-0.000160909
2.7347e-05
2.35615e-05
5.50884e-05
-0.000105997
-3.26051e-06
1.61344e-05
1.44732e-05
8.4559e-06
1.18451e-05
2.13807e-05
4.98421e-05
-9.39478e-06
3.92314e-05
1.69235e-05
-5.91986e-05
5.80966e-05
2.99098e-06
-1.889e-06
9.15373e-05
5.48797e-05
8.76876e-05
1.22027e-05
0.000137431
5.90812e-06
1.9769e-05
2.92026e-05
3.00622e-05
6.35334e-05
-1.98266e-05
6.20916e-05
2.93333e-06
2.90635e-05
1.66349e-06
-2.63321e-05
-4.39486e-06
-2.54535e-05
-2.83324e-05
8.28493e-05
5.58219e-07
-2.43482e-05
-2.65956e-05
2.72126e-05
-5.87754e-08
2.38518e-05
-7.47957e-05
-1.07841e-06
-4.13171e-08
-3.55868e-06
-1.20654e-05
-0.000211103
7.59004e-05
0.000147268
-0.000135541
4.95519e-05
7.39237e-05
0.000156859
0.000233258
4.93599e-05
2.7694e-06
-2.57735e-06
-2.13418e-05
0.000146602
0.000153931
5.69733e-06
0.000365848
2.12875e-05
1.03098e-05
-2.74204e-05
-4.17693e-06
-6.19155e-07
-5.98304e-05
8.17371e-05
-3.64336e-05
4.61243e-05
3.42943e-05
4.13287e-05
-0.000103043
3.82369e-05
-8.11953e-06
3.08673e-05
-5.24608e-05
3.57624e-05
1.56846e-05
3.03018e-05
1.77462e-05
-6.37326e-05
1.8308e-05
-1.19756e-05
9.35216e-06
1.42336e-05
3.43762e-05
3.55166e-05
-4.99821e-05
2.4899e-06
-8.00003e-06
5.28688e-05
-5.19074e-05
5.8141e-05
-8.41433e-05
-2.33612e-05
-6.87695e-05
3.85193e-07
9.17455e-05
-2.58283e-05
3.02424e-05
-2.77753e-05
-5.13792e-05
-4.32186e-05
-5.64746e-05
1.65745e-05
7.01425e-05
2.49828e-06
-8.67481e-05
7.1307e-05
-0.000120188
8.82667e-05
-3.0641e-06
3.61749e-05
5.99093e-05
-9.302e-05
4.31571e-05
7.82125e-05
-0.000124434
3.18987e-05
4.74333e-05
-2.71967e-06
2.62413e-05
3.63877e-05
3.36817e-05
4.18112e-05
2.92731e-05
-7.0169e-05
7.27946e-05
-4.48666e-05
0.000121573
5.95596e-06
-4.24432e-05
-1.26694e-05
-2.86496e-05
2.52873e-05
4.37531e-05
-4.03908e-05
6.4016e-05
-4.05171e-05
-5.21485e-05
3.98673e-06
8.53165e-05
-0.000109062
2.83813e-05
-5.48048e-06
-0.000143972
7.86821e-05
-0.00012468
0.00011105
5.57352e-06
1.64799e-05
4.68743e-05
-6.89278e-05
1.07268e-05
5.29468e-05
-5.81001e-05
1.40433e-05
1.31634e-05
5.25495e-05
7.29405e-05
-7.86157e-05
4.35845e-05
6.19119e-05
-1.72634e-05
-4.84539e-05
7.97606e-05
-5.38386e-05
4.97387e-05
6.64818e-05
-7.67359e-05
9.09684e-05
-1.56609e-05
6.60241e-06
2.31936e-05
-1.41351e-05
1.98815e-05
1.36986e-05
-4.9241e-05
6.40924e-06
2.00747e-05
-5.73015e-06
8.57416e-06
2.03496e-05
9.94159e-06
-1.97311e-06
2.11617e-05
-2.92916e-05
1.45391e-05
-1.25899e-05
5.38264e-05
-5.11044e-06
1.09465e-06
-2.44605e-05
-3.68561e-07
-1.74946e-05
1.53726e-05
2.49064e-06
-1.6257e-05
-9.28916e-07
1.68174e-05
1.25054e-05
-4.62571e-05
2.0278e-05
-1.05165e-05
-1.06905e-05
-1.21455e-05
7.60222e-06
-5.61329e-06
1.08292e-05
-2.29105e-07
-2.30154e-05
-1.98423e-10
2.32447e-05
-1.9546e-05
1.82733e-05
1.04358e-06
1.11719e-05
-5.37332e-05
1.57153e-05
-1.18297e-05
-3.88576e-06
-2.53498e-05
6.43098e-05
5.73363e-07
-7.64984e-06
-8.45102e-08
-1.52283e-05
2.1183e-06
1.61127e-05
-3.00272e-06
2.23224e-05
8.00774e-06
-4.55584e-05
1.42785e-05
1.01622e-05
-2.7724e-05
-9.89656e-06
-3.19957e-05
1.26908e-06
3.37914e-05
-5.77794e-05
3.81733e-05
0.000125868
0.000121137
0.000121278
-0.000368283
-3.35282e-06
0.000118429
1.07915e-05
0.000121428
-3.64325e-06
-0.000132769
-0.000113701
0.000367897
-0.000123149
-1.32636e-05
8.39471e-06
-1.02653e-05
1.31233e-05
-7.68426e-06
-2.85628e-06
5.9153e-06
4.62524e-06
1.3731e-05
1.54241e-06
-2.29577e-05
1.37079e-05
-2.83331e-06
2.29457e-06
1.19524e-06
2.42548e-06
9.44561e-06
-2.52582e-06
3.21299e-06
7.77499e-06
1.81162e-05
-3.08807e-07
1.89933e-07
1.18588e-06
-1.06701e-06
3.57082e-07
1.75959e-06
1.91422e-06
-1.3672e-06
-3.25779e-06
3.49422e-06
1.52317e-06
4.71712e-06
-6.78901e-06
-3.91049e-06
1.05418e-05
-1.78346e-06
5.00481e-06
-2.44379e-06
-6.43993e-06
3.8789e-06
-1.08064e-05
9.30947e-07
1.48803e-05
1.78953e-06
-1.50397e-05
1.63397e-05
2.47996e-07
-2.30276e-05
9.52817e-06
-1.42225e-05
2.46816e-05
-1.21849e-05
1.43034e-05
3.66887e-05
5.56212e-06
-5.65542e-05
1.0311e-05
8.78907e-06
-4.79666e-06
1.77996e-05
2.92001e-05
-2.00827e-05
-2.57884e-06
3.14506e-05
-1.99947e-05
-4.88465e-06
-3.35914e-05
4.88121e-05
-4.8024e-05
2.26887e-05
-3.81488e-05
-1.22916e-05
2.77518e-05
-7.84279e-05
4.89681e-05
1.30242e-06
-0.000117879
5.03567e-05
-4.26926e-05
-1.99557e-05
7.94297e-06
7.01655e-05
1.64483e-05
-1.24359e-05
-4.6705e-05
-8.62134e-06
3.30126e-05
-1.93976e-05
5.97443e-05
-3.0531e-05
1.75355e-05
-4.58088e-05
4.69744e-05
-1.87012e-05
-6.84963e-05
4.28132e-05
4.88968e-05
-0.000163202
-8.97006e-05
-7.29725e-06
-4.53812e-05
-6.30206e-05
-3.91934e-05
7.47094e-05
-3.56778e-05
0.000115057
-9.17841e-06
-0.000114096
8.21796e-06
-0.00017581
-4.43554e-05
0.000335223
-0.000144642
-4.03465e-05
0.00018775
3.84351e-05
-0.000340282
0.000157334
3.8634e-05
-0.00022388
0.000336859
-0.000330087
-1.30514e-05
3.29832e-06
1.25904e-05
-2.8373e-06
1.83842e-05
4.45981e-06
-3.58954e-05
7.99007e-06
1.36924e-05
-8.18182e-06
1.80614e-05
2.71079e-06
2.14679e-05
-2.51899e-05
1.11332e-05
-4.51515e-05
4.20084e-05
-2.65669e-05
5.13924e-05
9.43349e-06
-3.31171e-05
9.28065e-07
-4.52238e-06
-8.31545e-07
6.14706e-06
-7.93133e-07
1.46238e-05
1.58076e-06
-2.07269e-05
-9.49866e-07
1.47421e-05
4.29982e-06
2.0375e-05
-2.3094e-05
2.35113e-05
-1.30645e-05
2.88757e-05
-9.45061e-06
6.71292e-05
-3.08748e-05
-1.23639e-05
-2.44328e-05
6.76715e-05
-1.69128e-06
-3.93714e-05
1.01879e-05
-1.3417e-05
-6.38173e-07
1.3508e-05
8.36265e-06
-3.52877e-05
1.35924e-05
-7.22505e-07
6.01462e-05
-2.67577e-05
-7.27599e-05
-3.66839e-05
7.23972e-05
4.81534e-06
-2.32104e-05
-1.82762e-05
9.72534e-06
1.46054e-05
-4.50577e-05
-4.13226e-06
-1.26208e-05
-1.53789e-07
3.0379e-05
-2.78477e-05
-2.3775e-06
1.53726e-05
-1.55735e-05
4.7139e-08
-2.75978e-05
7.33493e-05
6.6213e-06
4.37575e-06
-2.65706e-05
7.09802e-06
-4.29575e-07
-5.23018e-06
-1.52696e-05
-2.87021e-05
-2.54231e-05
-1.89183e-05
-1.29379e-05
5.72793e-05
-2.20744e-06
-3.89484e-05
1.57328e-05
-1.44047e-06
-1.96853e-05
3.85952e-05
-1.81273e-05
-5.94164e-05
-2.90104e-05
5.46677e-05
-2.11888e-05
-9.26208e-06
-5.90013e-05
5.64898e-05
8.04165e-07
-5.43082e-05
-2.98581e-06
-4.12408e-05
-1.2322e-05
0.000110053
-4.06999e-05
2.63358e-07
1.58723e-05
-1.47782e-05
-5.54023e-05
-1.51598e-05
1.87101e-05
5.3702e-05
1.21691e-05
-0.000106571
5.41072e-05
-1.41878e-07
-1.5498e-05
5.44455e-05
-1.81071e-05
1.02639e-05
7.09109e-06
-9.23309e-06
-8.12192e-06
-1.23443e-05
-7.91662e-06
3.05248e-05
-9.14205e-06
3.88884e-06
-9.55048e-06
2.09326e-05
-2.06152e-05
9.22302e-06
-2.68954e-05
-1.56017e-05
2.86177e-05
-1.55208e-05
7.87557e-06
-1.67694e-05
2.94769e-05
-2.05831e-05
-2.75723e-05
2.83669e-05
7.081e-06
3.10768e-05
-7.54185e-05
-1.83889e-05
-3.73741e-05
8.41299e-05
-3.35402e-05
2.22323e-05
-6.12454e-06
3.66119e-06
-1.40217e-05
1.93866e-05
5.73724e-05
2.28579e-05
-9.96168e-05
8.13692e-06
-4.53515e-06
1.57848e-05
4.49261e-05
5.05338e-05
-4.29215e-05
-1.21475e-05
-2.37535e-05
9.00721e-05
2.06682e-06
-4.66879e-05
1.69959e-06
-2.75698e-05
5.88313e-06
-8.14773e-05
9.88336e-05
-0.000105307
-3.81714e-05
3.65822e-06
4.58881e-05
-1.13748e-05
3.63782e-05
1.8404e-05
-9.29536e-05
3.79058e-05
2.13059e-06
-9.44709e-06
1.27209e-05
4.26142e-05
1.30428e-05
-4.08595e-06
-3.76107e-05
-1.17469e-05
8.72634e-05
-3.9762e-05
4.28196e-06
9.3544e-06
-3.60736e-05
1.03285e-05
1.33625e-05
-1.17205e-06
-1.51197e-05
2.92924e-06
-1.62171e-05
-6.86761e-06
3.64471e-05
2.19243e-06
-1.95815e-05
-1.24486e-05
-4.61914e-05
5.17724e-05
-5.68362e-05
2.9268e-05
-5.21048e-05
8.10582e-06
-0.000128523
-6.62423e-06
-6.56776e-06
1.59028e-05
-2.58809e-06
-1.15229e-05
7.48675e-06
-1.19931e-05
3.78669e-05
-8.57555e-05
1.15415e-06
-6.88362e-05
-2.05973e-05
5.63164e-05
2.36017e-05
-9.12837e-05
1.04911e-05
2.7322e-05
-3.34045e-05
-3.77929e-05
-3.07936e-05
0.000101991
-1.11251e-05
-7.38369e-05
5.15575e-05
-4.32991e-05
-5.61888e-06
6.08248e-05
3.0828e-05
-0.000134952
7.14706e-05
-1.62647e-05
7.84457e-05
-0.000121454
0.000119123
-4.6122e-06
-2.0323e-05
-2.427e-05
4.92052e-05
-1.45968e-05
-4.10277e-05
5.10123e-05
-2.61934e-05
-8.72643e-06
3.72697e-05
2.26796e-05
-8.61427e-05
5.14402e-05
-2.28969e-05
3.53293e-05
-5.36774e-05
6.24996e-05
-3.93438e-06
-1.31578e-05
1.37826e-06
1.57139e-05
-5.07438e-06
8.02845e-06
-6.88846e-06
-9.79903e-06
-8.43317e-06
-2.03883e-05
7.70087e-06
2.07159e-05
-3.97183e-06
-2.3305e-05
-6.08507e-06
8.52238e-07
1.29337e-05
2.09128e-06
-1.21482e-05
4.27832e-06
-1.19861e-05
6.5088e-06
-6.51701e-07
7.48809e-06
1.8671e-05
-2.55074e-05
1.32475e-05
2.31439e-05
-3.70431e-05
6.34968e-06
1.43859e-05
2.5003e-06
-1.79979e-05
2.18473e-05
-2.7422e-05
4.43082e-05
-1.77896e-05
2.29356e-05
-2.65406e-05
1.04815e-05
7.90202e-06
6.93657e-06
-2.532e-05
-3.28634e-06
2.28138e-06
1.14864e-05
1.28515e-05
-8.2358e-06
1.27384e-05
-1.56786e-05
5.22158e-06
-7.24148e-06
3.14663e-05
3.31004e-06
-5.06618e-06
-1.39224e-05
-4.98748e-06
1.05605e-06
-2.49476e-06
1.03588e-05
-6.24379e-07
4.35403e-05
2.87954e-06
-4.39218e-05
-2.49805e-06
-4.14379e-05
-4.82266e-05
0.000133205
-4.64771e-05
7.91876e-06
4.09564e-05
4.89998e-05
-0.000133878
4.62602e-05
-7.80188e-06
5.48769e-06
-7.45407e-06
8.01042e-06
1.43567e-06
-3.9281e-05
-1.69244e-06
3.95378e-05
-4.12122e-05
3.85533e-05
4.0946e-06
3.64393e-05
-0.000116932
4.19391e-05
-3.82152e-05
-5.41632e-06
-3.75214e-05
0.000118998
-3.28165e-06
4.31353e-06
-5.05757e-06
2.161e-05
1.683e-05
-1.60824e-05
-2.23575e-05
7.8039e-07
-5.32669e-05
7.40965e-05
-3.07098e-05
4.83202e-05
-7.60045e-06
3.76278e-05
-4.61098e-05
4.98966e-05
-7.98546e-05
2.87145e-05
-4.43536e-05
4.79012e-05
5.62619e-05
2.21894e-05
-1.34593e-05
-6.4992e-05
-1.78076e-05
1.49135e-05
5.9156e-05
-1.9896e-05
2.42778e-05
-5.49189e-05
-8.41757e-06
7.825e-05
1.69588e-05
-8.5337e-05
6.21768e-05
-6.5114e-05
7.8037e-05
2.29361e-05
3.66383e-05
-1.60016e-05
-4.35729e-05
2.77414e-05
-9.22709e-05
8.74656e-05
-4.39609e-05
0.000108341
-4.52316e-05
8.55522e-05
-5.63221e-05
5.06515e-05
-0.000139456
8.10766e-05
-0.000122696
0.000122668
6.12185e-05
-6.801e-06
-8.24816e-05
2.80642e-05
-5.82962e-05
-2.55843e-05
0.000145099
1.28281e-06
-6.638e-05
1.97265e-05
-2.82861e-05
-7.3922e-05
-2.52062e-05
1.93485e-05
-8.52712e-05
8.63684e-05
1.85582e-07
3.19441e-05
-0.000183595
-2.39995e-05
8.51617e-05
-2.03415e-05
6.04424e-05
5.65701e-06
-5.76592e-05
-8.44022e-06
-3.69088e-05
-1.5445e-05
0.000112796
7.87206e-06
-3.91238e-05
-6.29391e-05
5.34159e-05
1.73952e-05
1.67633e-05
-0.000118826
-7.81166e-05
0.000116088
-0.000119013
-2.37149e-05
-1.21818e-06
-6.67174e-07
2.56002e-05
4.49687e-05
4.78491e-05
-0.000116533
4.93949e-05
-5.64438e-06
1.39286e-05
-1.35601e-05
-1.03567e-06
-8.38707e-06
4.7916e-05
7.97106e-06
2.63179e-05
4.89789e-05
-4.36708e-06
4.24246e-05
3.19382e-06
-4.12514e-05
4.47019e-05
-4.15718e-05
-7.49715e-06
-4.10888e-05
0.000128215
-4.4674e-05
4.22234e-05
3.80206e-05
-0.000123946
1.85041e-06
-5.40165e-06
2.985e-06
-2.18735e-06
-3.39632e-05
-1.13485e-07
3.6264e-05
-5.23832e-05
5.78509e-05
-7.6551e-06
5.04053e-05
-0.000136752
1.48524e-05
-1.41159e-05
-8.49938e-07
-1.03742e-05
6.14906e-05
-8.72493e-06
5.62017e-05
2.75645e-05
1.45609e-05
3.14154e-05
9.05053e-06
-5.50268e-05
-1.03559e-06
1.4911e-05
6.85463e-07
3.23815e-05
-2.00164e-06
9.1438e-06
5.21306e-05
-5.22239e-05
4.7345e-05
-2.32902e-05
-5.70252e-05
-6.89624e-06
-2.75031e-05
-6.39621e-05
0.000152956
-7.8854e-07
-8.54897e-06
1.3548e-06
-4.88854e-05
-4.69333e-06
-2.12499e-05
-0.000125162
-2.21219e-05
-3.73889e-05
-1.41449e-05
7.36557e-05
-1.56031e-05
-3.28993e-05
2.63804e-05
-1.8893e-05
-3.4099e-05
4.09934e-05
-5.67805e-05
-1.71122e-05
-8.24136e-05
0.000109262
-3.71288e-05
-6.41779e-05
-0.000128008
1.37424e-05
4.45857e-05
-4.48454e-05
-1.34827e-05
8.56506e-06
-2.06991e-05
2.58764e-05
-3.09913e-05
8.4142e-05
4.04772e-05
8.0328e-05
-0.000165651
6.99355e-05
-4.29411e-05
-2.1832e-05
8.14609e-05
2.93326e-05
-6.06282e-05
5.7172e-05
4.72132e-05
-3.2904e-05
1.59743e-05
2.86915e-05
-1.17618e-05
7.02419e-05
1.17287e-05
-0.000114875
4.27402e-05
4.34759e-05
-1.75692e-05
4.67105e-06
4.15896e-05
-1.27607e-05
-1.65702e-05
-8.27237e-06
-6.95893e-06
1.99024e-05
-1.76359e-05
-3.39722e-06
2.96885e-05
-3.55957e-05
6.54698e-05
-4.33272e-05
-5.08462e-05
-4.86636e-05
-2.3411e-06
-2.10837e-05
-2.25024e-05
-3.06849e-05
-2.26335e-05
-4.26003e-05
-4.85331e-05
-3.22594e-05
-1.82172e-05
1.97918e-05
2.82993e-05
-9.61544e-05
-3.8451e-05
4.60384e-07
2.26869e-05
-9.79621e-06
-1.33511e-05
3.18969e-05
-1.74241e-05
-1.40124e-05
-3.82546e-05
-2.75546e-05
-8.52908e-06
-8.44666e-06
7.17953e-06
-8.50093e-06
-1.74523e-05
1.52097e-05
-6.19653e-05
-2.07916e-05
-4.53954e-06
-2.4872e-05
5.64864e-06
2.37629e-05
-2.5436e-05
3.63773e-05
-1.54808e-05
1.93638e-05
-6.96718e-05
2.39776e-05
-3.47336e-05
1.64046e-05
-1.37383e-05
6.14788e-05
7.00996e-06
-1.23399e-05
-2.94037e-05
-1.15808e-05
4.85252e-06
-7.11425e-06
3.19107e-05
-9.03394e-08
2.35349e-06
1.23198e-05
2.4479e-05
-3.91523e-05
1.61552e-05
3.46326e-05
-4.84343e-05
1.07601e-05
1.77148e-05
1.94377e-06
-2.21292e-05
3.09455e-05
-3.4281e-05
5.39396e-05
-2.30376e-05
3.5541e-05
-3.28397e-05
1.41299e-05
-8.74753e-06
-1.2174e-05
6.7916e-06
-3.33281e-05
2.38334e-06
4.50747e-05
-1.11301e-05
2.70987e-05
-2.98217e-06
-3.62905e-05
1.08515e-05
2.30388e-05
-2.68073e-05
4.00421e-05
-4.09195e-05
1.2861e-05
3.42971e-06
2.27818e-05
-3.90726e-05
-1.27276e-05
1.28767e-05
1.27119e-05
3.48029e-05
-4.41008e-05
3.11832e-06
-3.06907e-05
4.04491e-05
-1.85375e-05
3.43678e-05
-2.07988e-05
3.70642e-05
-2.87077e-05
1.32638e-05
2.38915e-05
-8.5979e-06
-2.85574e-05
1.66631e-05
5.6345e-05
7.35672e-05
-4.11124e-05
-1.41905e-05
-0.000100201
4.95447e-05
1.83423e-05
-5.77571e-06
-6.21113e-05
-1.92066e-05
6.69265e-06
6.20587e-05
1.27867e-05
-1.36511e-05
-3.07332e-05
5.56455e-06
3.79554e-05
-1.41121e-05
-3.02722e-05
-3.28336e-05
4.50908e-05
-5.27214e-05
4.98221e-05
1.24682e-05
-1.50557e-05
-4.72346e-05
-2.27418e-05
3.0298e-06
6.95341e-05
-1.85864e-05
8.31292e-06
3.68662e-05
-1.98067e-06
-5.34719e-05
1.99648e-05
2.52143e-05
-3.86541e-05
6.16487e-05
-5.56905e-05
3.82898e-05
3.1684e-06
-1.99369e-05
-2.15213e-05
-1.95316e-05
-3.88363e-06
6.1705e-05
-1.65508e-05
1.87571e-07
2.87593e-05
3.5522e-06
-4.88622e-05
2.06872e-05
8.25968e-06
-3.47745e-05
5.15781e-05
-5.11591e-05
3.81442e-06
-4.85609e-07
6.37629e-06
-9.70511e-06
-3.86293e-06
2.67712e-06
5.00024e-06
9.13899e-06
-1.34875e-05
1.23528e-05
-9.08296e-06
-5.92723e-07
-4.0274e-06
2.13805e-05
-9.20238e-06
1.4314e-05
-1.1909e-05
-1.94951e-05
-3.67246e-06
2.03891e-05
2.77844e-06
1.48131e-05
1.51396e-05
-4.94478e-05
2.89302e-05
-1.77895e-05
-2.2841e-05
-1.28158e-05
5.60459e-05
-3.38627e-05
1.38002e-05
-6.50962e-06
-1.0011e-05
3.70481e-06
-1.1438e-05
-2.89343e-05
6.40237e-06
-2.70081e-06
2.53215e-05
2.02779e-05
-1.01337e-06
-2.91863e-05
9.92184e-06
-1.4603e-05
-1.01927e-05
4.50735e-05
8.93492e-07
-1.65098e-05
-3.25932e-05
-2.21669e-05
4.45674e-05
-9.03895e-06
-5.27406e-05
-2.55018e-05
4.22841e-06
-5.10506e-05
-1.64747e-06
1.11138e-05
2.93515e-05
-3.88179e-05
5.15376e-06
1.52154e-05
-2.20166e-05
4.96262e-06
1.1305e-05
7.17574e-06
-1.59455e-05
1.37324e-05
-1.41557e-05
3.26364e-05
1.46604e-05
-1.36007e-05
2.80664e-05
1.3268e-05
5.40002e-06
-5.14652e-06
-1.35215e-05
-5.19991e-06
-8.58043e-07
1.93259e-05
-6.92492e-06
7.12503e-06
9.3647e-06
2.75073e-06
-1.7262e-05
-3.52022e-06
1.20269e-05
1.91613e-05
-2.33355e-05
2.27662e-05
6.86881e-06
9.21297e-06
1.64593e-05
-3.2541e-05
3.46304e-06
1.04361e-05
-7.0303e-06
7.73851e-06
4.93751e-06
-1.4279e-07
-1.2654e-05
2.05353e-05
-1.00206e-05
1.48153e-05
-7.58198e-06
1.40206e-05
-9.79993e-06
1.97231e-05
5.20242e-06
-1.11447e-05
-1.37809e-05
-1.4197e-05
-7.70902e-06
4.16291e-05
-1.52217e-05
6.22721e-06
1.00474e-05
-6.09305e-06
-1.5099e-05
-1.2773e-05
1.51114e-05
2.58496e-05
-4.71644e-05
1.93038e-05
-3.69535e-05
-5.03519e-06
2.11639e-05
2.08247e-05
9.3555e-06
1.10138e-05
-5.73228e-05
-2.52224e-06
6.84255e-06
1.80406e-05
-2.13024e-05
7.39617e-07
-9.65782e-06
3.45409e-05
3.93644e-05
2.44815e-05
-5.28321e-05
1.3508e-05
4.70203e-05
1.05587e-06
2.12317e-06
4.90607e-06
-2.79881e-05
-1.88724e-05
-6.381e-06
5.32416e-05
1.45779e-06
-2.87063e-05
-1.83931e-05
9.78421e-07
6.16803e-06
-2.82109e-06
-2.174e-05
7.38798e-06
-2.41525e-07
7.68979e-06
1.04775e-05
-2.09884e-05
2.52834e-05
-1.02056e-05
3.4956e-05
-5.31848e-05
5.38584e-05
-2.73478e-05
-1.61168e-06
1.95983e-05
9.36113e-06
1.08821e-05
1.54116e-05
-5.36415e-05
-5.48888e-07
9.81934e-06
1.33018e-05
-1.28732e-05
-9.77515e-07
-4.47746e-06
2.75986e-05
-3.571e-06
2.12316e-05
1.93774e-06
1.72186e-05
-5.37794e-06
-2.41019e-05
4.0856e-05
-1.97565e-05
-8.76437e-06
-1.57268e-05
5.20898e-05
-9.82482e-06
8.29339e-08
8.7868e-06
4.97023e-06
-2.35818e-05
8.83131e-06
3.84178e-08
7.21397e-06
-2.20003e-05
2.70182e-05
-1.09729e-05
5.21474e-05
-2.73895e-05
-4.08162e-07
2.32131e-05
4.58462e-06
1.98107e-05
2.5197e-05
1.07699e-06
1.83256e-05
2.30738e-05
3.20015e-06
-2.04952e-05
6.18945e-05
5.91807e-06
1.46029e-05
1.86779e-05
3.9779e-06
-3.72588e-05
3.20729e-07
1.4418e-05
-1.35776e-07
-2.18314e-05
1.30389e-05
-5.31412e-05
4.15152e-05
2.87073e-05
1.59182e-05
-8.61407e-05
-2.65883e-06
4.58736e-05
-3.05623e-06
2.91047e-05
5.9803e-05
4.33786e-05
1.25739e-05
9.31028e-05
4.51118e-05
-4.78946e-06
8.67903e-05
2.40678e-05
1.20228e-05
2.37582e-05
1.73775e-07
-3.59627e-05
-4.05784e-05
-8.16968e-05
-1.42159e-05
-1.4833e-06
2.63428e-05
-3.84266e-06
-3.20789e-05
-2.99325e-05
-4.32959e-05
-6.31413e-06
-3.62682e-05
1.05034e-05
-3.14754e-05
-4.77118e-06
-2.83987e-07
-4.01426e-05
-2.86927e-06
-4.7927e-05
1.95182e-05
-9.89207e-05
-2.53956e-05
-4.41176e-05
-2.57414e-06
1.06182e-05
2.52687e-05
-7.34723e-05
-3.09407e-06
2.57886e-05
5.00236e-05
-1.1369e-05
1.53222e-05
3.80552e-05
1.66467e-05
3.23387e-05
-6.03544e-05
1.15814e-05
2.03876e-05
9.90723e-06
-2.49768e-05
2.6651e-05
-4.31775e-05
2.17023e-05
-3.2541e-05
3.47806e-05
8.8806e-06
2.33166e-05
2.59917e-05
3.46612e-05
6.87135e-05
3.34749e-07
-7.09994e-05
1.95117e-06
-3.76729e-05
-4.15435e-05
0.00014793
1.07691e-06
-3.8415e-05
-3.58465e-05
3.47968e-05
2.12657e-06
5.57897e-06
-7.98405e-05
-5.92179e-05
5.24712e-05
-0.000124638
-1.60698e-05
-4.61481e-05
8.23141e-06
5.39865e-05
1.28982e-06
-1.81103e-05
7.50659e-07
-4.88733e-05
4.01503e-06
-2.15684e-05
-2.77499e-05
5.75496e-05
-6.49439e-05
2.52653e-05
8.07728e-05
1.60428e-05
-0.000145689
7.68674e-05
7.92038e-06
9.41725e-05
-0.000143074
0.00014329
-2.34703e-05
-5.10657e-05
2.54562e-06
9.02957e-06
1.71644e-05
2.16109e-06
-1.79469e-05
-1.37859e-06
-3.83318e-05
-1.6429e-06
5.7139e-05
1.66889e-06
-3.78396e-05
1.66195e-05
-6.38858e-05
2.93194e-05
-4.42267e-05
5.92034e-05
-3.6227e-05
3.6531e-05
1.36488e-06
1.61065e-06
-7.56773e-05
5.51088e-05
-0.000117384
4.74131e-05
-2.26803e-05
-2.16245e-05
-1.01507e-05
5.44555e-05
-5.04385e-07
-2.18851e-05
-2.90807e-07
-2.00023e-05
1.75132e-05
-6.9139e-05
2.97407e-05
5.98337e-05
4.48503e-05
-0.000144693
-0.000148927
-2.95973e-05
-5.90208e-05
-1.47384e-07
6.65468e-07
1.41924e-05
2.17939e-07
-1.40623e-05
-3.48017e-07
-3.23805e-05
-9.79995e-06
5.63728e-05
-9.96761e-07
-3.11658e-05
8.81257e-06
-4.97787e-05
2.69039e-05
-5.56606e-05
5.46732e-05
-5.28391e-05
-3.81823e-06
-0.000133784
-6.99188e-05
-3.09234e-05
-4.80848e-05
-5.72345e-07
-6.92986e-05
-4.78833e-08
-3.01309e-05
3.53479e-05
-0.000141156
6.75977e-05
-0.000149634
1.0814e-06
-2.78236e-06
4.09748e-07
5.30785e-05
7.76619e-05
2.6756e-05
-0.000157496
-4.25186e-07
2.97187e-07
5.32065e-05
7.87174e-05
-1.48068e-06
7.93667e-05
-7.91174e-05
-2.5862e-05
0.000158435
-0.000106005
0.00015886
-0.000158366
-7.89638e-05
-5.33323e-05
-2.55536e-05
0.00015785
1.44964e-06
-7.84607e-05
-1.95278e-06
-5.34774e-05
1.5947e-06
8.14688e-05
2.60093e-05
-0.000160955
7.88975e-05
4.16601e-06
0.000106906
-0.000159358
0.00016025
1.83765e-05
3.97464e-07
-2.68758e-05
8.1019e-06
-1.22619e-05
-9.10542e-06
3.97437e-05
-1.35406e-05
1.67617e-06
3.13274e-05
-8.008e-06
-5.01952e-05
-2.06036e-05
4.28255e-05
1.83647e-05
-3.99133e-05
-5.62677e-07
-3.0092e-06
-8.71968e-06
-4.71503e-07
1.22004e-05
1.1364e-06
-4.6321e-06
4.865e-07
-1.56964e-06
-6.01364e-06
3.26476e-07
4.01249e-06
-8.97107e-06
-2.08696e-08
8.33841e-07
8.89207e-06
-1.04826e-05
1.24331e-05
1.21357e-06
5.05978e-06
8.27206e-06
-1.45454e-05
-8.03184e-07
5.93738e-06
-3.92062e-06
-2.07691e-06
6.33351e-06
6.88441e-07
5.53275e-06
-2.83817e-07
8.65405e-06
3.06445e-07
1.15546e-05
-4.97747e-06
2.34209e-05
-6.9736e-06
-1.4194e-05
7.36607e-06
1.38016e-05
-5.81639e-06
4.8532e-06
-6.01041e-06
-2.36497e-06
-1.76455e-05
-1.42077e-05
1.93617e-06
1.71247e-05
-1.02789e-05
-9.9392e-06
-5.73467e-06
-6.53915e-07
8.32475e-06
-1.53283e-06
-1.44807e-05
5.56216e-06
-9.45996e-06
1.22743e-05
-1.53792e-05
-8.34541e-06
-3.64604e-06
2.73707e-05
2.0934e-06
-1.54606e-05
-2.01205e-06
-6.4887e-06
2.36682e-07
1.6506e-06
5.66228e-06
7.1403e-06
-5.25303e-06
9.7314e-07
4.0786e-06
6.10534e-07
2.84107e-06
5.27238e-06
3.02581e-06
-1.44078e-05
2.22081e-06
1.57449e-05
-1.97968e-06
-2.0064e-05
6.29881e-06
-1.8668e-05
-2.18363e-05
5.62492e-05
-1.83568e-05
-2.29085e-06
-4.41103e-06
-2.18678e-05
6.21483e-06
-2.01918e-05
-6.05558e-06
1.4222e-05
-5.44466e-05
-8.26067e-06
-1.1345e-05
4.30078e-05
-4.51072e-05
1.34444e-05
3.85781e-05
-3.80033e-05
-1.19197e-05
-3.27634e-05
0.000114349
1.76031e-05
6.94375e-05
-0.000125044
3.84329e-05
-3.27495e-05
8.15934e-06
3.24897e-05
4.48797e-05
6.45166e-06
-4.54675e-05
-5.86389e-06
-4.31909e-05
-3.46414e-05
0.000122712
7.28765e-06
-4.40268e-05
4.13719e-06
-2.72729e-05
-2.23318e-05
-3.73391e-05
6.83488e-06
-5.69918e-05
2.69404e-05
-0.000128291
-0.000103551
-1.82954e-05
7.94036e-05
4.3428e-05
-0.000105168
4.59175e-05
-2.0785e-05
-9.17958e-05
-7.61932e-05
3.65613e-05
4.18489e-05
-2.89976e-05
-4.94127e-05
5.87109e-07
-0.000103306
0.00013928
-0.000114252
0.000156688
-5.24042e-06
2.93954e-05
-5.31526e-05
4.65545e-05
-0.000101208
-2.80863e-05
-2.86651e-05
-0.000112943
-7.88687e-05
-8.51885e-05
-6.67027e-05
0.00023076
2.3754e-05
-1.36574e-05
-8.89654e-05
-0.000159453
9.8019e-05
-0.000117025
0.000139014
-3.56466e-05
6.65548e-05
-0.000272545
0.000164046
-0.000256944
0.000236357
-5.39334e-05
-4.69337e-06
4.55494e-05
1.30774e-05
4.52714e-05
4.95159e-05
-0.000148721
4.2675e-05
-2.09701e-06
5.50533e-06
4.59217e-05
-1.9112e-06
4.24559e-05
8.59882e-06
-4.57808e-05
0.000130912
-1.9561e-06
-1.8545e-05
-1.57662e-06
-2.69873e-07
2.03915e-05
3.57998e-05
3.73392e-05
-9.1684e-05
3.76774e-05
-3.45424e-06
1.11846e-05
-1.09436e-05
-5.10908e-07
-6.79936e-06
3.83754e-05
6.75857e-06
1.96371e-05
3.76367e-05
-1.67485e-06
3.46978e-05
-3.39242e-05
9.01195e-07
3.66141e-05
-3.16661e-05
-6.6228e-06
-2.76727e-05
9.89846e-05
3.16943e-05
2.7586e-05
-9.32044e-05
2.91412e-05
2.43742e-06
-6.51758e-06
3.90597e-06
-1.61627e-05
-4.55393e-05
-4.22935e-05
0.000103995
-2.02489e-07
9.0814e-07
-1.68684e-05
-4.37671e-05
-1.97469e-06
-2.28667e-05
2.41934e-05
-4.18525e-07
1.01173e-05
-4.98524e-05
3.38218e-05
-6.74715e-05
4.12519e-05
1.67633e-05
-3.01634e-06
3.44494e-05
1.47424e-05
-9.90442e-05
3.62866e-05
-2.25564e-06
-5.52377e-05
0.000108288
-4.62555e-05
-1.12378e-05
4.88613e-05
-1.36705e-06
-1.37909e-06
-4.61151e-05
-2.6447e-05
-4.12245e-05
-2.28997e-06
-2.55241e-05
-5.64156e-05
6.27255e-05
-8.59987e-06
2.85485e-05
-0.000110488
-3.71927e-05
-5.41086e-06
8.64289e-05
0.000111962
9.11584e-07
5.10523e-05
2.61939e-05
-4.43445e-06
-4.74486e-05
3.86018e-05
1.32812e-05
-4.01572e-05
3.90188e-05
-3.29608e-06
3.89596e-05
-0.000126565
-4.51151e-05
-3.28915e-05
0.000117025
-3.76809e-05
-1.07303e-05
6.98843e-06
-5.70966e-06
1.26987e-05
-5.3832e-05
-3.86697e-05
-2.23728e-05
9.54667e-06
-3.17101e-05
-3.16686e-05
8.45435e-06
-3.75774e-05
-5.0049e-05
3.38093e-05
2.4694e-05
2.48763e-05
-0.000112503
1.99605e-05
-2.67943e-05
3.1397e-05
9.21879e-06
2.97425e-05
-7.96754e-06
-3.09937e-05
1.54024e-05
-3.44301e-05
2.82465e-05
-4.24628e-05
8.76077e-05
-2.13841e-05
3.34704e-05
-2.00538e-05
4.13665e-05
-9.37444e-05
-1.5184e-05
2.21204e-05
-2.41765e-05
9.01263e-06
-1.51842e-05
-4.76e-05
-8.02365e-05
-2.53412e-06
-2.77129e-05
2.03529e-05
9.89412e-06
-2.21123e-05
2.12662e-05
-1.68804e-06
2.29606e-05
-7.27858e-05
-2.76672e-05
-1.338e-05
6.23134e-05
-1.98352e-05
-9.52005e-06
8.29228e-06
-5.16691e-06
1.52652e-05
5.03527e-06
1.42332e-05
-1.64681e-05
-2.80036e-06
1.7076e-05
-3.28323e-05
-2.41543e-05
-3.15533e-05
4.09396e-06
-5.33944e-05
-2.29078e-05
-4.04687e-06
-5.03671e-05
3.46648e-05
2.79422e-05
-9.25367e-06
-5.33534e-05
-2.39822e-05
-2.49828e-05
-1.61708e-05
-8.68525e-08
-5.07868e-07
-2.58664e-05
1.39151e-06
-1.67655e-05
-5.18856e-05
-1.71508e-06
1.92283e-05
-6.74124e-06
-1.07719e-05
2.86676e-05
-1.01606e-05
-2.02221e-05
-3.30409e-05
-2.21057e-05
-6.37095e-06
6.32041e-07
-1.00234e-06
3.12026e-06
-1.96518e-05
2.32883e-05
-5.32089e-05
1.81456e-06
-9.52213e-06
-1.16094e-05
-2.19558e-06
2.33272e-05
7.36017e-08
-8.24337e-06
-1.35236e-06
-1.13119e-05
-2.23946e-07
-1.25306e-05
-1.95311e-05
2.98661e-05
-1.30942e-05
-7.67982e-06
2.06287e-05
-4.50348e-05
8.73638e-07
-1.68138e-05
1.77306e-06
2.39152e-05
-8.87445e-06
9.90473e-06
1.95421e-05
-4.62607e-05
1.52725e-06
1.01506e-05
2.18625e-05
-2.56193e-05
5.284e-06
-1.35701e-05
4.55832e-05
5.84806e-06
2.40691e-05
-6.00197e-06
1.65595e-05
8.83077e-06
3.48566e-05
-4.39164e-05
4.53557e-05
-6.81278e-06
-2.05165e-05
4.09666e-06
2.32327e-05
-8.06388e-06
8.77736e-06
-7.52624e-06
-6.13281e-06
-2.24476e-05
-2.12982e-05
1.12701e-07
2.99629e-05
-5.78571e-06
1.78445e-05
-2.9763e-05
2.20539e-05
-3.29662e-06
-9.12011e-06
2.31779e-07
-1.92552e-06
3.05326e-06
-4.42436e-06
-2.26636e-06
-8.77927e-06
-1.23451e-05
9.78512e-06
4.73527e-06
-2.15048e-05
-1.30107e-05
-4.95726e-06
1.67208e-05
-1.81715e-05
6.40799e-06
2.92908e-05
-1.38985e-05
4.71062e-05
3.723e-05
-5.73747e-05
1.91775e-05
3.06732e-05
1.50111e-05
-2.65067e-05
-5.47909e-06
1.09553e-06
3.50568e-05
1.31821e-05
-3.65014e-06
-1.93482e-06
-3.00705e-07
1.54177e-05
4.38119e-06
-9.96616e-06
-4.21842e-05
4.2979e-05
2.44848e-05
7.76011e-06
-2.55992e-05
-6.64563e-06
-1.3599e-05
-1.07785e-05
-1.94058e-05
1.35669e-05
1.75894e-05
6.05055e-06
-4.92392e-05
2.54568e-05
-1.4513e-05
4.24699e-06
5.9802e-06
-4.17662e-06
8.04426e-06
2.16595e-05
-4.93422e-06
2.19999e-06
-1.83598e-05
-8.79551e-06
-1.42348e-06
3.38116e-06
6.83783e-06
5.49515e-06