/*--------------------------------*- C++ -*----------------------------------*\
| =========                 |                                                 |
| \\      /  F ield         | OpenFOAM: The Open Source CFD Toolbox           |
|  \\    /   O peration     | Version:  v2012                                 |
|   \\  /    A nd           | Website:  www.openfoam.com                      |
|    \\/     M anipulation  |                                                 |
\*---------------------------------------------------------------------------*/
FoamFile
{
    version     2.0;
    format      ascii;
    class       surfaceScalarField;
    location    "0.2";
    object      alphaPhi0.water;
}
// * * * * * * * * * * * * * * * * * * * * * * * * * * * * * * * * * * * * * //

dimensions      [0 3 -1 0 0 0 0];
oriented        oriented;


internalField   nonuniform List<scalar> 
49400
(
-5.66144e-06
7.73659e-09
5.61481e-06
3.88992e-08
1.30556e-05
3.59715e-06
-2.23142e-05
1.28621e-05
2.01228e-07
-3.4207e-06
1.73223e-05
-8.28684e-06
2.02276e-05
-2.00511e-05
-2.0769e-05
5.09534e-05
-3.40217e-07
8.09282e-06
1.95886e-05
-4.99956e-05
-1.55115e-07
-6.17567e-07
-1.2289e-05
2.37593e-07
1.21424e-05
-9.09405e-08
2.62928e-05
1.15521e-05
-5.01339e-05
2.59128e-05
-1.3124e-05
1.50547e-06
2.37609e-05
-1.32616e-05
4.66192e-08
2.94618e-05
-3.11712e-05
5.688e-05
-2.68303e-05
4.33222e-07
2.63924e-05
4.71099e-09
9.18642e-06
1.56097e-05
-5.16264e-05
4.87703e-07
9.13194e-06
4.11544e-05
2.27296e-05
-4.82744e-05
1.73121e-05
5.02346e-05
7.66977e-06
-7.39412e-06
2.1205e-07
-3.70098e-06
2.05027e-05
6.232e-06
9.10352e-06
1.98431e-05
8.83731e-06
4.78262e-07
-1.99994e-05
4.93394e-05
3.22051e-07
6.88701e-33
-1.93547e-35
2.06881e-32
3.36504e-32
-3.10705e-35
5.25418e-33
0
0
0
4.32314e-17
-3.99972e-17
1.1193e-17
-4.26645e-17
9.41571e-17
3.84135e-16
-3.12513e-16
3.7938e-16
4.50853e-11
2.84253e-11
2.48664e-12
-7.75264e-11
-7.54569e-12
2.02017e-11
3.10348e-11
3.17478e-11
-1.33047e-11
-5.28062e-11
-4.30192e-12
8.73551e-11
-1.02242e-11
-6.03597e-11
-3.86415e-11
5.35796e-11
-4.44919e-11
1.81583e-10
6.43515e-11
-1.17216e-10
-3.64561e-11
-1.23183e-10
-1.59994e-10
5.81404e-10
-3.73385e-10
3.71127e-10
1.50452e-11
2.08602e-10
-2.50017e-10
5.90865e-11
-5.16348e-11
-1.14078e-10
2.51895e-11
-2.55809e-10
-4.05971e-09
-6.32224e-10
-6.99111e-09
1.21012e-08
1.88612e-09
-3.24886e-09
-2.80959e-09
-5.26944e-09
5.99245e-09
5.2565e-09
6.79962e-09
-9.82016e-09
8.27576e-09
-2.40413e-09
3.38616e-09
-6.97286e-10
3.73958e-09
-2.57839e-08
-2.26832e-08
-6.39465e-09
5.17271e-08
-3.79383e-09
-5.37261e-08
2.83813e-08
-3.19e-08
3.49949e-09
6.33267e-08
3.8709e-08
-1.63844e-07
7.076e-08
1.19424e-08
9.02735e-09
-4.00088e-09
6.93412e-08
-1.52718e-16
-5.14918e-17
1.57417e-16
1.82425e-16
-1.72862e-17
3.6774e-16
-3.97452e-16
9.08748e-17
-1.15509e-16
2.48693e-17
-1.4149e-16
3.66274e-16
-4.1003e-16
7.30703e-16
-2.43977e-17
8.7556e-17
-3.54377e-17
-1.00635e-12
-7.18036e-13
-3.45802e-13
2.36787e-12
-1.31297e-15
-7.17268e-14
-1.90608e-13
-3.75943e-13
1.25467e-13
-2.74679e-13
1.11079e-12
-5.19067e-13
1.79034e-13
-4.7072e-13
2.37569e-13
-3.71868e-13
1.30887e-12
-2.23767e-06
-1.08334e-05
-5.5987e-06
1.90646e-05
8.25724e-08
-2.29449e-06
-2.98157e-08
-1.33654e-05
2.59006e-06
2.73509e-06
2.64887e-06
-7.64774e-06
2.70118e-06
-4.80242e-14
-1.042e-05
7.64332e-06
-2.11471e-05
1.55917e-12
-4.18061e-15
-1.53414e-12
1.43571e-14
-5.27279e-13
-4.57023e-13
2.56476e-12
-7.00114e-13
2.23364e-13
1.66347e-12
5.86898e-13
-3.63848e-12
1.85676e-12
-2.43732e-12
-5.31325e-13
1.84095e-12
-6.00095e-13
-1.02637e-20
-1.91081e-21
4.04617e-21
7.69401e-21
5.37555e-21
4.88733e-22
-1.64614e-20
-2.21104e-22
3.58991e-21
8.10009e-22
-5.27326e-22
-2.05737e-22
-4.07121e-22
5.06658e-21
8.81761e-22
-4.75635e-22
4.8124e-21
7.77947e-21
4.34735e-21
-4.66352e-20
-1.22262e-20
-5.41949e-21
-1.84514e-20
1.46347e-20
-4.8288e-20
1.42912e-20
2.80714e-20
5.54144e-20
-2.62955e-19
3.61362e-20
-9.97718e-20
-2.00167e-20
1.11432e-20
-6.56376e-20
7.22093e-13
1.72274e-12
2.05657e-12
-6.45836e-12
3.37474e-13
1.30501e-12
-1.76422e-12
6.8289e-13
4.09201e-13
-2.74231e-13
-7.45965e-13
1.0246e-12
-1.32345e-12
7.38381e-13
-1.19964e-13
-1.5662e-13
-5.12896e-13
6.87763e-35
-1.06e-35
-4.76103e-34
1.04651e-35
-4.01228e-34
-1.00771e-34
2.16415e-34
-2.17164e-35
-4.0841e-33
-6.91362e-33
1.15043e-33
4.65117e-35
5.03522e-33
-5.031e-32
3.96213e-34
7.3395e-34
5.42386e-34
8.15838e-36
4.42048e-35
8.36628e-35
1.11968e-35
1.05979e-34
3.5005e-36
-2.43904e-37
-1.9261e-35
1.3739e-37
-1.0136e-35
-4.14664e-36
5.87028e-36
-4.17885e-37
-9.90353e-35
-1.2547e-34
2.31515e-35
9.31209e-38
1.08431e-34
-9.82237e-34
-7.57775e-36
4.63237e-36
-6.39503e-37
1.96747e-35
2.35823e-34
-3.22862e-36
-1.15714e-33
6.08946e-35
-2.7836e-34
-1.63226e-36
-9.32358e-36
1.4654e-38
-5.59789e-35
1.34759e-28
1.59391e-28
1.09393e-28
-9.54598e-28
-1.72903e-30
1.65078e-29
9.71618e-31
3.48936e-29
-2.31437e-32
-7.49428e-30
-9.57559e-30
1.37224e-29
-3.68047e-29
1.06224e-30
2.69692e-29
-3.87253e-29
1.66862e-29
2.14915e-22
-1.59199e-23
-2.75892e-22
1.08453e-22
-5.12917e-23
-3.51593e-23
3.3079e-22
-4.40655e-23
-5.32006e-24
5.37571e-22
7.6615e-23
-9.31734e-22
2.15486e-22
4.14553e-22
-6.27548e-23
2.6187e-22
-8.65284e-24
2.73399e-10
-8.85592e-11
-2.93475e-10
1.30094e-10
-4.30438e-10
-1.4487e-10
1.15265e-09
-3.11381e-11
-2.1502e-10
-4.30864e-11
7.93819e-11
-4.66125e-11
2.35858e-10
-3.12331e-10
-7.94207e-11
2.6978e-11
-1.61846e-10
-6.20663e-09
9.55876e-09
2.14969e-08
-2.46288e-08
1.60293e-08
2.44909e-08
-4.65198e-08
1.5147e-08
1.07841e-08
-7.25957e-09
-1.8377e-08
4.09886e-08
-1.67972e-08
2.05398e-08
3.97561e-09
1.9277e-09
7.25772e-09
2.79166e-08
-8.69528e-09
-3.84318e-08
1.79772e-08
-2.55875e-08
-2.79e-09
6.37699e-08
-1.12954e-08
-1.95117e-08
4.38882e-08
9.71638e-11
-9.38822e-08
1.44225e-08
5.58887e-08
-2.70616e-08
4.33626e-08
-4.3539e-08
-3.27586e-07
-2.71206e-07
3.23423e-07
2.86319e-07
1.1784e-07
4.80483e-07
-9.19377e-07
5.97503e-07
-7.43425e-07
-6.05394e-08
-4.73971e-07
8.60674e-07
-4.45411e-07
5.6396e-07
7.75236e-08
-9.89245e-08
6.73571e-08
-2.50566e-10
2.5308e-11
1.88696e-10
-1.01814e-10
2.22991e-10
3.1803e-10
-9.2148e-10
2.54726e-11
1.99739e-10
1.70503e-10
-2.59351e-10
1.0039e-10
-1.61251e-10
5.16879e-10
5.99761e-11
-8.4902e-11
7.63803e-11
-1.81903e-09
-1.00329e-08
-9.05102e-09
1.16123e-08
-9.00995e-09
-2.75963e-08
2.60492e-08
-3.21752e-08
-2.67031e-09
1.83398e-08
5.37752e-08
-1.25576e-07
1.15001e-08
-4.95035e-09
8.03214e-09
6.90447e-10
4.74609e-09
-6.14731e-10
2.43834e-10
1.16985e-09
-7.59489e-10
1.10177e-09
1.91934e-09
-3.50996e-09
3.07777e-10
1.18661e-09
1.02534e-09
-1.38432e-09
7.33954e-10
-8.84846e-10
3.23308e-09
-9.51881e-11
5.92507e-10
1.63013e-10
7.70543e-10
6.33352e-10
7.66186e-10
-1.98922e-09
-1.49608e-10
8.88428e-10
1.71695e-10
6.81358e-10
-1.04124e-10
-1.16902e-09
-7.67417e-10
3.01336e-09
-1.39357e-09
6.66499e-10
4.53558e-10
-1.01432e-09
4.15384e-10
-1.08315e-05
-1.48232e-05
-9.00176e-06
3.42074e-05
-1.11862e-07
-7.30668e-08
-9.84164e-06
-1.44082e-05
-6.01062e-07
-1.15648e-05
1.22315e-05
-9.06398e-08
8.87949e-06
-2.92697e-05
1.05151e-05
-1.61159e-05
1.37348e-05
-1.2972e-10
7.84795e-11
4.66528e-11
-3.71013e-11
2.81686e-10
1.97361e-10
-8.61161e-10
1.09503e-10
1.74671e-10
-8.71736e-11
-3.51003e-11
1.47007e-10
-1.41371e-10
-4.55223e-11
1.17507e-10
-1.97081e-10
1.40569e-10
-2.16356e-10
3.78824e-10
-3.99084e-10
3.32132e-10
5.93067e-10
-2.0914e-10
-4.27298e-10
-9.60502e-10
2.36633e-09
-7.85842e-10
9.55463e-10
-5.85175e-10
5.12114e-10
-1.75859e-09
-6.11065e-11
1.17329e-10
-3.09938e-11
5.86144e-10
-3.2301e-09
-6.96042e-09
4.83177e-09
-4.69676e-09
-8.54416e-09
9.23782e-09
-8.94083e-09
-2.68134e-09
4.03192e-09
1.39663e-08
-3.54346e-08
5.35015e-09
-6.01332e-09
3.76985e-09
-3.91955e-09
6.0959e-10
-1.99829e-07
8.31762e-08
1.32375e-07
-7.91965e-08
3.89541e-07
-4.85882e-09
-5.63213e-07
1.00953e-07
4.01206e-07
-2.39723e-07
-4.51128e-09
3.77864e-07
-9.64315e-08
-2.54103e-07
1.85016e-07
-3.03091e-07
2.9504e-07
-3.29839e-10
-5.50901e-10
9.88797e-10
6.31901e-10
1.51109e-10
4.56314e-10
-4.7776e-10
1.39654e-09
-1.02855e-09
-1.3881e-10
-1.59908e-09
3.03757e-09
-9.44848e-10
1.82441e-09
3.13382e-10
-4.92851e-10
4.50027e-10
-1.63563e-09
-1.37563e-09
-1.57803e-09
4.58919e-09
5.7728e-10
-5.54843e-10
-1.6582e-09
-8.75538e-10
7.71237e-11
-1.24028e-09
-8.92718e-10
-8.39804e-10
-2.71328e-09
-2.60816e-09
-1.5131e-07
-6.96197e-07
4.32416e-07
4.20556e-07
-1.01144e-07
4.21457e-07
-4.70067e-07
6.63315e-07
-1.46028e-06
1.73401e-07
6.85897e-07
1.20216e-06
-6.04136e-07
2.5533e-06
-2.44593e-07
-2.40174e-08
1.10125e-07
1.23768e-07
1.36993e-07
-1.00793e-08
-3.9203e-07
8.21922e-08
1.45545e-08
-1.30103e-08
3.57261e-08
5.22668e-08
-9.25458e-09
7.56344e-09
1.78017e-08
-2.43063e-08
1.56269e-07
-3.6864e-09
-6.48354e-09
-1.2414e-09
1.17274e-08
-1.55899e-09
-3.0746e-09
8.10261e-10
-5.85413e-09
-3.04775e-09
4.62894e-09
1.74719e-09
-1.56795e-08
6.74577e-09
4.80186e-09
-8.44641e-09
9.22915e-09
2.71191e-10
4.42513e-10
2.09263e-10
-1.26269e-09
-8.59934e-11
-3.62283e-11
4.6435e-10
3.53212e-10
-2.96601e-11
5.28472e-10
-2.9365e-10
-4.14245e-10
-1.76097e-10
1.12998e-09
-3.79099e-10
5.32744e-10
-4.87912e-10
6.80284e-09
-6.67475e-10
-4.11131e-09
2.48011e-09
-1.02967e-08
-2.99131e-09
2.66131e-08
-5.51757e-09
-1.90787e-09
6.82056e-09
1.77303e-09
-7.99346e-09
6.68456e-09
5.32423e-09
-4.8989e-09
1.39827e-08
-4.99746e-09
4.06436e-08
1.27725e-10
-7.45283e-08
-4.65804e-10
-5.95058e-08
-2.39742e-08
7.52491e-08
-1.21672e-07
2.11282e-08
1.48758e-07
4.80245e-08
-3.67225e-07
3.90297e-08
1.02968e-07
-7.51735e-08
6.59485e-08
-1.24308e-07
-1.3383e-07
1.98379e-06
6.32647e-07
-4.39761e-06
1.73561e-06
-1.83307e-06
-8.50715e-07
-4.88598e-07
2.39629e-06
-5.31423e-06
1.35096e-06
1.19119e-06
1.3391e-06
-2.25373e-05
1.95397e-06
-5.44187e-06
1.58136e-06
4.74063e-08
5.73455e-08
2.26057e-08
-1.30831e-07
7.55195e-09
-8.45698e-09
4.83516e-08
5.19584e-08
1.34914e-08
6.14262e-08
-3.25351e-08
-2.85744e-08
-3.01666e-08
1.38161e-07
-2.94968e-08
5.13041e-08
-3.82584e-08
-1.41291e-09
-1.2703e-08
6.56454e-11
1.08318e-08
-1.5545e-08
1.11811e-08
-1.06491e-09
2.05244e-08
-4.95186e-08
8.08546e-08
-8.62083e-08
-1.35033e-08
-1.80567e-08
1.02366e-07
-6.34974e-08
5.22825e-08
-1.33266e-07
-7.26889e-11
-1.97468e-10
-1.3067e-10
3.20189e-10
-9.47494e-12
-2.47807e-10
-1.77961e-11
-5.42848e-10
8.92756e-12
7.66828e-10
3.03895e-10
-2.61265e-09
2.65214e-10
9.64993e-11
1.89704e-10
-3.2762e-10
1.9238e-10
-3.40476e-14
-8.81701e-15
6.28861e-14
2.61542e-14
4.4687e-14
1.33068e-14
-8.39139e-14
-7.89154e-15
1.25445e-13
2.80828e-13
-3.8022e-14
-4.65887e-14
-7.47143e-14
5.84277e-13
1.62863e-14
-3.0404e-14
4.27589e-14
-9.95161e-23
-2.04458e-23
-8.65809e-24
5.36588e-23
2.20213e-23
-8.53602e-23
-2.90189e-22
-1.48255e-22
8.29921e-24
2.55233e-22
3.4705e-23
-1.0097e-21
3.84566e-23
4.9403e-23
1.19395e-22
-4.35494e-22
5.84783e-23
6.9894e-20
-5.37025e-21
1.24247e-20
-3.76624e-19
-4.91644e-20
-4.03919e-20
8.27726e-20
-1.39611e-19
-5.90452e-21
-5.22281e-19
1.36719e-19
7.2547e-20
1.91808e-19
-1.97807e-18
-1.29271e-19
9.55014e-20
-3.09225e-19
5.18351e-23
6.15005e-22
-2.04664e-21
-7.35436e-24
1.53137e-21
1.72028e-22
-9.36132e-21
-7.03072e-22
1.35246e-21
-1.35202e-20
3.41918e-21
1.10186e-21
7.95746e-21
-6.2627e-20
-1.492e-21
1.53395e-21
-8.80789e-23
2.63792e-27
2.06461e-27
1.92687e-27
-1.60709e-26
1.7548e-29
5.93786e-28
-1.31112e-29
2.57609e-28
1.23338e-29
-1.56232e-28
-1.51421e-28
2.29018e-28
-7.4055e-28
1.88682e-29
-5.42966e-28
3.07237e-28
-1.40049e-27
4.94307e-31
8.98578e-33
-2.34235e-30
-5.51439e-32
-1.32777e-30
-4.4576e-31
8.33081e-31
4.65981e-32
-1.17456e-29
-1.80067e-29
3.52924e-30
4.30266e-31
1.14665e-29
-1.10447e-28
-2.19785e-30
1.58e-30
-3.32096e-30
-4.63809e-34
9.32893e-32
-4.79412e-31
8.75554e-33
1.16757e-32
-1.10141e-31
-7.31179e-34
-4.18252e-32
5.17939e-32
1.04402e-31
8.01979e-32
2.06113e-32
-2.30751e-33
-1.94318e-31
1.78064e-32
-1.97481e-30
3.65424e-30
-3.46722e-28
7.57326e-29
-8.5124e-31
-2.94037e-28
2.33186e-30
3.54191e-29
3.10061e-28
-2.4348e-27
1.4139e-29
-7.07107e-29
2.27862e-30
-1.70872e-29
2.56162e-29
-3.52298e-29
2.30316e-29
-1.21079e-29
-8.49815e-30
-8.93684e-32
4.85417e-32
1.0059e-30
1.00867e-29
6.85928e-30
-6.1745e-29
2.14435e-30
-9.27327e-33
4.57258e-31
-2.29564e-30
5.56318e-32
-5.74308e-31
8.15986e-31
1.69375e-30
-2.60053e-30
1.02273e-30
-5.21213e-30
2.77436e-31
2.33014e-30
-2.00919e-31
7.87111e-30
3.1506e-30
-2.68869e-29
3.6252e-30
1.3148e-30
-2.05876e-30
-1.17658e-30
4.7032e-30
-2.67503e-30
-1.73875e-30
2.87852e-30
-4.89517e-30
4.22174e-30
-3.8257e-20
1.70791e-20
3.17037e-20
-1.72454e-21
7.35935e-20
3.36302e-21
-1.10931e-19
3.24503e-20
6.24944e-20
-6.27424e-21
-3.05027e-21
4.58827e-20
-3.77683e-21
-1.32457e-21
6.39963e-21
-2.84814e-21
4.10282e-20
-1.67459e-17
-6.70795e-17
4.71497e-17
6.64923e-17
-3.12995e-17
4.95717e-17
-1.27333e-17
1.25004e-16
-1.99396e-16
3.07539e-17
-1.3366e-16
1.69993e-16
-5.64652e-17
1.71986e-16
-3.07059e-17
3.72599e-17
-2.03128e-17
1.1436e-05
1.00322e-07
-1.135e-05
-2.23783e-07
-8.76471e-06
-8.32144e-06
3.04581e-05
-8.1114e-06
1.20769e-07
1.2959e-05
9.16377e-06
-3.34864e-05
1.34327e-05
-7.2334e-07
-5.94825e-06
1.09975e-05
-5.59606e-06
-7.16401e-11
-8.63558e-11
-2.59215e-11
1.58295e-10
3.74887e-11
-4.6999e-11
-9.08346e-11
2.70155e-11
-1.21048e-10
-1.33011e-10
6.88838e-11
6.29351e-11
6.43312e-11
-3.83802e-10
5.21512e-11
-7.966e-11
7.42657e-11
-6.35393e-10
-2.01034e-10
-1.0865e-09
1.671e-09
5.41903e-10
-6.21378e-10
-1.06365e-09
-1.47642e-09
1.51712e-09
2.89054e-11
8.39537e-10
-1.80186e-09
1.35203e-09
-2.72594e-09
2.65502e-10
-5.75704e-10
4.51012e-10
-4.22121e-10
2.6514e-10
1.05111e-09
-1.13974e-09
3.66263e-10
3.30984e-10
-1.28224e-09
1.28869e-10
3.74218e-10
2.28123e-10
-4.92225e-10
3.07086e-10
-5.0211e-10
1.01396e-09
3.35819e-10
-5.92818e-10
6.60829e-10
1.15951e-10
3.0373e-10
6.96763e-10
-4.27625e-10
6.53453e-10
-5.4597e-10
5.64731e-10
1.77667e-09
-7.37062e-10
5.04893e-10
-5.63467e-10
-5.01016e-10
-4.49493e-10
1.26307e-09
2.62963e-10
-1.14291e-09
2.95687e-10
-1.10412e-09
1.42743e-09
-1.27397e-09
1.90315e-09
-1.77068e-09
4.25066e-10
-6.72994e-10
-1.51667e-09
5.48145e-09
-8.3119e-12
6.51049e-10
2.24577e-10
-6.15129e-10
-2.73696e-10
-2.86061e-10
-5.07402e-10
1.43699e-09
-3.26447e-10
2.58615e-10
7.79479e-10
5.28998e-10
-2.18252e-09
1.75582e-09
-1.59972e-09
-2.11867e-10
1.22744e-09
-8.97911e-11
6.25798e-11
-1.87467e-10
-1.6639e-10
3.87793e-10
7.64026e-11
2.0144e-11
1.25721e-10
-5.92719e-10
3.92959e-10
-1.45506e-09
-3.50156e-09
-1.42725e-09
5.36319e-09
3.86748e-09
-7.13094e-09
1.77045e-09
-3.48077e-09
2.72032e-09
2.01692e-11
1.90921e-10
-3.25485e-09
2.67625e-09
6.18783e-10
9.44614e-10
-8.38526e-09
1.97968e-09
9.62871e-08
1.84072e-06
1.73354e-06
-1.29623e-06
6.60764e-07
-6.00885e-08
-4.54335e-07
-1.31955e-07
2.85216e-06
-9.34453e-06
2.00684e-06
1.01384e-05
-9.03168e-08
-5.45415e-06
3.32853e-07
-4.75887e-07
2.54792e-06
2.84538e-09
-5.81786e-11
-3.17488e-09
3.94282e-10
-2.90247e-09
-1.72109e-09
5.76851e-09
-2.53718e-09
2.92288e-10
4.59371e-09
2.81475e-09
-1.05793e-08
3.95493e-09
1.03631e-09
-2.79827e-09
4.00161e-09
-3.11992e-09
5.17686e-10
-2.62514e-11
-5.03452e-10
-8.53427e-12
-4.38643e-10
-4.94195e-10
1.15681e-09
-9.48163e-10
-3.28044e-11
5.67203e-10
1.34176e-09
-2.44847e-09
5.48455e-10
-1.11384e-11
-4.88863e-10
4.08919e-10
-7.09981e-10
3.19318e-12
-3.6821e-12
-1.87241e-12
9.56911e-12
-1.05486e-11
2.85469e-12
1.58625e-11
-4.8834e-13
-1.10919e-11
9.74219e-12
-2.16321e-13
-8.25303e-12
2.12165e-12
2.17824e-11
-1.83756e-12
1.12112e-11
-1.97165e-12
-1.86062e-16
-5.14858e-16
-9.59098e-16
1.77854e-15
-2.02812e-16
-2.94781e-16
3.21392e-16
-2.13618e-16
-3.87639e-16
1.7225e-16
2.99379e-16
-7.2939e-16
1.7038e-15
-1.71286e-15
1.2048e-16
-1.4916e-16
9.58807e-16
9.13707e-22
-2.56772e-22
-4.82775e-21
6.97452e-22
-7.78506e-22
3.38175e-24
9.26154e-22
-6.43955e-22
-1.94354e-21
9.48344e-21
-8.15129e-23
-2.36315e-20
1.21164e-21
4.38393e-21
-1.32138e-21
1.45366e-21
-4.04726e-21
-1.97932e-17
-4.74e-17
-1.78417e-17
5.30868e-17
2.72209e-18
-4.36295e-17
-3.5318e-18
-1.95771e-16
1.08668e-17
3.05906e-16
9.03395e-17
-9.0794e-16
9.45601e-17
6.09211e-17
4.95749e-17
-5.26021e-17
7.36123e-17
-9.93604e-22
-1.20797e-21
-9.40527e-22
1.49425e-21
-1.12023e-22
-3.57209e-21
1.2472e-22
-9.39943e-21
-2.00305e-22
1.97478e-20
1.85202e-20
-9.98788e-20
5.24874e-21
2.41902e-22
-1.86109e-21
2.98165e-21
4.16368e-21
-2.10128e-27
3.33876e-26
-1.44052e-25
3.64444e-27
3.63786e-26
-2.62841e-25
-3.32932e-27
-2.40714e-26
4.43459e-26
3.784e-25
1.94254e-25
-1.76009e-24
9.19435e-26
-4.69594e-28
1.6901e-25
-4.25487e-25
1.10093e-25
-4.43172e-23
-6.64826e-23
-4.41639e-23
1.50653e-22
3.817e-26
-4.68972e-23
-6.75193e-25
-7.71145e-23
-8.48951e-25
9.64367e-23
6.74081e-23
-2.56988e-22
8.77251e-23
-7.84897e-24
2.96083e-23
-1.42482e-23
6.85272e-23
-1.21185e-20
-1.72343e-20
-2.0053e-20
4.3825e-20
-3.96395e-22
-1.43647e-20
-3.42577e-23
-2.23489e-20
-1.66208e-21
2.09455e-20
1.49031e-20
-6.22014e-20
3.14133e-20
-3.10558e-20
6.22797e-21
-7.47084e-21
9.61679e-21
-8.30311e-12
-3.50449e-12
1.14056e-11
1.21436e-11
-9.24486e-12
1.80115e-11
-1.12293e-11
4.31423e-12
-1.24433e-11
7.70202e-13
-5.78186e-12
2.18756e-11
-7.16268e-12
2.58053e-11
-5.79527e-12
1.89461e-11
-5.37903e-12
7.95697e-10
-1.17293e-09
4.89253e-09
-3.26649e-09
-1.64795e-09
1.88115e-09
1.40778e-09
1.74949e-09
-4.03318e-09
-8.40697e-10
-3.3241e-09
6.39175e-09
-1.9268e-09
3.22944e-09
-7.15325e-10
2.73258e-09
-6.82864e-10
-1.08653e-09
-6.17616e-10
9.36327e-10
6.31492e-10
1.00819e-09
3.07115e-10
-2.40911e-09
-1.19078e-09
1.60983e-09
4.93613e-09
-2.36834e-09
-5.5006e-09
-8.48622e-10
6.14549e-09
1.17374e-09
-2.89523e-09
1.23128e-09
-2.5466e-09
-3.40932e-09
-3.95512e-09
6.39213e-09
-1.07536e-09
-5.05329e-09
3.68693e-09
-1.1858e-09
-4.76122e-09
-2.75177e-09
3.38355e-09
-2.9244e-09
5.0055e-09
-1.20103e-08
1.86394e-09
-1.79441e-09
4.66915e-10
-1.6126e-10
1.24931e-10
-6.74065e-10
6.79633e-10
2.35728e-10
-3.01302e-10
-1.86393e-10
-3.04468e-10
6.27399e-10
1.00673e-10
5.37309e-10
-1.06989e-09
2.58082e-10
-3.90156e-10
-1.56937e-10
9.56539e-11
-3.35476e-10
-2.42303e-11
-1.78256e-10
-1.89998e-10
3.69265e-10
-1.5098e-10
-4.05632e-10
5.10572e-10
-1.24607e-10
-2.46748e-10
-3.748e-11
2.62136e-10
-4.47472e-10
7.24516e-10
-1.07671e-09
-2.04919e-11
3.22852e-10
2.86049e-11
8.55289e-10
4.40454e-09
5.09141e-10
-4.57407e-09
1.96646e-09
-3.92326e-09
1.44791e-09
-1.66208e-09
7.85224e-09
8.80543e-11
1.44436e-09
-6.89431e-09
2.34932e-09
-8.51377e-09
-6.05344e-10
-2.95526e-09
-3.58781e-10
-2.70301e-07
-1.38328e-07
-1.79166e-08
3.20453e-07
2.24467e-07
-8.93975e-08
-6.67288e-07
-1.01923e-08
-9.85393e-09
1.76439e-07
-1.80979e-07
5.54366e-09
-1.32609e-07
6.92044e-07
-2.18331e-08
-2.79328e-07
-2.1277e-07
-6.41349e-07
5.3843e-07
1.43857e-06
-1.36194e-06
1.06647e-06
-1.33506e-07
-1.95483e-06
4.61857e-07
8.11377e-07
-4.57549e-06
1.67266e-07
5.32105e-06
-6.55248e-07
-9.47205e-06
1.11787e-06
-2.27383e-06
1.52022e-06
-3.79658e-08
-7.27506e-10
4.2396e-08
-6.81553e-10
3.23191e-08
6.06384e-08
-1.27723e-07
-4.55578e-09
4.09743e-08
2.13167e-07
-2.22981e-07
-1.62648e-09
-8.62402e-08
3.21272e-07
9.04525e-08
-2.3503e-07
5.07503e-08
2.46425e-07
-1.78922e-05
1.83585e-05
-7.14042e-07
-1.45455e-05
1.46095e-05
1.85397e-07
1.10361e-05
-4.3472e-05
-1.75572e-05
-1.09911e-05
4.30619e-05
-1.79236e-05
3.63099e-07
-1.48471e-05
2.22229e-05
-2.16737e-05
-1.8435e-10
-2.01668e-10
2.44494e-10
2.09932e-10
8.26567e-11
1.53127e-11
-2.64924e-10
-2.57721e-10
6.74625e-10
1.02263e-09
-2.37456e-10
-6.98802e-10
-5.5042e-11
1.94078e-09
3.16593e-10
-4.89962e-10
5.54239e-10
1.01269e-14
2.26038e-15
-3.08995e-15
-9.77312e-15
-2.86178e-15
-5.6018e-16
1.36319e-14
-2.13281e-15
1.01482e-15
3.91976e-15
4.00242e-16
-9.47983e-15
1.45434e-15
2.18171e-15
-4.05481e-15
3.98268e-15
-8.54356e-15
-3.83361e-17
-5.73595e-18
5.26288e-19
2.26064e-17
1.37683e-17
-1.39315e-17
-9.68647e-17
-2.50394e-17
4.34187e-18
5.57707e-17
-8.52346e-19
-1.4585e-16
6.36202e-18
2.27999e-17
3.00184e-17
-8.31581e-17
1.97629e-17
-2.61124e-17
-2.9526e-19
4.48796e-18
7.02004e-19
2.54673e-17
1.6677e-17
-1.12107e-16
8.73201e-18
4.43614e-19
-7.74163e-18
-7.90024e-18
1.06917e-17
-2.27925e-17
8.95238e-19
1.05426e-17
-3.65153e-17
2.1051e-18
1.00243e-18
1.62497e-17
-6.91073e-17
9.46058e-18
-2.67156e-17
1.88054e-18
1.4746e-17
8.666e-17
-4.76161e-16
-6.14278e-17
1.19699e-20
1.17903e-21
-8.87335e-20
-1.5411e-21
-1.24427e-20
-7.31018e-21
1.77548e-20
-4.26805e-20
1.85149e-21
1.95393e-19
1.77865e-19
-8.91758e-19
5.56361e-20
1.70161e-22
-4.92911e-20
6.31187e-20
1.00715e-20
1.504e-19
1.65619e-20
-7.69521e-19
-3.84636e-20
-8.99502e-19
2.91699e-19
5.02236e-20
-2.71475e-18
1.36457e-19
-1.98052e-21
-6.93532e-22
-1.7408e-21
2.11251e-21
-4.29051e-23
-7.08382e-21
1.57181e-22
1.10407e-20
-2.88027e-20
5.06812e-21
-1.18107e-18
-4.49966e-19
1.07626e-18
1.13319e-19
9.20651e-19
9.09946e-19
-3.24328e-18
2.93413e-18
-5.32387e-18
-6.5097e-19
-1.99746e-18
3.20155e-18
-8.28535e-19
1.4992e-19
2.0565e-19
-2.17598e-19
2.15766e-19
-1.48785e-12
8.17994e-13
-7.21513e-13
5.12279e-12
1.52142e-12
9.51593e-13
-2.8984e-12
1.16206e-11
-4.33566e-12
4.12566e-12
-1.70525e-12
1.27025e-13
-2.59444e-12
1.32919e-11
1.22572e-12
-1.43605e-12
1.17803e-11
-1.81311e-12
-1.20267e-12
1.30759e-12
1.64484e-12
-4.13321e-13
3.63212e-12
-6.10375e-12
2.99124e-12
-4.65439e-12
7.41486e-13
-5.68197e-12
7.05224e-12
-8.99433e-12
1.22916e-11
-2.80797e-13
-1.51096e-13
-1.38071e-12
1.54818e-12
2.72878e-12
-7.5173e-13
-2.12146e-12
8.05229e-13
-4.40181e-13
4.39824e-13
4.42536e-14
5.41515e-13
7.90247e-15
-5.9178e-13
4.71497e-13
9.2653e-13
-6.94e-13
1.09835e-12
-9.35173e-13
-2.81507e-16
-8.95192e-18
-6.82637e-16
7.0734e-16
3.01015e-16
-4.5647e-16
-7.96797e-16
-5.13749e-16
5.88695e-16
-4.47381e-17
9.87664e-16
-2.54933e-15
1.65635e-15
-4.16645e-15
1.13134e-16
-2.42553e-17
5.34417e-16
3.67738e-14
2.94857e-14
6.24778e-14
-1.88636e-13
-5.28873e-14
3.33582e-14
2.04977e-14
1.13078e-13
-2.37276e-13
-1.18106e-14
-5.93031e-14
7.01662e-14
-5.71732e-14
3.21501e-14
-2.5545e-14
3.37856e-14
-7.03829e-14
1.30846e-10
6.19131e-11
-2.41892e-10
-8.13786e-11
-1.07424e-10
-1.99262e-10
3.54279e-10
-3.59054e-10
1.52482e-10
1.64192e-10
3.7245e-10
-8.3109e-10
2.61866e-10
-3.5504e-10
-1.53737e-10
1.50451e-10
-2.71062e-10
-2.8249e-10
-1.19401e-10
5.06726e-11
3.38873e-10
7.8321e-11
-3.28544e-11
-4.02149e-10
-1.99501e-10
1.32541e-10
5.32313e-10
-7.05343e-11
-6.6667e-10
2.9467e-11
6.78826e-10
2.0705e-10
-3.20425e-10
2.78272e-10
-8.95549e-12
-1.13661e-10
3.05779e-12
8.97961e-11
-1.73763e-10
9.56731e-11
-1.718e-11
8.08406e-11
-4.60419e-10
6.08225e-11
-7.317e-11
5.26759e-13
-4.33641e-11
1.74646e-10
-5.99757e-11
8.06649e-11
-9.23665e-11
5.08711e-11
-1.08144e-10
6.16176e-14
-8.86615e-11
2.5825e-10
1.08856e-10
-3.75249e-10
7.40992e-11
-1.7889e-12
1.0853e-11
-7.86289e-11
1.92812e-10
5.38244e-10
-7.00073e-10
3.99545e-10
3.22473e-10
-8.65335e-10
2.54332e-10
1.4891e-10
-1.50409e-10
-4.4082e-10
6.45548e-10
-3.76486e-10
2.55697e-10
2.02586e-10
-4.51153e-10
1.47497e-11
9.28869e-11
-2.48058e-10
-1.58888e-09
1.76247e-09
-2.98823e-10
-7.94678e-10
1.20631e-09
-2.49637e-10
-3.58273e-10
-1.44922e-10
4.17055e-10
-5.48587e-10
9.32062e-10
-1.21966e-09
-4.96635e-10
1.87995e-10
-1.10238e-09
5.67888e-09
9.01864e-11
-1.79707e-09
-2.3356e-09
-3.2377e-09
9.62219e-11
1.05372e-08
2.97668e-11
-3.48746e-09
-5.2996e-09
3.31737e-09
1.09007e-09
1.66651e-09
-6.2105e-09
-4.45065e-09
1.15914e-08
-2.87887e-09
2.34788e-06
-1.97245e-06
6.30114e-07
-3.86247e-06
-4.55351e-06
1.7551e-07
3.09859e-06
-1.74085e-06
-7.14168e-06
-3.9719e-06
1.09111e-06
1.53529e-06
-6.52982e-07
-7.24761e-06
-4.17825e-06
3.1756e-06
-6.61732e-06
6.38824e-12
-7.83491e-10
-1.25678e-09
2.21307e-09
-1.28847e-09
2.09422e-09
-6.98415e-10
-2.67891e-11
-1.50252e-09
1.4819e-09
-3.08882e-09
7.64381e-10
2.49259e-09
-2.06358e-09
5.9301e-10
-4.58376e-10
1.34906e-09
-3.74193e-08
-5.2665e-08
-3.58288e-08
1.25129e-07
-1.05683e-09
-3.17324e-08
-6.6166e-09
-5.07029e-08
-3.0662e-09
1.47142e-07
2.98819e-08
-2.26581e-07
1.45132e-07
-7.49993e-10
5.55578e-08
-5.91984e-08
1.6341e-07
5.52722e-08
3.55065e-09
-5.67748e-08
-1.78238e-09
-8.73646e-08
-5.17361e-08
1.94691e-07
-1.19038e-07
3.7083e-08
4.70632e-08
1.09797e-07
-2.13081e-07
5.12455e-08
-5.74725e-09
-3.25438e-08
3.10912e-08
-4.15383e-08
5.65049e-10
-2.9246e-10
-6.39907e-10
2.96874e-10
-7.13426e-10
-9.58734e-10
2.16426e-09
-3.11104e-10
-8.14831e-10
-6.02112e-10
1.40004e-09
-8.27659e-10
6.15803e-10
-1.88003e-09
-3.52735e-10
8.35787e-10
-3.84083e-10
2.69621e-11
-2.30103e-11
-1.84835e-11
2.00757e-11
-6.88089e-11
-7.71153e-12
1.03388e-10
-5.0622e-11
-4.18059e-11
4.8324e-11
1.43365e-11
-7.86329e-11
7.98837e-12
6.52704e-11
-7.02132e-11
7.22071e-11
-1.12548e-10
-8.24925e-15
-2.11738e-16
2.92383e-15
6.56521e-16
7.98098e-15
6.75041e-15
-2.88925e-14
4.41825e-15
1.54292e-16
-5.00577e-15
-4.9951e-15
9.08463e-15
-1.07286e-14
1.07125e-15
5.19327e-15
-1.45607e-14
1.71877e-15
7.29925e-16
7.59173e-15
-2.00081e-14
4.85265e-15
-1.21415e-14
2.22002e-15
9.74629e-15
3.3104e-14
-1.11877e-13
-1.92113e-14
-7.6701e-19
1.12728e-17
2.58096e-18
-4.63872e-17
5.57559e-18
-1.16087e-17
-2.05391e-18
-4.40484e-18
1.3192e-17
-7.25032e-17
2.24872e-17
1.44391e-17
2.14456e-17
-2.14522e-16
1.31726e-17
-1.70518e-17
1.81323e-17
-2.20483e-20
-1.78121e-21
3.59307e-21
1.2146e-21
1.38935e-20
2.47669e-20
-1.23566e-19
6.42143e-21
-8.57954e-21
-1.99262e-21
-3.56926e-21
4.22379e-21
-1.19233e-20
2.63492e-21
1.16255e-21
-3.48114e-21
-9.42192e-22
-5.29402e-26
-4.11697e-27
6.19623e-27
1.90094e-27
4.20087e-26
6.27875e-26
-3.96816e-25
1.91517e-26
-4.49709e-26
-3.68574e-27
-6.96752e-27
6.44976e-27
-2.70785e-26
4.08538e-27
8.07811e-27
-2.56916e-26
3.54943e-27
3.12636e-19
5.03814e-18
-4.74058e-18
-7.48572e-18
4.52234e-18
-7.55465e-18
5.41946e-19
-1.29217e-16
-9.65959e-17
1.87341e-18
-1.77948e-17
-6.54417e-17
-1.6502e-16
-2.02541e-16
-1.43449e-15
-3.43668e-16
-2.84111e-17
1.61651e-15
2.59737e-16
-4.50537e-16
-1.91774e-15
2.71509e-17
-5.41566e-16
9.42535e-16
-6.2419e-16
-1.18857e-15
-5.75526e-16
1.3036e-15
-1.12634e-15
-3.02706e-15
-1.17032e-14
-9.701e-15
-5.44436e-15
-1.3281e-14
-1.9878e-14
-1.22824e-05
-1.00182e-05
-1.03698e-05
3.26612e-05
-3.36554e-07
-1.28827e-05
9.38141e-07
-9.83214e-06
-5.27813e-07
9.57925e-06
7.56671e-06
-2.69884e-05
1.02173e-05
-1.19398e-06
5.46022e-06
-1.07753e-05
5.2986e-06
-1.98702e-11
-2.80572e-11
-3.02311e-11
8.62433e-11
-7.55937e-12
-9.75482e-12
6.93335e-12
-8.88725e-12
-2.08708e-11
2.1258e-12
1.30421e-12
-7.87258e-12
1.32784e-11
-2.55335e-11
3.51319e-12
-8.26488e-12
-2.29144e-12
4.20611e-15
-3.90712e-15
-1.04591e-15
1.99726e-15
-1.2093e-14
7.6518e-16
1.65636e-14
-1.10384e-15
-1.42419e-14
2.09545e-15
-3.03991e-16
-2.46231e-15
1.03631e-15
4.97191e-15
-2.20015e-15
6.00682e-15
-2.358e-15
2.00447e-15
-2.67927e-16
3.69144e-15
-4.02758e-15
-3.249e-15
2.87581e-15
2.39927e-15
7.3527e-15
-1.07635e-14
-3.02702e-16
-5.75175e-15
1.07305e-14
-4.45702e-15
7.01808e-15
-9.4039e-16
2.48165e-15
-8.70913e-16
-1.09584e-15
-1.45446e-16
2.49577e-16
5.68723e-16
5.40233e-16
-8.85898e-18
-2.28101e-15
-1.56504e-16
1.9947e-16
5.36205e-16
-2.46917e-16
-1.00518e-15
-2.25389e-17
5.25223e-16
4.52439e-16
-9.43796e-16
4.92771e-16
3.36465e-13
1.44284e-13
-8.09443e-13
-2.19384e-13
-1.03043e-13
-3.1579e-13
4.92855e-13
-3.7737e-13
1.29857e-13
7.3754e-13
1.01743e-12
-4.41451e-12
8.28076e-13
-9.49872e-13
-1.21786e-13
2.93105e-13
1.5751e-14
1.9163e-10
1.70517e-10
1.86006e-10
-5.47193e-10
2.36583e-11
2.3795e-10
-6.89843e-11
1.57785e-10
3.80023e-11
-1.73706e-10
-1.62639e-10
4.95144e-10
-2.55201e-10
1.20511e-10
-1.41386e-10
2.17443e-10
-1.74088e-10
-3.6127e-11
3.7171e-10
7.50848e-10
-1.0814e-09
3.76325e-10
3.90615e-10
-7.93573e-10
3.34733e-10
4.21426e-10
1.87784e-11
-5.09521e-10
8.3039e-10
-8.68e-10
1.31357e-09
-5.21984e-11
3.37094e-11
-1.65115e-10
-8.43874e-13
-8.62315e-14
4.35662e-13
6.94688e-13
2.32111e-13
1.77883e-13
-1.16325e-12
-2.08919e-15
2.90853e-13
1.18434e-13
-9.36473e-14
-1.56364e-14
-9.41017e-14
5.60344e-13
1.61456e-13
-7.82921e-14
5.60816e-13
8.43509e-07
-2.5122e-06
-1.67428e-06
2.29288e-06
-3.8279e-06
7.43566e-07
3.16749e-06
-6.20845e-07
-5.79021e-06
6.12414e-06
-2.00335e-06
-6.57762e-06
-1.91067e-07
3.64796e-06
-3.28304e-06
1.99808e-06
-5.93534e-06
-5.32415e-06
6.67229e-07
4.57796e-06
9.54773e-08
1.06965e-05
4.25317e-06
-2.0169e-05
9.58821e-06
1.84407e-06
-1.42531e-05
-1.54153e-05
3.93556e-05
-1.86821e-05
6.32108e-06
-2.99089e-06
-7.77809e-06
-1.73391e-05
5.88865e-06
1.60268e-08
-6.64928e-06
8.64411e-07
-9.94501e-06
-3.44549e-06
1.95175e-05
-1.07712e-05
1.52293e-06
5.2279e-06
-2.40128e-05
1.18638e-05
-2.11017e-05
2.28437e-05
2.56231e-05
-6.05498e-05
5.989e-06
8.42016e-06
2.11744e-05
-4.91872e-05
8.40996e-07
4.93598e-06
-5.07186e-09
-2.98881e-09
4.58913e-09
4.10793e-09
1.70478e-08
6.60749e-09
-2.79855e-08
2.37508e-08
-7.09106e-09
-1.29765e-09
-1.03884e-08
1.84951e-08
-6.6384e-09
9.86467e-09
5.43423e-09
-5.15067e-09
2.26919e-08
-1.24805e-05
-1.25506e-05
-8.10396e-06
3.31372e-05
-7.24456e-08
-1.26584e-05
2.52145e-07
-1.25108e-05
-1.08627e-07
1.68009e-05
1.26168e-05
-4.19256e-05
1.70778e-05
-3.68329e-07
8.99228e-06
-9.03107e-06
1.7968e-05
1.39413e-05
1.68191e-05
7.72208e-06
-3.87982e-05
5.29056e-07
1.29934e-05
-1.04882e-07
1.60632e-05
1.01295e-06
-3.53861e-06
-4.43443e-06
2.07321e-05
-3.63191e-06
-4.52734e-08
6.92418e-06
-2.26235e-06
1.64512e-05
6.04515e-08
8.90568e-08
1.86545e-08
-1.66944e-07
-6.41948e-10
4.58139e-10
6.22597e-08
7.82814e-08
1.11229e-08
3.09032e-08
-2.70445e-08
-2.76045e-09
-1.25394e-08
1.11757e-07
-4.9247e-08
1.15048e-07
-5.62894e-08
3.50163e-11
1.48025e-11
-5.50036e-11
-4.77565e-11
-2.63695e-11
-5.33446e-11
7.6028e-11
-7.35847e-11
2.84461e-11
6.22268e-11
6.74603e-11
-2.42964e-10
1.30988e-10
-2.42364e-10
-3.63087e-11
6.10056e-11
-9.57996e-11
-2.06594e-14
-6.917e-14
-1.94812e-14
8.72154e-14
-1.48213e-15
-2.82791e-14
1.96603e-15
-1.33507e-13
7.03075e-16
-3.87246e-14
-1.2761e-13
1.14269e-13
-1.51404e-13
6.41442e-14
3.52067e-13
-7.82075e-13
5.35873e-14
2.41696e-14
4.78271e-15
-4.50857e-14
1.99125e-14
-1.42603e-22
-2.2162e-22
-3.14286e-22
2.91326e-22
-8.56604e-23
-9.79528e-22
2.08028e-22
-1.46243e-21
-2.13994e-22
1.04008e-21