/*--------------------------------*- C++ -*----------------------------------*\
| =========                 |                                                 |
| \\      /  F ield         | OpenFOAM: The Open Source CFD Toolbox           |
|  \\    /   O peration     | Version:  v2012                                 |
|   \\  /    A nd           | Website:  www.openfoam.com                      |
|    \\/     M anipulation  |                                                 |
\*---------------------------------------------------------------------------*/
FoamFile
{
    version     2.0;
    format      ascii;
    class       volScalarField;
    location    "0.2";
    object      p;
}
// * * * * * * * * * * * * * * * * * * * * * * * * * * * * * * * * * * * * * //

dimensions      [1 -1 -2 0 0 0 0];


internalField   nonuniform List<scalar> 
24700
(
-389.718
-430.152
-343.308
-405.009
-423.007
-305.562
-355.523
-414.954
-441.64
-450.84
-417.179
-443.523
-435.104
-372.769
-399.681
-423.587
-407.146
-213.381
-244.046
-249.596
-197.547
-179.251
-240.127
-227.443
-163.208
-203.581
-193.702
-198.378
-188.253
-2.91342
-3.22923
-2.90153
-2.84201
-2.86761
-2.77123
-2.71074
-1.94256
-1.94431
-1.98516
-2.06396
-1.95567
-2.00586
-1.93068
-2.1964
-2.23684
-2.21415
-2.17623
-2.20242
-2.21113
-2.17851
-3.95608
-3.46087
-2.87038
-3.7926
-3.53903
-4.01625
-3.22483
-5.33075
-3.20781
-4.85695
-5.74742
1.94656
-4.09228
-5.7007
-2.34311
-2.33131
-2.33436
-2.35522
-2.3491
-2.33959
-2.34345
-2.48717
-2.48872
-2.49383
-2.48427
-2.49199
-2.49266
-2.48573
-38.1531
-5.02316
-29.4137
-17.2457
-4.81129
20.5652
-45.8424
-2.55932
-2.55238
-2.57977
-2.58718
-2.56088
-2.56036
-2.5804
-2.42297
-2.40622
-2.42173
-2.42106
-2.43872
-2.41384
-2.43077
-2.13498
-2.15397
-2.14598
-2.11202
-2.12014
-2.13496
-2.12669
-1.49577
-1.50434
-1.53762
-1.56729
-1.56648
-1.53409
-1.53177
-2.81265
-2.83217
-2.80698
-2.79475
-2.77
-2.78154
-2.80899
-2.81182
-2.82256
-2.84505
-2.90119
-2.92156
-2.89736
-2.88298
-2.86064
-2.89695
-2.87568
-2.90909
-2.90951
-2.93491
-2.91349
-2.8883
-2.78697
-2.81291
-2.80844
-2.83701
-2.81605
-2.80047
-2.82208
-2.40742
-2.4274
-2.40848
-2.39045
-2.40856
-2.41853
-2.40007
-2.21012
-2.24386
-2.19371
-2.20061
-2.17991
-2.21475
-2.17977
-12.5793
-14.1142
-12.8995
-12.1291
-12.908
-13.3388
-12.1023
-11.005
-11.5114
-12.3258
-10.8003
-9.88976
-10.997
-11.8432
1.96141
-0.197823
0.348813
2.58555
-1.4741
-3.30319
2.54016
5.22435
5.27148
5.24988
5.27569
5.22721
5.25964
5.2177
5.88109
5.23597
5.20585
5.04371
4.89607
5.294
5.45804
-4.16444
-3.92984
-3.99324
-3.83199
-4.18159
-3.95223
-4.2748
-2.41952
-2.44971
-2.44575
-2.5099
-2.41883
-2.41759
-2.47675
-7.48294
13.3491
18.0218
7.92038
-0.0645218
13.1211
-1.69045
-2.11089
-2.11625
-2.13768
-2.10193
-2.08708
-2.09608
-2.11063
-2.80338
-2.70335
-2.69075
-2.61118
-2.65959
-2.64795
-2.74021
-3.55624
-4.7975
-3.96094
-4.01361
-3.23254
-4.82594
-3.39817
-3.28682
-3.29411
-3.78037
-6.78888
-6.99387
-5.87815
-3.82503
4.85329
4.83604
4.91581
4.86762
4.8869
4.85472
4.90904
5.44938
5.41598
5.4101
5.41729
5.38328
5.39074
97.4496
76.9225
77.7764
67.5646
78.047
54.947
7.25892
6.1299
8.19197
7.91842
5.79462
5.61823
7.37416
5.63887
5.58812
5.62915
5.63748
5.6102
5.61829
5.65439
5.4558
5.47109
5.45129
5.50004
5.49145
5.47329
5.50235
5.07782
5.11747
5.26624
5.22537
4.65476
4.94939
5.2142
2.21412
4.79097
3.43329
3.47769
3.59819
4.01738
2.3145
23.9538
1.03695
13.228
20.4688
-13.1472
0.398189
8.20526
-7.55112
-6.70977
-8.13492
-5.24055
-7.38587
-7.98958
-6.18138
-2.91813
-2.88478
-2.8377
-2.45915
-2.98786
-2.81978
-2.6724
-2.35725
-2.34866
-2.35273
-2.3646
-2.34701
-2.35077
-2.34969
-2.29005
-2.28799
-2.2892
-2.29149
-2.29015
-2.29059
-2.28953
-2.30474
-2.2801
-2.28226
-2.26383
-2.28803
-2.27438
-2.29834
-2.17501
-2.20225
-2.17556
-2.17401
-2.14299
-2.1871
-2.15856
-2.26743
-2.26142
-2.29317
-2.25921
-2.231
-2.27801
-2.25155
-2.51406
-2.5369
-2.5398
-2.57063
-2.54873
-2.5573
-2.53452
-2.6427
-2.66551
-2.63184
-2.63167
-2.60811
-2.65425
-2.63142
-2.7243
-2.71864
-2.7464
-2.68536
-2.70862
-2.72485
-2.70293
-2.72107
-2.72478
-2.69945
-2.73412
-2.75578
-2.74149
-2.71978
-2.81285
-2.787
-2.80845
-2.81597
-2.83698
-2.80042
-2.82209
-2.66126
-2.64041
-2.66107
-2.68352
-2.662
-2.65148
-2.67268
-2.42183
-2.40632
-2.42298
-2.43865
-2.42108
-2.41385
-2.43085
-2.40417
-2.39701
-2.39094
-2.41055
-2.41699
-2.40653
-2.40111
6.84946
-5.03409
1.69855
-9.80709
3.47334
-4.92074
6.81526
-2.25513
-2.234
-2.12668
-2.00732
-1.99628
-2.13101
-2.12219
-1.48808
-1.28817
-1.22796
-1.1076
-1.26098
-1.17635
-1.44214
4.91318
4.90505
4.88493
4.88087
4.8301
4.89536
4.88316
5.00246
5.03329
5.02271
5.00953
4.97228
5.01664
4.98385
5.01316
5.02653
5.00181
4.95051
4.96421
5.06129
5.0435
5.06276
5.08085
5.06313
5.04889
5.07496
5.05477
5.07424
5.05659
5.0405
5.0275
5.47164
5.60966
5.57029
5.48879
5.44336
5.54446
5.45332
12.333
0.215384
-10.2583
14.501
-3.39752
0.628243
1.41359
-2.26266
-2.04919
-2.22693
-2.4012
-2.28351
-2.17061
-2.29928
-2.63671
-2.5169
-2.62751
-2.71406
-2.62188
-2.5642
-2.65193
-2.38394
-2.37035
-2.38455
-2.38122
-2.3967
-2.38102
-2.37971
-2.21869
-2.21069
-2.20641
-2.19116
-2.20608
-2.19931
-2.21383
-2.20916
-2.22094
-2.19735
-2.19223
-2.21567
-2.21568
-2.19282
-2.001
-1.97039
-1.97405
-1.94193
-1.97669
-1.9541
-1.98659
-2.07541
-2.05006
-2.04503
-1.9883
-2.02817
-2.04799
-2.02425
-2.44849
-2.44536
-2.46965
-2.41988
-2.44257
-2.43349
-2.45594
-2.85068
-2.83022
-2.82152
-2.79666
-2.81492
-2.81477
-2.83433
-2.7616
-2.7426
-2.73766
-2.7131
-2.72835
-2.726
-2.74308
-2.0847
-2.07858
-2.08054
-2.09766
-2.08862
-2.08097
-2.08977
-0.298692
-0.508755
-0.415742
-0.531881
-0.762743
-0.401714
-0.601038
1.02039
1.4503
1.18402
1.2851
1.10571
1.41254
1.08146
1.39678
1.45032
1.65232
1.71734
1.8869
1.64583
1.52747
4.88909
4.87467
4.83091
4.92108
4.89935
4.88531
4.91883
4.93155
4.93341
4.93101
4.92579
4.9547
4.94474
4.92458
5.71314
5.52415
5.57379
5.81648
5.67369
5.57925
5.66123
9.43345
21.648
12.4674
7.49915
7.62501
11.4917
6.84868
19.8858
25.5638
18.4892
16.8869
13.8749
23.5051
13.4245
-2.77871
-2.7444
-2.62015
-2.62673
-2.62478
-2.38608
-2.7255
-0.469828
-7.9368
-17.7583
-14.7586
-2.4967
-10.0296
-8.55804
-2.52583
-2.56974
-2.57754
-2.6014
-2.63074
-2.58071
-2.57579
-2.09832
-2.11383
-2.08815
-2.06276
-2.0813
-2.09725
-2.08047
-2.01538
-1.98415
-1.99937
-1.9838
-2.01549
-1.98443
-2.01534
-1.69012
-1.6453
-1.69879
-1.74146
-1.70787
-1.693
-1.73035
-1.69334
-1.71441
-1.74141
-1.62928
-1.67374
-1.93689
-1.9623
-1.92763
-1.89581
-1.93594
-1.94653
-1.91082
-1.92441
-1.96582
-1.93138
-1.89729
-1.95819
-2.08468
-2.06481
-2.05533
-2.05552
-2.08372
-2.72807
-2.70385
-2.7172
-2.75162
-2.73345
-2.71627
-2.73203
-2.48899
-2.49222
-2.48467
-2.49306
-2.48404
-2.4921
-2.48527
-2.24197
-2.21928
-2.23208
-2.26387
-2.24673
-2.23122
-2.24596
-2.20858
-2.22897
-2.2289
-2.22307
-2.24562
-2.23532
-2.21425
-1.82283
-1.79802
-1.81733
-1.77731
-1.78505
-1.79856
-1.80657
-1.70941
-1.73561
-1.72997
-1.7607
-1.74261
-1.74927
-1.72705
-0.848014
-0.840384
-0.907434
-0.811877
-0.823636
-0.839719
-0.857184
-0.561199
-0.45691
-0.511675
-0.447213
-0.54094
-0.439673
-0.535189
3.2004
3.25983
3.37229
3.21185
3.08844
3.21454
3.33331
3.19639
2.98401
3.36648
3.25007
3.14628
4.86383
4.80124
4.86567
4.87495
4.85835
4.8254
4.86681
5.17809
5.2079
5.20688
5.22179
5.15982
5.22174
5.25121
5.24743
5.18419
5.07668
4.81788
5.06166
5.02601
5.17774
231.508
88.5916
278.616
150.905
269.624
125.21
281.086
-2.35717
-2.29921
-2.60973
-2.93344
-2.59643
-2.80753
-2.52726
-2.23374
-1.79026
-1.616
-1.8306
-1.56182
-1.56633
-1.91599
-1.71087
-1.61904
-1.33881
-1.86167
-1.82225
-1.7621
-1.5439
-3.32607
-3.21205
-3.27522
-3.21109
-3.3219
-3.21251
-3.33493
-2.70032
-2.68007
-2.63517
-2.69016
-2.77029
-2.73171
-2.67597
-1.26366
-1.20681
-1.27684
-1.32943
-1.29019
-1.27127
-1.31535
-1.2737
-1.2982
-1.32932
-1.193
-1.25122
-1.97397
-1.97033
-2.0009
-1.97666
-1.94187
-1.95403
-1.98654
-2.23216
-2.20335
-2.22005
-2.25702
-2.24129
-2.22135
-2.23691
-2.42943
-2.4047
-2.41992
-2.45028
-2.43478
-2.41818
-2.43306
-2.90247
-2.91257
-2.9357
-2.89177
-2.91062
-2.91229
-2.92969
-2.90236
-2.90017
-2.9042
-2.92977
-2.90927
-2.88758
-2.93865
-2.90779
-2.91198
-5.56979
5.66366
5.62123
-1.16161
7.91889
0.846189
2.30699
-2.63355
-2.61957
-2.63136
-2.63445
-2.6465
-2.62665
-2.62709
-2.3556
-2.36006
-2.33298
-2.35267
-2.3815
-2.37174
-2.3439
-2.04895
-2.0663
-2.04686
-2.08103
-2.08618
-2.06395
-2.06609
-1.80071
-1.76698
-1.77893
-1.76017
-1.79183
-1.7659
-1.79691
-1.40493
-1.43224
-1.43967
-1.37911
-1.37966
-1.40857
-1.41594
-0.889013
-0.907218
-0.943394
-0.949006
-0.987949
-0.923903
-0.938305
0.164689
0.142161
0.0373895
-0.0564001
-0.0913762
0.0376424
0.0449226
1.37852
1.51539
1.36715
1.36125
1.27139
1.44207
1.33959
223.303
160.075
281.552
304.399
79.6043
114.07
289.194
671.476
772.888
642.936
910.796
722.807
848.843
736.111
538.403
782.43
564.775
698.841
605.273
866.192
567.812
1043.58
802.126
774.2
-2.14281
-2.25604
-2.23073
-1.78705
-2.30986
-2.47369
-1.9674
2.09575
-1.0621
-3.98809
-8.188
6.61093
-2.45277
4.23833
-19.2828
15.1789
13.7486
-10.0442
-1.46383
-4.45871
0.0681278
-0.394455
-0.0141456
0.372667
-0.285486
-0.037912
-0.119325
-0.247382
-1.9125
-1.96114
-1.90294
-1.86037
-1.93253
-1.95657
-1.88279
-1.13009
-1.09684
-1.08195
-1.08791
-1.0286
-1.0033
-1.06123
-1.09769
-1.16194
-1.11891
-2.27712
-2.26329
-2.25504
-2.22671
-2.24066
-2.24195
-2.25554
-2.86852
-2.73631
-2.87774
-2.90564
-2.91904
-2.92312
-2.8429
-2.75778
-2.88993
-2.94876
-2.95251
-2.87323
-2.9789
-2.87215
-2.85461
-2.68765
-2.84554
-2.94046
-2.93952
-2.99301
-2.96073
-2.94055
-2.94856
-2.95502
-2.9341
-2.95791
-2.9202
-2.93023
-2.99027
-2.96196
-2.50717
-2.47961
-2.50081
-2.49415
-2.52168
-2.48734
-2.51319
-1.88585
-1.88794
-1.90525
-1.93096
-1.93088
-1.91188
-1.91318
-1.28416
-1.2889
-1.31404
-1.3466
-1.35315
-1.32137
-1.32548
0.272513
0.375913
0.278371
0.280645
0.190352
0.315715
0.223477
3.94403
4.29233
4.06522
3.89044
3.67478
4.04504
3.91059
1.58025
1.41234
1.7013
-0.144865
4.38345
1.31188
3.42939
-9.67262
-7.74998
-8.20879
-7.17646
-8.21973
-6.74753
-8.98037
19.4179
26.6242
18.2189
18.1869
13.2933
25.1438
13.5964
672.697
671.649
1041.71
374.276
625.505
319.709
340.462
170.235
346.234
445.883
287.983
448.751
266.626
758.167
462.359
-0.775042
-1.56
-0.984052
-1.32437
-0.812387
-1.55112
-0.803411
-2.77895
-2.85365
-2.87943
-2.67862
-2.72727
-2.78994
-2.77928
-7.44579
-7.39515
-7.8031
-6.58007
-7.21564
-7.02773
-7.65409
-4.02762
-3.75563
-4.0081
-3.92474
-4.37005
-3.84329
-4.22794
-2.86701
-2.96304
-3.08395
-3.29374
-3.16373
-3.12047
-3.01861
-1.71687
-1.6963
-1.74619
-1.77995
-1.87135
-1.73727
-1.80544
-1.15703
-1.11619
-1.09417
-1.01568
-1.03798
-1.04877
-1.0889
-0.865887
-0.803121
-0.825041
-0.757629
-0.843734
-0.77182
-0.853422
-0.757704
-0.79928
-0.752771
-0.67089
-0.757841
-0.776471
-0.705827
-0.698827
-0.781316
-0.720942
-0.765573
-0.650061
-0.768441
-0.682367
-1.91187
-1.9319
-1.85865
-1.90132
-1.95832
-1.95463
-1.8812
-2.06246
-2.08107
-2.08775
-2.11168
-2.09799
-2.09637
-2.08008
-2.52724
-2.51905
-2.55524
-2.52219
-2.50574
-2.51591
-2.54093
-2.32475
-2.34714
-2.1798
-2.55819
-2.49254
-2.43858
-2.46689
-2.92872
-2.90649
-2.90125
-2.90712
-2.93536
-2.89021
-2.92043
-2.91369
-2.93856
-2.91284
-2.78062
-2.77669
-2.80474
-2.73723
-2.76124
-2.77746
-2.75341
-1.64424
-1.65925
-1.6202
-1.6316
-1.66781
-1.66376
-1.6266
0.190133
0.280982
0.285178
0.383347
0.267262
0.325968
0.216399
1.56794
1.31833
1.40057
1.35734
1.49457
1.39406
1.56018
0.47093
0.424162
0.61771
0.618469
0.203589
0.30995
0.606025
1.35331
1.44367
0.425251
0.652477
3.02842
2.51228
0.362759
-1.41504
-1.09403
-1.74339
-0.897083
-1.72536
-0.721976
-1.71348
-3.89147
-3.67227
-3.54647
-3.75346
-3.90965
-4.0668
-3.54012
-0.465674
-0.50103
-0.543113
-0.566099
-0.424402
-0.579408
-0.449406
-0.906288
-1.0314
-0.846271
-0.760573
-0.735857
-0.836629
-0.808987
-2.6477
-2.36825
-2.45644
-2.51018
-2.49447
-2.30652
-2.4967
-2.65296
-2.63971
-2.63356
-2.6224
-2.62953
-2.63011
-2.63659
-2.92357
-2.92442
-2.93635
-2.89584
-2.89537
-2.90627
-2.90453
-2.62523
-2.59002
-2.60958
-2.66331
-2.64014
-2.61626
-2.63779
-1.23308
-1.21454
-1.24511
-1.18377
-1.20195
-1.22582
-1.21008
-0.898526
-0.936541
-0.938454
-0.983506
-0.952054
-0.936698
-0.973335
0.0513028
0.131363
0.162498
-0.0764161
-0.0443292
0.0390453
0.0444584
-0.450977
-0.523427
-0.327445
-0.566778
-0.781617
-0.438366
-0.624106
-3.40037
-4.14836
-3.72435
-4.3077
-3.39696
-4.4011
-3.49682
-13.7887
-13.9301
-13.3755
-13.1878
-14.7268
-14.1767
-13.2913
-12.5341
-11.7726
-12.6688
-12.7117
-13.6934
-12.2953
-13.3384
-10.0688
-9.26343
-9.19414
-9.03073
-8.42575
-8.81974
-9.61895
-4.65762
-4.07122
-4.33965
-5.29629
-5.45969
-4.76042
-4.78547
-1.70845
-1.89581
-1.14332
-1.92722
-1.75213
-2.07887
-1.39955
1316.57
865.162
892.736
1346.18
533.293
1284.67
625.843
786.387
1430.27
1582.61
1698.19
1345.16
362.247
423.72
540.688
284.37
1265.5
1524.4
6.65543
37.1306
26.7628
57.5105
34.9857
26.9838
34.1236
-4.5782
-4.14513
-4.19538
-5.89202
-4.45015
-4.18037
-5.23733
-6.55119
-6.344
-5.95263
-6.81738
-6.79666
-6.92249
-5.86908
-11.402
-10.7575
-11.84
-12.203
-10.805
-10.6895
-12.166
-8.99927
-8.72663
-9.6743
-11.0979
-11.3322
-10.0941
-10.516
0.715161
0.807836
0.715918
0.710906
0.633333
0.654162
0.698616
0.698736
0.944248
0.742888
-2.57232
-2.64121
-2.6377
-2.61573
-2.74352
-2.69512
-2.59484
-1.56231
0.106306
-8.76673
-4.72817
-10.5313
-5.69566
1.80011
-2.55419
-2.75268
-2.47844
-2.22633
-2.62403
-2.48653
-2.66545
-2.2393
-2.20605
-2.19715
-2.3
-2.25835
-2.22034
-2.25533
-2.41446
-2.44283
-2.43822
-2.46127
-2.43346
-2.45199
-2.42421
-2.47914
-2.5072
-2.50055
-2.52175
-2.49407
-2.51308
-2.48639
-2.89015
-2.87536
-2.90267
-2.88879
-2.90275
-2.9324
-2.8727
-2.89785
-2.89825
-2.81577
-2.8567
-2.87363
-2.91186
-2.88718
-2.87908
-2.84587
-2.93177
-2.89667
-2.89492
-2.9077
-2.86874
-2.89529
-2.82205
-2.94741
-3.16276
-2.99723
-2.91081
-2.86731
-3.08134
-2.2414
-2.16605
-2.13868
-2.12644
-2.12263
-2.13459
-2.20553
-1.57718
-1.54241
-1.55687
-1.5507
-1.57802
-1.55104
-1.58233
-1.31056
-1.29049
-1.27494
-1.30583
-1.28358
-1.24958
-1.27093
-1.2996
-1.27281
-0.863386
-0.918209
-0.938568
-0.804021
-0.743946
-0.754067
-0.720747
-0.769349
-0.730158
-0.786715
-0.558057
-0.492405
-0.445136
-0.534176
-0.431996
-0.436969
-0.534884
-2.24637
-2.06772
-2.28578
-2.31014
-2.39795
-2.19859
-2.30992
-1.74381
-1.89845
-2.30907
-1.59559
-1.61892
-1.71852
-2.46047
152.521
335.125
192.913
234.109
217.167
216.817
-8.67359
-8.12002
-8.93305
-8.5174
-8.99047
-8.46826
-9.85233
-4.87178
-5.51049
-3.48574
-1.76899
-3.41324
-3.80653
-4.51808
1.10652
1.20073
1.23852
1.19955
1.33426
1.37754
1.27466
1.00908
1.11598
1.17875
-7.54948
-6.72628
-6.98851
-8.38019
-7.93291
-7.19213
-7.81363
-2.38562
-2.3716
-2.38523
-2.39776
-2.3822
-2.3816
-2.3803
-2.52324
-2.55594
-2.58901
-2.75615
-2.70406
-2.75369
-2.65082
6.32988
-3.82047
5.99179
-4.27603
8.9239
3.73526
-6.36047
-2.12126
-2.10791
-2.11698
-2.1436
-2.12924
-2.11732
-2.13216
-2.24266
-2.26382
-2.2433
-2.22109
-2.23994
-2.25147
-2.23154
-2.16595
-2.15006
-2.16922
-2.16057
-2.18141
-2.15556
-2.17481
-2.35595
-2.38242
-2.35296
-2.33293
-2.36021
-2.37226
-2.34401
-2.26792
-2.29869
-2.28951
-2.31083
-2.28037
-2.30393
-2.27439
-2.72623
-2.75478
-2.71614
-2.67838
-2.72112
-2.72679
-2.68446
-1.98325
-1.97665
-1.95188
-1.96211
-2.0663
-2.00502
-1.94732
-1.66762
-1.67883
-1.69672
-1.72133
-1.72687
-1.70192
-1.69705
-1.44699
-1.45634
-1.44272
-1.45101
-1.42777
-1.43665
-1.45454
-1.46152
-1.44066
-1.45872
-1.44568
-1.40494
-1.45911
-1.43828
-1.27378
-1.27594
-1.23625
-1.24366
-1.26857
-1.22838
-1.26885
-1.23342
-1.27954
-1.26326
-0.985245
-0.944679
-0.995087
-1.01675
-0.976964
-0.958574
-1.00247
-1.01106
-1.03141
-1.05318
-1.00192
-1.05861
-1.0037
-1.0533
-0.934121
-0.908378
-0.878895
-0.990507
-0.945196
-0.922182
-0.936823
-1.01009
-1.02618
-0.977828
-1.0317
-1.09024
-1.05844
-1.01392
-1.79778
-1.88404
-1.89369
-1.71949
-1.68384
-1.7998
-1.80834
-3.19824
-3.39473
-3.1889
-3.09569
-3.00056
-3.24326
-3.08467
-2.67886
-2.64417
-2.85436
-2.81714
-1.97921
-2.02639
-2.72534
13.2303
-18.1035
13.6331
-2.54766
-6.92756
-1.48615
5.18919
674.283
885.061
731.974
790.117
808.12
833.912
739.09
538.525
645.786
551.712
495.943
533.212
491.169
505.317
517.649
471.421
883.477
819.99
857.851
845.274
798.789
462.062
523.326
367.984
471.857
411.822
17.6535
-5.2203
-32.017
-34.814
-54.7756
-27.5485
-12.3002
-11.4801
-9.25563
-11.8723
-5.19974
-11.2886
-3.60244
-8.3463
0.0290831
0.0850692
0.651865
0.15921
-0.610053
-0.684129
0.837412
2.42002
2.81697
2.53872
2.83186
2.59876
2.80379
2.77146
4.07726
4.10842
4.06605
3.98007
3.97278
4.04397
4.01873
-4.86725
-7.24377
-7.05526
-6.28009
0.549219
-3.05967
-3.79543
-4.94688
-4.7688
-5.1751
-5.56585
-5.39407
-5.19365
-5.18853
-2.82099
-2.8067
-2.84563
-2.9684
-2.94394
-2.91926
-2.88855
-2.66922
-2.61643
-2.59151
-2.57159
-2.52845
-2.5825
-2.57224
-2.64067
-2.40476
-2.0924
3.07232
-10.1184
-3.89002
-3.20229
-2.08299
-2.0997
-2.08877
-2.08044
-2.07937
-2.08994
-2.07967
-2.25016
-2.27059
-2.28184
-2.22975
-2.21951
-2.24163
-2.25748
-2.59643
-2.64116
-2.60714
-2.74038
-2.60013
-2.7636
-2.58683
-1.40466
-1.42896
-1.43652
-1.42173
-1.39533
-2.11873
-2.14028
-2.18028
-2.23793
-2.18878
-2.18764
-2.14604
-2.69857
-2.70982
-2.79616
-2.61956
-2.68704
-2.65792
-2.7502
2.39686
2.33218
2.22972
2.83483
1.96562
1.9623
2.1169
3.20594
4.34062
3.87846
3.82608
2.68686
3.58749
2.55134
535.604
542.632
742.079
3.93377
4.08484
3.88294
3.76459
3.51255
3.70783
3.89652
2.9877
3.20911
3.1747
3.1673
3.28232
3.4223
3.25075
3.93437
4.01044
4.10043
2.95124
3.11383
3.16741
5.20058
5.16735
5.16915
5.14762
5.17462
5.21433
5.18173
5.16748
5.18803
5.0929
5.09259
5.10121
5.08527
5.09014
5.09017
5.06756
5.0975
5.11681
5.09007
5.09902
5.09169
5.09203
5.09876
60.6563
64.0714
82.8365
56.9856
38.4205
50.7349
69.6485
78.5919
79.1247
92.1709
73.2485
59.4977
62.4988
40.7824
57.4338
84.4998
66.3833
53.1604
70.5002
79.6494
79.6878
93.6513
75.6248
61.9354
4.25469
4.12384
4.37667
4.37161
4.38771
4.18953
4.3143
3.29244
2.82274
3.60257
3.49789
3.53889
3.34456
3.4731
-9.65122
-8.73212
-9.60375
-7.91555
-8.80307
-7.83216
-8.65408
-10.5397
-10.6605
-11.0318
-10.4608
-11.3857
-10.2814
-10.694
-2.75361
-4.10518
-4.86161
-6.91293
-5.1089
-5.14505
-6.89876
-4.54204
-5.05036
-4.637
-4.77079
-4.31395
-4.98278
-4.55256
-2.66979
-2.57355
-2.64384
-2.75152
-2.71599
-2.65683
-2.6831
-2.04077
-2.02843
-2.03721
-2.03503
-2.04293
-2.03047
-2.04118
-2.15766
-2.19193
-2.24032
-2.10463
-2.1147
-2.14976
-2.18953
-2.30152
-2.19723
-2.31378
-2.32721
-2.40156
-2.26037
-2.34814
-2.45393
-2.31435
-2.20233
-2.29077
-2.38823
-1.79174
-1.8415
-1.77537
-1.71732
-1.76722
-1.77109
-1.83053
-1.75372
-2.45932
-2.39571
-2.39722
-2.36456
-2.37628
-2.42181
-2.38589
-2.76325
-2.77375
-2.81374
-2.75183
-2.78802
-2.75761
-2.80818
-10.9639
-3.94185
-0.0142444
-16.1657
-1.80489
-3.69727
-7.42769
-1.36724
-1.22818
-1.50906
-2.66933
-0.294698
-0.587188
-1.72177
-0.315837
0.543033
-0.397809
-1.07824
-0.990179
-0.410786
-0.70441
1.84087
2.16123
0.632842
1.93204
1.5479
1.46834
0.866036
92.5873
73.5205
68.6145
92.9049
73.8412
78.4124
59.4821
88.92
89.1221
96.1401
70.6241
70.7276
77.9694
77.6009
79.534
99.2368
80.4223
4.33627
4.17959
4.34535
4.24547
4.29487
4.18104
4.38703
3.96965
3.93051
3.91069
4.02016
4.00648
3.99571
3.95948
5.27938
5.2554
5.29773
5.19055
5.29025
5.2895
5.26873
5.26495
5.24915
5.12276
5.23011
5.28196
5.27567
5.16797
5.14968
5.13315
5.23426
5.26345
5.22526
5.27154
5.27442
5.09568
5.08936
5.07958
5.96025
4.39138
6.14896
6.316
6.8932
5.18966
4.12767
77.1648
68.777
97.4173
59.2075
76.95
77.743
73.9471
75.3924
95.7364
85.7708
86.4975
64.2301
65.0095
64.6473
51.3172
33.3996
72.519
50.4682
65.7765
56.0772
75.312
6.06044
6.11395
5.84408
5.62297
6.16118
6.17803
6.06512
-9.68714
-11.0085
13.2887
21.7392
-2.64142
-22.3603
6.09946
-4.36306
-1.893
-2.94876
-3.61999
-3.97716
-3.58491
-3.4797
-3.753
-2.90534
-2.27985
-0.67484
-3.03812
-2.01937
-2.5817
-2.8772
-2.84786
-2.79676
-2.72672
-2.67185
-2.79486
-2.7801
-2.45874
-2.45475
-2.52648
-2.43773
-2.45487
-2.44049
-2.49307
-1.98562
-1.99778
-1.97975
-1.966
-1.99615
-2.00087
-1.97727
-1.63045
-1.60974
-1.64787
-1.64921
-1.61337
-1.61094
-1.64833
-1.61926
-1.65973
-1.64433
-1.66706
-1.63177
-1.66348
-1.62612
-1.70419
-1.68431
-1.66682
-1.7096
-1.67158
-1.71167
-1.6697
-1.78097
-1.81129
-1.82125
-1.74969
-1.74224
-1.77602
-1.77542
-2.2743
-2.53572
-2.32502
-2.2092
-2.00207
-2.13833
-2.15176
-2.93587
-2.85391
-3.20995
-2.74845
-2.8596
-2.71409
-2.71346
-2.62734
-2.75321
-2.8591
-2.80754
-2.71234
-2.67339
-2.62303
-2.70429
-2.68579
-2.60049
-2.55913
-2.65503
-2.55546
-2.62966
-2.72459
-2.9157
-2.78908
-2.77018
-139.997
-130.253
-121.669
-95.8443
-123.879
-140.487
-169.161
-119.497
-114.225
-2.88406
-2.63769
-2.92833
-2.11816
-3.36811
-2.168
-3.09364
-3.14352
-3.00761
-2.99582
-2.91722
-2.86554
-160.392
-134.928
-144.028
-472.375
-492.665
-472.771
-468.502
-453.482
-455.029
-462.414
-474.189
-489.458
-484.979
-499.653
-477.432
-473.441
-462.55
-474.865
-484.852
-461.48
-475.524
-464.557
-493.566
-472.783
-472.933
-440.99
-464.262
-470.92
-454.008
-479.898
-503.407
-490.118
-494.08
-483.373
-477.853
-489.237
-479.705
-470.153
-483.346
-477.89
-470.484
64.2048
-12.4947
8.76396
-13.5941
-19.9604
-18.3442
-43.399
-2.87787
-2.89773
-2.90155
-2.92673
-2.9084
-2.90118
-2.92842
-2.93759
-2.9083
39.384
58.947
61.5335
85.3144
66.6154
59.1014
79.5893
87.3196
67.0662
75.0005
74.6174
93.3288
47.8005
57.8127
28.5813
-2.89981
-2.86058
-2.8889
-2.93869
-2.91724
-2.91616
-3.12626
-3.13838
-3.07174
-3.75716
-3.9417
-3.59292
-2.60639
-2.83303
-2.82191
-2.67562
-3.08001
-3.08015
-2.98953
-2.06517
-2.08016
-2.08403
-3.70255
-3.58749
-3.91254
-2.35165
-2.45195
-2.08668
-3.05738
-3.11001
-3.10636
-3.12718
-1.90995
-1.88658
-1.90821
-2.06397
-2.04823
-2.06137
-2.04481
-13.9423
-14.4761
-13.9982
-14.3453
-3.5273
-3.5349
-3.79013
-3.70169
-3.5764
-2.49056
-0.733164
-1.11595
-0.729176
-1.31553
-0.147185
-0.378184
-2.21453
-0.155208
-3.54932
-3.5296
-3.74436
-3.81896
-13.8154
-13.6805
-13.3403
-13.5172
-13.7901
-13.6412
-13.1014
-12.0527
-12.5063
-13.3017
-1.82506
-1.83852
-0.417415
-0.573362
-0.491379
-1.24466
-2.5716
-2.55885
-2.38049
-2.48968
-2.37292
-2.27874
-2.43345
-2.25165
-2.25472
-2.23614
-2.24769
-2.22927
5.60261
5.21792
5.9478
5.33605
-2.64978
-2.6284
-2.59636
-2.04356
-2.06717
-2.03467
-2.06023
122.959
227.579
67.636
148.473
-3.17866
-2.92842
-3.60483
-3.33183
-2.62848
-2.60271
-2.59189
4.00696
4.03612
-11.438
-11.1579
-12.1013
-12.616
21.777
2.89959
1.66522
23.6158
-1.74625
-1.75472
-2.91777
-2.89254
-2.88474
-2.8705
3205.14
2810.06
2442.46
2192.87
-2.05678
-1.93297
-2.04638
-1.92065
-4.53302
-18.3806
-3.29198
-0.245826
3.59253
3.62478
3.89971
3.95162
-2.48701
-2.48901
-2.46593
-2.4818
-2.13258
-2.11546
-1.9002
3.16195
2.53555
-0.225648
-1.84915
-3.04415
-2.55324
-2.66746
-6.25614
-7.8732
-5.73325
2.30623
3.76865
3.47731
-91.3294
-83.7812
-2.75383
-2.72332
-2.76664
-2.71131
-12.5352
-13.096
-11.7536
-14.0317
-13.731
-12.9761
-14.9362
-12.8603
-2.08832
-2.07846
-2.73496
-2.75048
-2.7255
-2.75037
-7.13946
-8.5699
-7.43876
-10.5284
-2.69635
-2.74259
-2.42691
-2.32622
1.85239
2.13376
-1.12285
-1.07245
-1.11288
-1.04546
9.82167
14.3098
53.0652
18.2655
19.2906
44.5839
55.5661
5.29115
5.33972
5.25884
5.30543
5.03286
5.02217
5.07041
739.709
537.989
478.793
354.105
653.381
631.892
-2.47861
-2.47878
-0.833512
-0.839685
-0.913192
-1.00411
-1.0145
-0.965241
-3.51395
-3.38579
-2.75224
-2.86365
-2.89286
-2.85536
-2.47758
-2.49097
-1.47646
-1.22859
-1.52112
-1.10417
-1.25273
-1.4047
-1.16912
-1.61524
8.86924
12.5134
6.92897
11.0529
-3.2734
-3.28771
-3.43708
-3.39811
-0.433425
-0.644527
3.78277
3.78335
-0.625358
-0.386227
1.85509
2.13636
-2.07915
-2.08672
-21.2277
-16.4561
-8.15097
-7.59861
-8.7948
-7.54386
-13.5393
-20.2396
-2.67477
-4.96244
28.3438
-18.5917
-2.50925
-2.4781
-2.59314
-2.61085
1.55146
2.78271
1.72782
2.94843
3.06607
2.75443
-2.29937
-2.30953
-2.30361
-2.32147
-2.20356
-2.19646
-170.712
-168.528
-130.919
-134.076
-1.81687
-1.79571
-1.77702
-1.75801
71.8268
66.9955
216.264
93.5546
-4.67385
-1.62064
-4.56725
-3.85757
1.53964
1.54089
-8.47358
-9.33038
-1.67627
-1.70531
-1.57153
-1.63057
5.93323
6.48424
5.65684
6.12311
-2.01945
-2.01338
-1.99871
-1.9764
-2.26296
-2.2458
-1.99772
-0.728856
-2.7329
-2.71821
5.62505
5.73234
-381.9
1.23507
1.73044
-9.2429
-0.794761
-1.50955
-1.49142
-1.54442
-1.50717
-1.64521
-1.64573
-4.40186
-4.56463
-2.04043
-2.05833
-2.861
-2.83317
-2.7585
-2.74375
-3.75848
-4.32253
5.38918
5.42509
5.34168
5.42119
2321.53
2435.59
2821.46
-2.22049
-2.23328
-2.2427
-2.25216
-0.711358
-0.686498
-0.746139
-0.712767
-2.10809
-2.08313
-2.14063
-2.11286
-2.88829
-2.82574
-1.36206
-1.38252
-1.32561
-1.35027
-2.97445
-2.95233
-3.01602
-3.00451
-1.83434
-1.81891
-1.68689
-1.70484
-2.3016
-2.28389
-2.27416
-2.2584
14.7063
10.842
-2.06626
-2.06083
-2.26403
-2.28067
-2.27561
-2.29782
-2.29204
-2.2819
8.02038
0.866847
-0.628626
7.27952
-2.43484
-2.37411
-2.67814
-2.68532
-2.70894
-2.70499
-2.73624
-2.74248
-2.08241
-2.10789
-2.1114
-2.13929
-2.83158
-2.88119
-1.03361
-1.01213
-4.06995
-3.9658
-4.52246
-4.41023
-3.94887
-4.07264
-4.30733
-4.47445
-8.41537
-7.96958
-9.0729
-8.35466
-8.08943
-8.45431
-8.47494
-9.21005
-2.87056
-2.83477
-2.84578
4.92987
4.82138
4.90683
4.75573
-2.19297
-2.17377
-2.13705
-2.12122
0.652701
10.6835
9.06934
0.990129
4.23881
4.3106
4.21875
4.38453
4.92787
4.88757
4.73742
4.84741
6.08599
6.02008
6.10294
6.20248
-2.13223
-2.1411
-1.65706
-1.64951
363.372
345.294
-0.00832916
0.0689465
-0.128107
-0.0810057
-1.65295
-1.67547
-1.62321
-1.64634
-0.0502214
-6.58295
2.64718
4.7088
-69.2486
-74.9362
5.85908
5.72521
-3.60958
-1.85761
-5.78614
-0.948049
-0.430643
-0.406764
-2.22119
-2.21794
5.21405
5.09144
-4.5351
-4.69461
-4.05416
-4.0941
-64.8638
-56.4868
-4.6852
-4.53524
-4.11329
-4.04129
-2.33001
-2.34766
-2.69734
-2.69793
4.44195
4.78706
3.95779
-1.34778
-1.36052
-1.18323
-1.19881
1.05006
1.90161
0.498174
1.34767
-1.08089
-1.08011
-2.2315
-2.25504
-2.22322
-2.26669
-1.63539
-1.65719
-1.62645
-1.6664
-2.25074
-2.23353
-1.65718
-1.6354
-1.66702
-1.62623
-2.85313
-2.83802
-2.83801
-2.85313
-2.43658
-2.40519
-2.18694
-2.2479
-6.02621
-5.52398
-2.36528
-2.33632
-2.39187
-2.35484
-2.03488
-2.01944
6.54487
5.87901
10.9572
8.88
-3.85875
-3.46988
8.51553
9.25529
8.71118
11.9168
9.57802
8.55826
12.5814
8.56151
-5.8981
-5.58489
-2.13884
-2.14137
-1.78759
-1.66045
-1.47468
-0.613015
-2.79484
-2.75485
-2.79056
-2.7036
-3.30475
-2.44786
-2.4832
-2.48582
3.24075
2.96975
3.68141
4.05985
-2.37367
-2.47629
2.60539
8.15995
-1.85285
10.5062
-14.3074
-14.4751
-13.7526
-13.7603
-2.53348
-2.57429
1.22007
0.882307
0.8794
0.791303
-2.06881
-2.06217
-2.06222
-2.04619
-13.9901
-14.3809
-13.446
-14.2028
-2.53796
-2.55763
-2.42549
-2.43886
3.17065
3.22071
2.71267
2.84019
-2.42556
-2.43888
0.642767
0.557069
0.814265
0.738046
-2.56538
-2.52219
4.48925
1.13475
2.9012
-9.72496
0.258403
-6.2392
-2.59307
-2.55409
-45.386
-38.8492
-69.6008
-68.2998
-2.18725
5.17497
5.14703
5.14786
-0.791806
-0.736227
-1.61062
-1.63398
-1.64205
-1.66621
4.89072
4.89698
4.94626
4.93774
0.582128
0.58001
0.65989
0.695089
1.22732
1.26021
-2.4811
-2.46868
-2.3643
-2.3437
5.42954
5.43173
5.40579
5.42062
5.4462
5.44436
5.47228
5.43341
-2.48108
-2.46869
-2.24559
-2.24482
6.17479
7.236
-1.98315
-1.9789
-2.0486
-2.28702
-2.32925
-3.28044
-3.3351
-3.34031
-3.59418
-7.92645
-7.68142
-3.58742
-3.81084
-3.6381
-3.7997
-2.04111
-1.98481
-1.98276
-2.7987
-403.346
-391.489
-2.81211
-3.3383
-2.74202
-2.72018
-2.60032
-2.60781
-2.57436
-2.55121
-0.151372
-2.33998
-2.58571
-2.59167
-2.55701
-2.28899
-2.40214
-2.56977
-2.3899
-2.44798
-2.45067
-2.3864
-2.55733
-2.60273
-0.142332
-0.454864
-2.36634
-2.34597
-1.65827
-1.66866
-1.6585
-1.66881
-332.277
-336.315
17.5164
10.4652
45.4684
21.3883
-2.57743
-2.58971
-2.02974
-2.04156
-14.0204
-14.2523
-13.6631
-14.1505
-0.822548
-0.796404
0.0349318
0.0244681
-0.340091
-0.422824
-1.75
-1.77177
15.4373
0.825478
1.01554
11.1004
7.37268
6.0768
-3.66859
-3.5987
-3.78447
-3.58419
-2.06777
-2.05211
-2.53507
-2.52405
-2.53771
-2.51776
-2.02954
-2.04138
-2.01948
-2.01098
-376.487
7.24201
9.20402
7.52475
4.89067
5.27015
-1.43669
-1.45812
-0.418754
-0.483238
-2.18686
-2.17976
-2.19853
-2.20289
-2.22804
-2.18535
-2.17657
-2.34115
-2.31763
-2.42626
-2.41207
-0.162343
-0.841538
3.55189
3.59199
-0.103564
-0.105559
-0.00354853
-0.0356579
-1.93016
-1.94117
-1.21903
-1.78178
-0.913566
-1.06739
-2.48989
-2.49443
-3.52161
-3.94395
-3.55885
-4.48752
-2.40628
-2.36885
-2.99036
-3.2647
-2.35914
-2.35653
-4.16818
-3.87919
-2.05088
-2.07383
-2.0511
-2.07359
-0.887664
-0.258922
-1.37004
-1.3589
-1.66029
-1.63824
-1.96337
-1.97761
-2.54459
-2.56349
-1.36879
-1.36009
-0.7739
-0.499444
-2.36495
-2.39207
6.23698
5.82051
1.44856
1.36046
-9.53578
-9.23317
-11.3753
-10.468
-8.81152
-9.47674
2.4241
2.47427
2.5938
2.84267
5.19712
7.40888
2.8832
2.53498
2.89681
2.65524
-3.94998
-4.06962
-2.10818
-2.09284
-2.23605
-2.24809
-11.3393
-10.1846
-2.41736
-2.41344
-2.74066
-2.72539
-2.41741
-2.41345
-1.67127
-1.69667
-1.67149
-1.69649
-3.1506
-3.21715
-3.13842
-3.21416
-1.17614
-0.368217
-2.2098
-2.19092
-0.511283
-0.0272638
1.66003
1.65311
1.56834
1.52294
-3.18208
-3.23643
-2.08111
-2.08008
-2.10203
-2.09333
-2.09076
-2.03944
-7.81375
-7.55149
0.261143
0.334331
0.337248
0.262076
6.1638
6.10085
-1.89152
-2.47491
-1.86053
-2.35163
-11.2447
-8.8144
-2.3851
-2.37147
-3.1836
-3.23871
-2.18343
3.40102
-5.34242
-5.51296
-1.04071
-1.0232
-2.60277
-2.57209
-1.90251
-1.88241
-1.90252
-1.88247
-1.88854
-2.1048
-2.23872
-2.21686
22.1101
15.4245
8.70319
8.52037
0.203731
-0.478382
1.98247
2.24838
-2.8077
-2.79308
-2.0405
-2.14146
-3.06025
-2.90671
-1.70185
-1.6771
-1.4446
-1.45151
-2.41581
-2.40324
0.891615
0.735963
-0.495141
-0.521581
-0.49638
-0.520185
-3.90451
-8.48225
-2.24828
-2.2702
-7.28537
-7.59023
-1.83986
-1.99229
4.20727
4.19483
-0.883223
-0.829668
8.24941
0.066873
-3.3754
-0.438039
-2.22045