/*--------------------------------*- C++ -*----------------------------------*\
| =========                 |                                                 |
| \\      /  F ield         | OpenFOAM: The Open Source CFD Toolbox           |
|  \\    /   O peration     | Version:  v2012                                 |
|   \\  /    A nd           | Website:  www.openfoam.com                      |
|    \\/     M anipulation  |                                                 |
\*---------------------------------------------------------------------------*/
FoamFile
{
    version     2.0;
    format      ascii;
    class       volScalarField;
    location    "0.2";
    object      p_rgh;
}
// * * * * * * * * * * * * * * * * * * * * * * * * * * * * * * * * * * * * * //

dimensions      [1 -1 -2 0 0 0 0];


internalField   nonuniform List<scalar> 
24700
(
2828.88
2808.02
2873.33
2794.01
2795.59
2881.72
2851.33
2834.31
2778.26
2778.85
2802.14
2805.16
2794.01
2825.46
2818.12
2813.79
2810.66
2859.03
2847.93
2813.06
2894.42
2893.16
2820.51
2813.63
2917.01
2857.08
2865.66
2831.64
2861.35
0.0179338
-0.297882
0.0371826
0.0709471
0.0453512
0.149086
0.209573
0.735019
0.751758
0.714671
0.659589
0.750075
0.70469
0.767935
-0.437366
-0.550385
-0.459403
-0.483732
-0.583405
-0.585864
-0.429878
-3.04499
-2.54822
-2.0172
-2.59267
-2.34817
-2.82576
-2.06517
0.684114
2.90413
1.05666
10.2222
15.5789
2.67432
3.03738
-0.172848
-0.184339
-0.168991
-0.163301
-0.175574
-0.180153
-0.165619
0.0587495
0.0529179
0.0703061
0.033342
0.0431813
0.0576532
0.04698
1474.22
234.389
2712.26
1480.96
158.102
2088.43
2615.22
0.201781
0.188441
0.179439
0.198123
0.206162
0.193843
0.192014
-0.0346778
-0.0363198
-0.0301893
-0.0244875
-0.0237524
-0.0297105
-0.0282523
0.0349671
0.0343275
0.0239243
0.0361793
0.0464597
0.0408005
0.0306748
0.280157
0.289401
0.264138
0.254213
0.236656
0.270195
0.254315
0.0206093
0.019479
0.0244339
0.0274703
0.0338289
0.0333202
0.0242682
0.0226604
0.0211226
0.0170269
0.00612929
0.00414372
0.00732088
0.00990173
0.0138496
0.00775439
0.0106348
0.0063447
0.0059167
0.00152753
0.00454804
0.00873512
0.0232632
0.0194812
0.0201796
0.0160446
0.0186052
0.0212248
0.0180079
-0.015737
-0.011263
-0.0107347
-0.0206199
-0.0203342
-0.0150371
-0.0149736
-0.512316
-0.46554
-0.353925
-0.566392
-0.416645
-0.598797
-0.469351
-8.02033
-9.64671
-8.32529
-7.4426
-8.31245
-9.80909
-7.47574
-8.27265
-9.97204
-10.8932
-8.55553
-8.18896
-9.43303
-10.218
17.0826
14.8559
15.0671
17.8359
13.9527
3.29321
14.0788
5.72521
5.7424
5.70098
5.70444
5.67647
5.73342
5.68255
6.83684
6.19598
6.11706
6.94807
5.84692
6.96801
6.34172
-3.01709
-2.67968
-2.76613
-2.61785
-2.98963
-2.72988
-3.17459
-0.659151
-0.869746
-0.862595
-0.780392
-0.511591
-0.864908
-0.96143
1758.85
1595.61
1991.46
1577.02
1820.18
1937.91
1893.72
-0.134995
0.0760942
-0.0981015
-0.149559
-0.100189
0.0643822
-0.136362
-1.35905
-1.23657
-1.14362
-1.01301
-1.11134
-1.05225
-1.30652
-1.90482
-3.14098
-2.46318
-1.89889
-1.7323
-2.71532
-1.88915
5.53143
8.723
8.17858
2.37168
1.81517
2.66187
8.14916
5.63271
5.53997
5.77199
5.65992
5.7524
5.68559
5.79588
6.03231
6.05189
6.02835
6.0532
6.07678
6.04433
103.528
101.16
101.542
101.14
102.466
97.6154
12.8975
15.3947
11.1292
10.8214
8.433
7.18777
11.104
6.1954
6.13794
6.26352
6.8639
7.12265
6.38108
6.39391
5.83254
5.83332
5.80696
5.82069
5.81384
5.81213
5.81772
6.38373
6.25366
6.52958
6.08543
5.97994
6.13931
6.03279
3.86236
6.54604
5.2114
8.41323
6.47862
6.35093
5.98954
51.5612
24.2679
57.3236
73.9644
169.787
93.1183
51.8411
-5.42836
-4.60499
-5.94143
-3.67179
-5.30505
-5.84631
-5.00159
-0.554145
-0.319663
-0.101351
9.28221
3.24309
1.39915
4.57532
-0.696509
-0.683711
-0.59347
-0.363649
-0.588894
-0.624715
-0.685984
-0.316357
-0.332768
-0.338392
-0.359411
-0.339876
-0.344997
-0.325486
0.0373246
0.0435712
0.036064
0.0347574
0.0289477
0.0387477
0.0331817
0.142289
0.136797
0.145088
0.137856
0.150477
0.137311
0.147464
0.131104
0.130273
0.123758
0.128496
0.138307
0.125725
0.133794
0.0787903
0.0743398
0.0730257
0.0675039
0.0710078
0.0700621
0.0744466
0.0542742
0.0498515
0.0552286
0.0548999
0.0600664
0.051419
0.0558553
0.0384917
0.0397509
0.03478
0.0461521
0.0412811
0.0386423
0.0421697
0.0362256
0.0351305
0.0394488
0.0333799
0.0301138
0.0325929
0.0359103
0.019546
0.0232338
0.0201777
0.0186841
0.0160717
0.0212721
0.0179899
0.0243996
0.025435
0.0231673
0.0228311
0.0259527
0.0258585
0.023051
-0.0302893
-0.0364252
-0.034693
-0.0236829
-0.0245098
-0.0297239
-0.0283292
-0.0865684
-0.0824054
-0.0947301
-0.0904837
-0.0785233
-0.0802462
-0.0932187
2142.53
1772.27
1151.64
2149.6
2145.35
1981.48
1292.26
-0.8778
-0.866908
-0.748105
-0.609917
-0.604721
-0.747783
-0.733812
-0.00388509
0.190488
0.277328
0.363588
0.168881
0.243718
-0.0609528
5.71974
5.67208
5.64269
5.64272
5.61163
5.63415
5.68695
6.09718
6.18036
5.89948
5.83009
6.01204
5.81297
5.87093
5.81974
5.80839
5.82384
5.9165
6.04167
5.71379
5.71734
5.71469
5.81916
5.84527
5.81755
5.71143
5.75396
5.73053
5.71091
5.81293
6.05253
6.56409
6.79206
6.61075
6.62843
6.66376
6.81888
6.52306
37.9475
4.45496
28.5485
212.645
55.5162
5.18725
51.9178
-1.14896
-1.12977
-1.36049
-1.25162
-1.16325
-1.0916
-1.42995
-1.77001
-1.62954
-1.63793
-1.72818
-1.75381
-1.68764
-1.53624
-0.795249
-0.779165
-0.777237
-0.80318
-0.83262
-0.806319
-0.790579
-0.339412
-0.313016
-0.330406
-0.319674
-0.352985
-0.315346
-0.348266
-0.0397581
-0.0346069
-0.0294065
-0.0463993
-0.0514491
-0.0437196
-0.0392566
0.190025
0.202237
0.196132
0.205488
0.189116
0.204967
0.190867
0.187309
0.194265
0.197762
0.226904
0.205428
0.196333
0.201684
0.0909285
0.0929374
0.0881547
0.0985348
0.0942322
0.0952287
0.0911727
0.0087402
0.0108176
0.0116131
0.013029
0.0131597
0.0120119
0.0108496
0.0189714
0.0195744
0.0209641
0.0207057
0.0238512
0.0205572
0.0218755
0.0501765
0.0210481
0.017732
0.0529513
0.0555908
0.0233984
0.022867
1.30681
0.994117
1.0731
1.08856
0.82666
1.45274
0.779468
2.41369
2.72909
2.76629
3.30627
2.76467
2.80097
2.45966
3.67824
3.77879
3.66273
3.88458
4.14564
3.95314
3.4971
5.66162
5.6239
5.6112
5.68289
5.63626
5.61184
5.67408
5.61485
5.59722
5.59074
5.59219
5.61759
5.63346
5.59449
6.19515
6.06339
6.16699
6.52361
6.56682
6.36124
6.86045
29.9715
92.4773
27.8142
11.3126
24.3782
54.5276
10.9135
60.5891
44.9595
39.1407
40.0524
126.639
44.0426
35.6306
-0.401485
0.598612
-0.212335
14.8134
8.73817
4.81749
1.2799
936.261
938.468
951.096
906.772
849.062
926.427
945.987
-1.17826
-1.24286
-1.15033
-1.18632
-1.28858
-1.24308
-1.25685
-0.392838
-0.389957
-0.359212
-0.329452
-0.329603
-0.359813
-0.36143
0.0315902
0.0444292
0.0248433
0.0228107
0.00951516
0.0357461
0.0232269
0.335091
0.361805
0.326716
0.313063
0.328262
0.334216
0.315264
0.330293
0.320136
0.311533
0.36676
0.342416
0.233559
0.227814
0.244089
0.254673
0.23294
0.232815
0.250137
0.247354
0.233537
0.238822
0.254518
0.230408
0.188518
0.189986
0.190271
0.199275
0.189477
0.0303795
0.0296883
0.0347278
0.0277626
0.0275407
0.0290052
0.0316428
0.0800964
0.0458757
0.0656882
0.0774737
0.0710561
0.060137
0.0690975
0.0818617
0.0828563
0.086213
0.0880506
0.0814204
0.0930447
0.0900543
0.0950797
0.0952028
0.0873924
0.0942713
0.0927331
0.0872799
0.0902876
0.209112
0.226264
0.232999
0.244873
0.218748
0.240478
0.214071
0.157913
0.139547
0.118992
0.115922
0.152401
0.110307
0.150904
0.847925
0.877245
0.7989
0.906824
0.913192
0.874155
0.893477
0.965866
1.06052
1.01977
1.13671
1.02093
1.08317
1.00609
4.27433
4.33771
4.43597
4.28382
4.18153
4.28792
4.3951
4.26929
4.08837
4.41546
4.31315
4.22679
5.56548
5.55837
5.57593
5.6141
5.59532
5.62119
5.66494
5.83533
5.84288
5.78691
5.78524
5.74058
5.80169
5.97066
5.98219
5.88895
6.00116
5.77238
5.83228
5.77895
5.82348
284.57
161.169
377.989
219.879
357.911
227.732
381.889
-1.60578
-1.5124
-1.87178
-2.16622
-1.89878
-2.15322
-1.68251
-0.900382
-0.673744
-0.365191
0.917749
2.9006
0.23096
0.740032
1.10895
2.77808
6.286
2.78489
0.888751
0.775998
3.24908
-1.98151
-1.84438
-1.90464
-1.69997
-1.83592
-1.70849
-1.94571
-1.25742
-1.23177
-1.15665
-1.25239
-1.35054
-1.29789
-1.20625
0.540881
0.579667
0.528033
0.504684
0.525525
0.535586
0.509897
0.52926
0.515935
0.503206
0.582368
0.544524
0.196206
0.202296
0.19012
0.189147
0.205548
0.205029
0.190912
0.0850342
0.0896792
0.0913725
0.0816154
0.0789571
0.0839298
0.0867606
0.0347969
0.0358871
0.039059
0.0341346
0.0312422
0.0333916
0.0369127
0.00682064
0.00591132
0.00116596
0.00832615
0.00786649
0.00619196
0.00289473
0.0118403
0.00850969
0.00999299
0.00281357
0.00859733
0.0118985
0.000675441
0.013152
0.00896261
2540.66
2596.02
2523.82
2613.63
2528.6
2606.6
2544.35
0.0833281
0.0689383
0.103216
0.0680148
0.111439
0.0674945
0.106671
0.109776
0.102059
0.110752
0.11907
0.108636
0.105944
0.11538
0.189993
0.177573
0.173691
0.16641
0.179651
0.169354
0.185607
0.293114
0.308446
0.317963
0.339562
0.326301
0.321563
0.308948
0.545535
0.54265
0.516813
0.55066
0.568285
0.554394
0.528582
0.896144
0.897187
0.865782
0.882755
0.824562
0.893471
0.850462
1.80566
1.80337
1.70378
1.6338
1.57848
1.65888
1.69956
2.73246
2.85091
2.72777
2.72503
2.65359
2.78991
2.70586
303.548
259.042
369.898
413.462
169.263
215.593
390.422
681.838
801.283
677.103
935.806
766.134
859.148
764.619
549.469
793.557
568.874
725.749
632.081
886.439
588.05
1064.9
805.776
795.874
-1.53838
-1.51215
-1.09842
-1.22259
-1.71423
-1.85747
-0.987069
352.353
366.328
371.975
387.671
381.044
376.232
365.795
466.029
482.047
484.676
223.397
24.6741
106.537
276.757
2.0746
3.66126
4.13957
0.951382
2.44818
2.33731
1.96436
-0.394609
-0.436161
-0.361685
-0.338593
-0.41314
-0.437846
-0.345067
0.617984
0.632833
0.645895
0.641774
0.682692
0.696974
0.657434
0.63321
0.596549
0.621186
0.060023
0.0554566
0.0618213
0.0651303
0.069576
0.0609726
0.0657743
0.0370786
0.141708
0.0186521
0.0229225
-0.00885902
-0.00375086
0.0581015
0.12943
0.0156559
-0.0103551
-0.0232919
0.0559876
-0.058873
0.038692
0.051644
0.191029
0.0515212
-0.0250282
9.34226e-05
-0.0615442
-0.0292607
-0.0127773
-0.0208434
-0.0356645
-0.0146481
-0.0505382
-0.0337
-0.0246854
-0.0737544
-0.0575556
0.104048
0.114252
0.111273
0.121703
0.109597
0.118439
0.107979
0.339593
0.355893
0.33969
0.338547
0.32023
0.347323
0.327632
0.65326
0.686702
0.641308
0.633759
0.606191
0.656294
0.622639
1.86056
1.94544
1.87098
1.90029
1.80899
1.90188
1.82572
5.03043
5.44533
5.28698
4.97951
4.84634
5.2513
5.15507
6.6338
14.908
6.45519
7.78476
9.40084
15.1252
6.91774
-8.642
-6.78378
-7.29269
-6.00495
-7.30821
-5.34561
-8.0505
50.1364
45.9973
91.9019
130.998
37.6744
45.5524
37.7932
706.318
714.062
1066.3
409.587
658.256
335.469
386.022
232.796
397.786
480.394
310.237
471.849
272.586
780.854
501.132
2.1258
1.42598
1.90922
1.54917
1.97622
1.37099
2.0356
-1.96187
-1.98228
-2.06094
-1.68233
-1.52057
-1.85099
-1.91807
-4.54529
-5.51685
-4.65331
-4.68149
-4.46201
-4.81085
-4.28795
-2.63001
-2.20506
-2.672
-2.43116
-3.05937
-2.23519
-2.90961
-1.1232
-1.24468
-1.51262
-1.68472
-1.4544
-1.41522
-1.28891
-0.0542255
-0.0410344
-0.109649
-0.0136689
-0.134184
-0.207016
-0.0530507
0.380965
0.440531
0.445037
0.529028
0.519066
0.493986
0.477911
0.837101
0.859621
0.836051
1.05071
0.9002
0.956109
0.902056
0.831101
0.81311
0.83656
0.906868
0.839129
0.827268
0.873559
1.03608
0.849851
0.873307
0.822019
0.918776
0.895764
1.0485
-0.400473
-0.439227
-0.349785
-0.366601
-0.441382
-0.452291
-0.357606
-0.329147
-0.32936
-0.358797
-0.387778
-0.39246
-0.358924
-0.361038
-0.207967
-0.171865
-0.226046
-0.223803
-0.189129
-0.181216
-0.221277
0.426101
1.16605
1.40111
0.13077
0.128467
0.372356
0.467779
0.00386754
0.00797064
0.00796843
0.00715632
-0.00277623
0.0094361
-0.00248082
0.00732415
0.000767222
0.00817647
0.0507997
0.0545325
0.0450646
0.0667222
0.0611053
0.0542791
0.0599344
0.603255
0.581807
0.602661
0.619186
0.601839
0.591246
0.610109
1.89474
1.93843
1.96505
2.03616
1.93108
1.93498
1.85467
2.87324
2.62415
2.70076
2.68263
2.79587
2.71015
2.8812
1.81803
1.80904
2.18501
1.94335
1.62541
1.75184
2.00673
3.39543
3.64293
1.97757
2.28083
4.56278
4.34786
1.30321
-0.279263
-0.116841
-1.03479
0.181246
-0.607879
0.277147
-0.959896
-2.83314
-2.78816
-2.65209
-2.89269
-3.02591
-2.93496
-2.7204
1.07999
1.20563
1.01926
1.1389
1.1927
1.08152
1.06315
0.512008
0.363845
0.539281
0.606155
0.664034
0.576221
0.599059
1.04562
4.15781
0.628784
0.232594
0.298446
2.58733
0.277048
0.0744326
0.055095
0.0581957
0.0498606
0.0613996
0.0565702
0.0741801
0.00778014
0.00693346
0.00235606
0.0171197
0.0175927
0.0140488
0.0157884
0.134086
0.147273
0.146214
0.118769
0.123467
0.134491
0.131675
0.972393
0.961726
0.963714
0.972567
0.969497
0.966787
0.99358
1.10585
1.08621
1.08613
1.06867
1.08174
1.08607
1.06781
1.58825
1.66365
1.67604
1.46375
1.51833
1.58978
1.60601
0.918095
0.854695
1.08573
0.836048
0.603179
0.992122
0.721109
-2.05302
-2.86826
-2.37205
-2.96704
-1.99967
-2.9851
-1.97329
-12.1228
-12.3041
-11.7121
-10.6426
-12.238
-12.5039
-11.5564
-11.1998
-10.6289
-11.5483
-11.5704
-12.4475
-11.0926
-11.8251
-8.69305
-7.91343
-8.13908
-7.9431
-7.30847
-7.61552
-8.13199
-3.86589
-3.29582
-3.54782
-4.44795
-4.66067
-3.94608
-3.83482
-0.223436
-0.598816
0.240209
-0.61958
-1.10186
-1.46366
-0.533474
1356.41
893.849
948.065
1359.47
558.457
1306.52
663.667
837.479
1464.78
1586.86
1710.95
1357.93
380.045
451.303
565.389
302.752
1299.54
1549.53
15.9185
45.3187
36.0039
69.5657
51.1763
35.8204
66.6783
-3.80462
-2.9984
-3.40722
-5.1074
-3.45901
-2.86748
-4.40734
-5.54267
-5.31443
-4.96046
-5.11806
-3.34227
-5.14119
-0.997798
-10.4094
-9.51702
-10.8421
-11.0977
-9.6007
-9.38164
-11.1156
-6.49898
-5.48012
-7.24216
-7.55917
-8.70511
-4.82502
-7.49977
1.92857
2.00285
1.93117
1.92432
1.86514
1.89701
1.92308
1.91092
2.12884
1.94588
-0.952095
-1.0341
-1.03435
-1.01934
-1.16769
-1.1055
-1.08884
2134.44
2142.85
2133.61
1533.37
1955.61
2102.82
1990.69
3.62509
9.18946
0.332236
1.67765
0.173124
10.9289
4.96235
0.137001
0.132718
0.194574
0.0683236
0.0759692
0.17269
0.302407
0.101968
0.0919959
0.100033
0.0977635
0.107176
0.0944317
0.103814
0.113542
0.103857
0.111375
0.109029
0.118657
0.107623
0.116151
0.0179055
0.0235089
0.014584
0.020493
0.0157293
0.00446902
0.0273953
0.0206296
0.0202384
0.0617698
0.0392018
0.0316059
0.01475
0.0211064
0.0290358
0.0439013
0.00508239
0.0216816
0.0234307
0.0108428
0.0312988
0.00262303
0.0574009
-0.0395217
-0.24645
-0.0627655
0.00529146
0.0304024
-0.165177
0.58357
0.613408
0.636118
0.761676
0.749657
0.655272
0.792237
0.844057
0.846872
0.895662
0.888931
0.867242
0.860214
0.847603
0.962296
0.963972
0.970349
0.96703
0.970876
0.975502
0.97257
0.962298
0.970659
1.1306
1.09416
1.08296
1.22721
1.24943
1.23677
1.38359
1.36214
1.26722
1.35859
0.965448
1.03501
1.05974
1.01673
1.10602
1.08208
1.00279
-1.48422
-1.34167
-1.54088
-1.56139
-1.59156
-1.46435
-1.55684
-0.309754
-0.485001
-0.946629
2.02378
0.915985
-0.115473
-0.293207
183.603
357.721
198.565
271.997
239.772
238.905
-5.72403
-6.69283
-7.51405
-7.15201
-7.40014
-6.47486
-5.45179
0.608565
-0.120594
1.72956
4.3119
8.74766
1.58668
7.64561
2.26597
2.34179
2.37773
2.34061
2.45692
2.48916
2.40468
2.17896
2.26747
2.32104
-6.44774
-5.6027
-5.88148
-7.24344
-6.73457
-6.02924
-6.69404
-0.781478
-0.785814
-0.80293
-0.84038
-0.805994
-0.81111
-0.791163
-0.388163
-0.442426
-0.479417
-0.668597
-0.594988
-0.651465
-0.527308
1916.34
1876.16
1682.8
1880.21
1922.81
1812.58
1884.19
0.0823041
0.0522413
0.0656578
0.0778104
0.0588343
0.0551426
0.0628015
0.0830279
0.0808861
0.0788538
0.0802445
0.0789482
0.0759342
0.0773795
0.0789115
0.0756083
0.0739189
0.0864072
0.0840352
0.0810883
0.0796002
0.109415
0.10771
0.118779
0.110782
0.101894
0.10542
0.115266
0.175593
0.163225
0.17517
0.174097
0.186396
0.169002
0.180135
0.107418
0.0948141
0.11608
0.130298
0.106111
0.109042
0.134825
1.01829
0.975634
0.967695
1.04525
0.961349
0.984732
0.832471
1.25766
1.15668
1.25923
1.26329
1.23633
1.07721
1.09552
0.946953
0.956081
0.950239
0.950378
0.955187
0.956711
0.95723
0.958792
0.952496
0.961488
0.945939
0.967668
0.950732
0.952683
0.966973
0.966376
0.986113
0.978709
0.972183
0.986568
0.973703
0.98154
0.972202
0.970097
1.09088
1.1314
1.22473
1.0851
1.08505
1.10115
1.19989
0.904441
0.868491
0.867459
0.873293
0.842927
0.889278
0.862123
0.802339
0.824477
0.83871
0.755698
0.814561
0.823169
0.805784
0.628768
0.633824
0.680174
0.648777
0.571799
0.591015
0.65413
-0.35942
-0.460823
-0.459739
-0.262492
-0.24194
-0.372215
-0.366162
-1.8065
-1.99149
-1.8449
-1.70806
-1.63013
-1.82239
-1.64686
-0.808655
-0.12079
-0.998914
4.74981
10.336
4.30937
0.624363
495.571
483.292
499.746
26.3129
230.419
139.771
294.19
731.954
924.291
768.475
804.165
840.502
859.966
783.536
550.87
658.131
556.702
526.673
563.931
505.291
519.48
550.139
503.959
900.602
837.124
862.926
868.709
834.294
497.466
569.002
431.157
499.079
457.466
97.7483
68.1236
18.2802
-6.83709
-41.9561
41.1256
33.9025
-5.98928
-3.42724
-6.04717
0.314818
-2.19258
3.40715
-2.57961
4.48106
5.31416
7.97431
8.15404
3.8135
6.63857
9.31041
3.40094
3.64232
3.42269
3.64916
3.55105
3.67533
3.90626
4.99493
4.89593
4.80182
4.59281
4.38319
4.50907
4.46692
15.9476
13.6081
17.7555
17.3782
25.1438
21.9262
15.9853
-3.84954
-3.69003
-4.09895
-4.516
-4.32545
-4.13194
-4.10393
-1.46024
-1.49421
-1.50365
-1.68025
-1.63817
-1.62168
-1.57224
-1.25305
-1.17966
-1.1488
-1.07862
-1.06692
-1.10407
-1.11462
66.1657
34.7125
36.6629
392.505
577.219
62.3546
228.904
0.0213099
0.0361369
0.0261705
0.0100245
0.0249362
0.0292114
0.0142391
0.34714
0.32996
0.340741
0.381239
0.394055
0.379989
0.45232
0.889623
0.867693
0.904855
0.405113
0.46817
0.751466
0.558109
0.957492
0.951772
0.953893
0.958814
0.966826
-0.568248
-0.598327
-0.653058
-0.699605
-0.644898
-0.622182
-0.59849
-1.31584
-1.32474
-1.43188
-1.21359
-1.29978
-1.25335
-1.37459
3.09834
3.13333
2.93203
4.03906
2.75178
2.66322
2.79145
4.40836
10.2146
10.0421
8.57337
4.64969
6.9473
3.35538
570.536
586.73
767.81
4.70577
4.83848
4.65678
4.54766
4.314
4.49824
4.6686
3.85285
4.05587
4.01962
4.01407
4.11069
4.23965
4.0865
4.70516
4.7722
4.84379
3.82681
3.97101
4.01539
5.6511
5.60811
5.58218
5.54601
5.58578
5.66508
5.62095
5.58091
5.61783
5.46114
5.50051
5.46692
5.51098
5.49195
5.46522
5.51973
5.45763
5.52292
5.47592
5.46746
5.51596
5.52874
5.50756
97.273
97.0222
97.4231
97.9938
96.7411
97.1648
97.8194
97.1433
98.024
97.497
96.9373
96.6272
99.3073
99.1509
98.5467
99.1003
99.3449
99.3119
98.658
98.5585
98.5484
98.9788
99.2557
98.7314
4.61882
4.48862
4.80441
5.40741
5.35109
4.71614
4.89843
3.86025
3.49774
4.56511
4.02711
4.04562
3.87239
4.16029
-4.73315
-4.84779
2.33938
3.88803
-2.24385
-4.01784
-3.33916
-8.94974
-8.66969
-9.443
-7.13197
-9.28196
-8.14832
-9.1915
36.1257
33.2588
16.2695
23.0266
17.3061
22.9354
7.46326
-3.59981
-3.66667
-3.79656
-3.89784
-3.42136
-3.94595
-3.6417
-1.23643
-1.1895
-1.26103
-1.24758
-1.30389
-1.06633
-1.01547
-0.0698732
-0.0763581
-0.0865898
-0.109288
-0.0991277
-0.0938585
-0.0860829
0.700548
0.661592
0.609815
0.747986
0.670138
0.603561
0.572734
0.529
0.614918
0.518875
0.506608
0.450584
0.562064
0.492589
0.407526
0.519592
0.611109
0.541235
0.461846
0.90505
0.873581
0.911229
0.941685
0.919379
0.925404
0.884361
0.924801
-1.0454
-0.960138
-0.964345
-0.909364
-0.939235
-0.996918
-0.942647
-1.52919
-1.53567
-1.59752
-1.49075
-1.55631
-1.51548
-1.55738
908.999
942.684
844.022
952.916
938.906
933.692
949.229
-0.295567
2.08802
0.564894
0.588486
2.85157
0.30571
0.148724
1.59235
1.74703
0.859269
0.303879
0.430726
0.958886
0.402883
3.50261
5.7389
2.64005
2.70758
2.26548
2.37825
1.641
103.009
102.327
102.949
103.323
102.587
103.545
102.974
100.531
100.743
100.395
100.539
100.744
100.364
99.6918
101.594
102.913
102.368
4.90668
4.64514
4.8725
4.76328
5.57938
4.55728
5.40433
4.30363
4.41616
4.32059
4.32163
4.33193
4.37081
4.28339
5.83122
5.78194
5.8441
5.76258
5.84369
5.82513
5.82405
5.81962
5.81505
5.70602
5.69242
5.75972
5.75826
5.57651
5.55847
5.53123
5.74763
5.74904
5.69872
5.76321
5.77595
5.56247
5.57988
5.49869
17.5182
7.21014
15.7487
26.395
16.6415
10.7134
21.074
101.136
101.997
103.503
99.9511
101.294
101.849
100.076
101.539
100.855
100.503
101.237
100.022
100.768
101.665
99.5694
100.561
100.377
99.4975
100.711
99.8041
101.05
6.78864
6.87
6.66808
6.91995
6.98888
7.034
7.2093
29.2154
6.21976
42.034
123.866
209.638
50.7043
60.0112
2.72764
9.67266
3.60666
8.58395
1.77991
-1.65068
5.04501
-2.61007
3.18791
-0.62432
15.7079
5.27002
-0.17137
-0.681817
-2.09867
-2.05053
-2.02022
-1.90391
-1.90046
-1.98049
-2.00166
-0.828571
-0.822095
-0.945444
-0.88466
-0.978935
-0.979077
-1.06808
-0.256197
-0.264111
-0.227672
-0.238748
-0.287283
-0.278557
-0.236584
0.466261
0.463724
0.443993
0.469297
0.486748
0.475132
0.456136
0.611114
0.590333
0.630135
0.626652
0.639109
0.597943
0.614081
0.865522
0.886694
0.816584
0.810805
0.757347
0.801932
0.760508
0.843475
0.823099
0.831592
0.862551
0.851519
0.836938
0.864851
0.558292
0.294246
0.523179
0.620858
0.809721
0.680156
0.685085
-0.027819
0.044948
-0.292702
0.165129
0.0723707
0.193973
0.192811
0.260548
0.160373
0.0728677
0.117123
0.193938
0.229504
0.261471
0.200137
0.217101
0.284009
0.317999
0.24983
0.321642
0.26585
0.189284
0.0236199
0.131846
0.150749
2863.78
2853.71
2860.54
2866.02
2857.8
2843.51
2795.02
2842.03
2867.11
0.367525
0.747102
1.81232
77.6845
24.2202
0.814453
0.0233835
3.75393
-0.0573991
-0.0594587
0.0102748
0.532089
2824.15
2879.32
2850.44
2820.76
2820.05
2821.63
2824.64
2820.08
2810.01
2822.2
2801
2805.3
2811.74
2815.37
2818.02
2821.32
2851.79
2820.59
2830.17
2803.45
2818.77
2819.95
2819.15
2820.36
2821.48
2824.05
2820.36
2822.22
2819.56
2815.55
2811.62
2806.6
2800.68
2791.81
2817.6
2825.79
2815.06
2844.18
2810.95
2787.04
2814.02
1582.58
653.425
2833.87
2889.96
2865.7
2672.59
2702.53
0.00995297
0.0084859
0.00649952
0.00523505
0.00516991
0.00503181
-0.00381306
-0.0056275
0.00527279
92.6791
95.3081
96.3063
96.2428
95.896
94.9987
97.7109
98.2202
96.191
96.4566
96.564
96.9296
93.3215
95.6781
86.0955
0.00456533
0.0162094
0.00627582
0.000631451
0.00368625
0.00476843
-1.73984
-1.89136
-1.656
-2.50968
-2.71644
-2.34831
-1.17385
-1.3517
-1.35158
-1.2328
-1.97293
-1.96597
-1.88341
0.177404
0.165978
0.180506
-2.40771
-2.29251
-2.60712
4.2181
6.95466
4.6597
-1.98067
-2.04655
-2.00662
-2.04717
0.637273
0.620643
0.692704
0.186425
0.189411
0.170638
0.174442
-12.6899
-12.7953
-12.1137
-12.588
-2.2561
-2.22659
-2.43773
-2.33728
-0.404906
-1.27752
-0.0387234
-0.413643
-0.0521921
-0.629504
0.577674
1.17252
-0.247762
0.670431
-2.19488
-2.22275
-2.46965
-2.5753
-12.648
-12.6144
-12.353
-12.548
-12.6482
-12.4014
-12.1347
-10.9927
-11.3786
-12.0561
-0.908479
-1.17574
0.352842
0.317262
0.273668
-0.55207
-1.07412
-1.07305
-0.916256
-0.971923
-0.94568
-0.873476
-1.00303
-0.841321
0.0831257
0.0800254
0.0859365
0.0833047
9.16242
8.19877
9.85168
7.4526
0.131094
0.148244
0.157752
0.124351
0.12487
0.133979
0.132561
178.1
317.266
97.1235
223.776
-2.52396
-1.96602
-2.77764
-2.61342
0.0567652
0.0611647
0.0632491
4.32573
4.39389
-7.86829
-7.0557
-10.3831
-10.8442
450.108
248.956
259.561
446.083
0.869592
0.903141
0.0041233
0.00803311
0.00957277
0.01169
3235.37
2857.37
2460.63
2233.37
0.729074
0.818562
0.739896
0.832116
40.3515
32.3538
39.1072
50.8513
4.73189
4.70029
4.97026
5.04926
0.097747
0.0951058
0.0770708
0.0672291
0.0842177
0.093164
1.8778
4.68467
20.5415
16.3074
1.05483
-2.03584
0.852201
-1.72031
4.46754
20.3896
17.043
30.8724
5.03469
4.76931
2853.41
2860.86
0.0885557
0.103411
0.0868596
0.124944
-11.1938
-11.5011
-10.6433
-12.3919
-11.9121
-11.599
-13.7729
-11.441
0.0231174
0.0152706
0.0153889
0.014761
0.0155659
0.0147817
-1.25123
-1.42905
-3.44802
-6.5766
0.153693
0.10442
0.431194
0.520533
2.52436
2.87281
0.612633
0.644793
0.625392
0.665282
58.0168
73.2925
94.4244
84.4358
89.2105
96.2086
99.156
5.86443
5.90087
5.8254
5.84767
5.55508
5.47593
5.47375
788.244
592.926
562.397
435.478
707.237
676.157
0.0825438
0.0933506
1.14218
1.1363
1.10115
1.0664
1.05606
1.07661
-0.549633
-0.29792
0.135586
0.028587
0.0177658
0.0324747
0.0864116
0.0837105
-0.417571
-0.2173
-0.567523
-0.088566
-0.264453
-0.377507
0.686557
0.412015
9.96229
14.8445
7.99532
14.3079
-2.18486
-2.22795
-2.34904
-2.24075
0.944614
0.681278
5.03569
4.98962
0.714263
0.982517
2.91604
3.71609
0.0140081
0.0264745
964.363
879.099
-7.29305
-6.70109
-7.89885
-6.68448
877.926
965.121
6.28675
5.31054
2257.56
2721.59
-1.25377
-1.307
-1.44247
-1.25331
5.97585
5.06694
10.1421
5.33716
4.08572
3.42691
-0.0698882
-0.0621195
-0.0845355
-0.0752712
0.0844386
0.0875144
2850.35
2852.54
2860.88
2848.04
0.463717
0.478949
0.467075
0.489147
101.745
74.5485
320.245
135.784
-1.81379
1.244
-1.72903
-1.02379
2.86847
2.86731
-7.50732
-8.20043
-0.144445
-0.204972
-0.0411212
-0.138483
10.9659
8.95798
8.082
7.90088
0.32565
0.33811
0.320593
0.340163
0.133169
0.13714
52.7041
13.8024
0.0327887
0.0356729
6.60474
7.51365
2824.74
1176.32
929.647
1462.13
112.202
0.297349
0.299085
0.260575
0.273468
0.759726
0.803902
-3.30474
-3.49676
0.203339
0.198203
-1.60169
-1.56688
-1.46777
-1.45872
-2.62421
-2.61299
6.14879
6.22214
6.15417
6.53186
2389.44
2504.19
2867.35
-0.083238
-0.089538
-0.0711692
-0.0833489
1.11438
1.14721
1.11093
1.04741
0.297541
0.304727
0.276246
0.276844
-1.51581
-1.46786
0.877851
0.786612
0.960582
0.831747
-1.9084
-1.89936
-1.67828
-1.84053
0.195248
0.199377
0.182092
0.174721
-0.649105
-0.613473
-0.62167
-0.57875
32.5268
14.5879
-0.0228672
-0.0337754
0.0505777
0.0484852
0.0371096
0.0386421
0.0338797
0.0294765
449.166
456.644
442.5
466.797
-0.0717482
-0.0939932
-0.377512
-0.45724
0.0173792
0.0166657
0.0175734
0.0158654
0.308278
0.299641
0.280398
0.280693
-1.47397
-1.53469
0.664411
0.681715
-2.85922
-2.71573
-3.32484
-3.15845
-2.78336
-2.90293
-3.20515
-3.40537
-5.3182
-4.80726
-6.00299
-5.19148
-6.65846
-6.9391
-7.14106
-7.87662
0.0116281
-1.56934
-1.63083
5.56289
5.47928
5.61734
5.50031
0.132533
0.137105
0.15311
0.156398
437.604
447.332
447.654
440.022
4.70866
4.76544
4.68857
4.81033
6.01199
5.52069
5.59302
5.46816
7.45417
7.88521
8.73734
8.84193
0.154164
0.149057
-0.25627
-0.317397
450.403
419.824
1.72982
1.76001
1.57312
1.60375
0.393367
0.379446
0.398608
0.374868
1993.88
2073.32
2092
2134.34
2842.45
2863.97
8.02539
7.10392
101.592
143.182
1220.04
1447.22
1.11457
1.07165
0.0626007
0.0684229
6.18273
5.69953
-3.21911
-3.37799
-2.7943
-2.82178
2875.9
2884.11
-3.43049
-3.26341
-2.72372
-2.65425
-0.859138
-0.888708
0.110642
0.115302
5.1806
5.95488
4.28527
0.596986
0.59934
1.00344
0.99066
3.76767
5.49574
5.10212
6.17677
0.891521
0.873439
-0.706918
-0.748377
-0.690223
-0.760859
0.204863
0.175174
0.177301
0.138463
0.071846
0.0732341
0.17485
0.204442
0.137003
0.176392
0.0135161
0.0156608
0.015668
0.0135211
-0.277275
-0.297909
-0.0237057
-0.113802
-5.22354
-4.71081
-0.855049
-0.77487
-0.912753
-0.822918
0.0262658
0.0368733
19.5028
15.09
41.1004
24.7323
-3.0977
-2.7079
11.8164
11.4357
14.0771
15.8685
12.0684
11.9252
15.2742
12.71
-4.76234
-3.93866
-0.416326
-0.403426
81.3999
103.679
108.114
124.929
-1.42585
-1.34944
-1.34184
-1.22284
-2.21677
-1.64137
0.136757
0.111498
7.44172
6.86748
7.38709
8.17947
-0.260063
-0.678964
2195.48
2103.86
2274.17
1663.62
-12.5874
-12.0092
-10.4979
-11.1029
-1.17088
-1.13606
2.42253
2.18903
1.87769
1.82485
0.046755
0.0348171
0.0613153
0.049713
-11.2503
-11.7297
-11.1559
-12.7447
0.0728387
0.0692842
-0.039156
-0.0345028
3.8758
3.91325
3.27204
3.39921
-0.0392182
-0.0345303
1.83238
1.75034
1.95718
1.88241
-1.05738
-1.12701
5.94899
9.09642
959.444
1315.2
1176.59
1285.9
-0.229498
-0.186152
2856.99
2854.52
2851.5
2860.17
0.080687
5.63337
5.61039
5.61934
0.812483
0.869907
0.377591
0.361272
0.381915
0.355602
5.69265
5.68621
5.7652
5.73317
1.81297
1.82064
1.87278
1.90845
2.55917
2.5967
-0.0172612
-0.0236107
-0.393644
-0.283702
5.95875
5.99158
5.99743
6.04549
6.017
5.90815
5.98091
5.85952
-0.017243
-0.0236214
0.033576
0.0386054
7.49559
8.18746
0.795977
0.800401
0.737277
-0.893538
-0.947254
-2.40302
-2.43662
-2.49143
-2.71729
-4.60615
-4.40235
-2.67328
-2.88634
-2.7008
-2.84358
127.463
203.778
73.118
132.657
2773.81
2785.66
-2.01969
-2.60335
-1.49709
-1.44965
3.33266
1.43422
1.49659
0.933311
158.844
37.3174
0.0561401
0.0828073
10.1082
17.2853
0.257549
-0.466603
-0.872575
-0.94067
-0.984476
-0.917581
-1.02627
-1.06528
15.3471
21.2008
-1.18835
-1.196
0.892113
0.90095
0.997668
1.05148
2844.95
2840.92
20.1596
11.9606
51.8519
27.1367
0.071594
0.0945949
0.182183
0.175673
-13.0338
-13.2299
-12.71
-13.1688
0.86064
0.944747
1.29309
1.29968
1.07209
0.92279
0.315907
0.300263
474.719
2.5793
2.45865
440.602
10.0071
7.81144
-2.37738
-2.31101
-2.48447
-2.26351
0.132688
0.140677
0.0101041
0.00773175
0.00669658
0.00405596
0.182385
0.175857
0.302679
0.296491
2800.66
13.4653
14.892
15.8875
16.7541
10.6235
0.293435
0.272635
1.12915
1.03545
0.609751
0.490369
0.0874665
0.0880972
0.0912604
0.537981
0.492439
5.96534
1.61589
0.0411608
0.0409113
2.56928
1.92119
4.60601
4.64561
1.70204
1.63765
1.73131
1.67516
0.311082
0.315436
27.9887
27.295
3.55976
2.96949
-1.09286
-1.1043
-0.640004
-1.03946
-0.671942
-1.57772
-0.907939
-0.862229
-1.68847
-1.98019
-0.803176
-0.788616
-2.91549
-2.63373
0.190549
0.184007
0.190331
0.184246
96.2677
93.8913
0.632656
0.663429
34.88
16.1918
-0.200094
-0.219302
0.0630107
0.0596141
0.640072
0.671094
98.3875
94.2691
-0.673796
-0.604549
9.72982
8.34325
2.79775
2.72563
-7.81269
-7.70031
-9.68981
-9.25769
-5.20522
-4.58173
3.33185
3.36449
3.48958
3.71105
10.9529
10.7055
4.15166
3.62378
3.82665
3.63424
-2.86265
-2.93541
-0.0301877
-0.151728
-0.251781
-0.273203
-6.10638
-7.31208
0.082636
0.0812738
0.0245456
0.0242001
0.0825873
0.0812592
0.567003
0.559832
0.568703
0.561512
-2.34108
-2.41129
-2.31541
-2.38824
-0.48385
0.312527
0.114616
0.120143
0.377647
0.665338
2.97305
2.96854
2.90514
2.86217
-2.1398
-2.18666
-0.0136981
-0.0197443
1.01666
0.974514
1.04541
1.0707
-6.39079
-5.81652
1.90704
1.93759
1.94265
1.9237
13.7582
9.62508
-0.0876538
-0.958861
-0.530581
-1.11381
3.81526
26.4765
0.00620696
0.00644616
-2.13969
-2.18197
951.592
358.953
-4.18713
-4.30041
1.02479
1.0517
-0.271333
-0.231154
0.0806432
0.0951185
0.0806353
0.0950593
-1.29776
-1.33847
0.849774
0.602796
89.8673
68.9764
26.3265
26.9141
1020.2
497.776
4.67002
4.61594
54.7014
17.911
-1.28045
-1.40884
9.44073
16.8495
0.723488