/*--------------------------------*- C++ -*----------------------------------*\
| =========                 |                                                 |
| \\      /  F ield         | OpenFOAM: The Open Source CFD Toolbox           |
|  \\    /   O peration     | Version:  v2012                                 |
|   \\  /    A nd           | Website:  www.openfoam.com                      |
|    \\/     M anipulation  |                                                 |
\*---------------------------------------------------------------------------*/
FoamFile
{
    version     2.0;
    format      ascii;
    class       surfaceScalarField;
    location    "0.1";
    object      alphaPhi0.water;
}
// * * * * * * * * * * * * * * * * * * * * * * * * * * * * * * * * * * * * * //

dimensions      [0 3 -1 0 0 0 0];
oriented        oriented;


internalField   nonuniform List<scalar> 
13152
(
1.49138e-06
3.36625e-05
-2.45146e-06
-3.27024e-05
3.10282e-05
-2.86137e-05
-9.23169e-07
-5.8171e-06
7.05078e-05
-5.77517e-05
5.89437e-05
-3.64349e-06
3.53478e-05
-0.000125802
4.74914e-05
-4.07573e-05
0.000100618
-2.69318e-05
-4.93417e-05
-4.73383e-05
0.000123612
6.28515e-07
-2.80794e-05
5.19114e-07
-4.98343e-05
1.12115e-06
1.31106e-05
8.60706e-06
-4.97971e-05
1.30802e-05
5.49531e-07
-8.45423e-06
-2.58039e-05
-4.96815e-05
-1.44151e-05
-2.45013e-05
-8.57403e-06
4.74904e-05
-9.56194e-08
-1.44462e-05
1.26722e-07
-2.37009e-05
-8.96005e-07
9.41251e-06
-5.09481e-05
2.70894e-05
-4.90574e-05
4.98958e-05
4.89628e-05
-9.90604e-07
4.58951e-08
-2.53003e-05
-4.9816e-05
1.8035e-07
-0.000124913
5.35494e-07
2.66807e-05
5.0363e-05
6.83568e-08
0.000124534
5.97415e-05
2.11926e-05
4.22333e-05
-0.000123167
5.17033e-07
-1.04875e-06
6.02732e-05
2.07865e-05
4.27273e-07
-3.13395e-05
0.000122634
0.000129552
4.85169e-05
-1.17526e-06
-4.89326e-05
1.59094e-06
-2.73145e-05
-4.48746e-05
0.000120706
3.37033e-07
-2.88268e-05
-1.34642e-05
1.33348e-05
4.66389e-07
8.78961e-06
-5.10806e-05
-8.25924e-06
-2.32805e-05
-4.84022e-05
-2.30335e-05
2.19391e-07
4.85197e-05
3.36853e-07
-5.9598e-07
8.30623e-07
-1.95208e-06
1.78822e-06
-5.84967e-07
-3.42879e-08
3.81038e-08
-1.69413e-08
2.46583e-07
1.23985e-06
-1.27563e-06
-6.11625e-08
-2.89706e-09
-7.15566e-07
-6.92542e-08
-6.87198e-08
1.21305e-07
-4.59925e-08
2.28835e-07
-7.61097e-08
-1.24551e-06
-1.47731e-07
-8.36733e-65
2.661e-64
-9.98493e-65
-6.10013e-64
2.10248e-63
-9.69338e-63
6.79726e-63
-1.54647e-64
-4.2555e-64
2.59642e-64
9.15549e-64
-1.1574e-62
1.81706e-65
-1.28105e-64
-1.36519e-64
5.2041e-69
-2.29693e-63
-6.42479e-58
-3.71499e-57
-3.6011e-58
1.69854e-57
-1.06575e-57
-1.44862e-57
5.52573e-59
-2.59615e-56
-5.21954e-58
2.70141e-55
7.59928e-56
-5.12213e-55
4.42796e-56
-1.2571e-55
-6.26101e-56
6.33708e-57
-2.22852e-58
2.73374e-44
1.17326e-44
8.90548e-45
-4.3567e-43
1.04665e-45
5.76581e-43
-5.52085e-43
1.17979e-44
3.53292e-47
6.99587e-45
5.38245e-43
1.98274e-44
1.74101e-45
5.99257e-47
-1.77157e-45
6.86639e-45
1.56445e-48
-2.4499e-08
-2.44373e-09
-1.85105e-09
3.08697e-08
-8.88414e-11
-7.9092e-09
-8.87619e-09
-8.68019e-11
-1.86626e-09
6.41812e-09
-5.7754e-10
-1.34137e-08
-1.31575e-09
6.19138e-09
-2.92138e-09
1.95345e-09
-5.09128e-09
-3.55782e-09
-1.67971e-09
-8.26942e-10
5.07871e-09
-3.75093e-09
4.88599e-09
6.63284e-10
1.73232e-09
-3.51518e-09
1.49834e-08
6.20001e-09
-1.68851e-08
1.78448e-08
3.62482e-09
-1.0856e-08
3.28574e-08
-1.2689e-09
-3.38749e-10
-9.82349e-10
-4.33118e-10
1.03223e-09
-4.97254e-11
-1.26143e-09
1.17738e-10
-1.66589e-09
-3.22221e-09
-3.6438e-09
1.0578e-09
-2.66752e-09
1.09849e-08
-1.76257e-08
9.12374e-10
-1.38309e-09
5.48622e-09
-3.87942e-07
-9.62745e-09
7.9075e-07
-3.84056e-07
1.50999e-06
-9.54166e-07
-9.2363e-07
2.3605e-07
1.29044e-06
-1.98868e-07
2.65278e-07
-4.21547e-07
-1.01571e-06
-1.19379e-07
-1.05136e-06
2.61289e-07
5.75617e-09
5.00562e-08
-3.73438e-08
-3.55672e-08
2.28549e-08
-1.51945e-07
-3.19914e-08
2.33992e-07
-6.34873e-08
-1.25801e-07
-7.68611e-09
-1.9011e-07
1.65805e-07
-1.61157e-07
1.17904e-07
-5.08833e-08
-2.02714e-07
-3.37842e-07
2.90294e-08
6.44521e-08
3.94896e-07
-4.88378e-07
-5.88853e-08
1.41755e-07
-5.38403e-08
6.38313e-09
-8.16335e-10
-1.1997e-07
6.56621e-07
2.84103e-07
-3.97689e-07
2.29446e-07
-3.30755e-85
-8.51292e-67
1.70466e-54
-1.70466e-54
-1.17429e-84
3.45857e-85
5.40924e-85
7.873e-39
-7.873e-39
4.57878e-86
1.8324e-85
2.66304e-85
6.81898e-86
1.34268e-85
-4.30603e-23
4.30603e-23
2.76535e-24
3.77963e-05
-5.01291e-07
-3.56254e-05
-1.82876e-07
-3.9132e-05
-4.42177e-05
0.000121672
-1.15475e-06
-3.83652e-05
-4.14338e-05
4.3343e-05
-2.98004e-06
3.81158e-05
-0.000118099
-3.05922e-06
2.18448e-06
-8.17113e-07
3.9381e-106
1.21325e-122
-6.91863e-106
-1.34105e-105
7.76933e-123
-1.59834e-105
-2.36426e-105
-8.97019e-123
-1.33523e-122
-2.2747e-45
-1.62312e-46
1.28393e-45
2.12266e-47
-2.67554e-45
-3.14745e-46
-2.17238e-47
-3.72175e-46
6.20179e-32
1.44438e-31
-1.27388e-31
-4.81772e-31
4.68186e-32
-3.18733e-31
2.59675e-32
-6.58091e-32
1.34856e-31
-3.07497e-30
1.59178e-30
8.88918e-31
4.76599e-31
-4.39634e-30
9.58541e-31
-2.46966e-30
2.41558e-30
-4.05714e-27
-9.10737e-28
-1.10042e-27
2.56975e-27
1.15874e-27
-2.61087e-26
-2.31434e-27
-5.05754e-28
2.42411e-28
-2.3259e-26
1.53316e-26
-1.45844e-24
6.32972e-28
-2.66602e-26
1.22171e-27
-1.50124e-27
1.39672e-26
8.45609e-29
3.43766e-28
-3.44639e-28
-1.2771e-28
3.24336e-29
-5.74853e-30
4.64552e-30
6.66693e-31
9.40838e-29
6.65097e-30
1.32304e-30
-2.13579e-29
1.85908e-30
4.92389e-30
-1.61897e-29
9.74277e-30
-3.75998e-28
1.0201e-25
-3.33838e-24
-3.42805e-25
4.26357e-25
-2.90026e-24
-7.39711e-25
7.12782e-25
-1.14589e-23
-2.48132e-23
5.7091e-27
-5.39855e-25
-1.43682e-25
-4.72202e-24
3.11277e-24
8.4721e-24
1.36219e-23
-4.94747e-23
1.4281e-23
-3.53285e-22
1.49214e-25
7.17363e-24
1.89633e-24
1.50808e-24
-3.946e-24
-3.05861e-25
3.34335e-25
-1.41798e-23
1.05289e-24
4.38272e-24
-9.22228e-24
-1.98843e-23
1.08096e-25
-1.42147e-24
1.26671e-25
7.23184e-26
-3.74811e-24
1.96931e-24
-1.59864e-23
-1.7232e-21
-3.51303e-21
-1.07968e-20
4.73866e-21
-4.68014e-21
-7.71756e-20
3.2834e-20
-3.12101e-21
-1.33386e-20
-7.83505e-20
-1.71787e-20
2.574e-20
-1.40148e-19
-5.46751e-20
-4.3556e-20
2.36242e-20
1.76726e-21
3.92095e-19
2.18745e-18
-1.12488e-20
2.40723e-19
-2.86735e-20
-6.54502e-10
-2.40003e-10
-2.86312e-10
3.4919e-10
8.9856e-11
-1.85748e-09
5.09705e-11
-1.09203e-09
1.59656e-11
-5.7168e-10
-1.61674e-10
1.60866e-10
-2.82355e-10
-2.01867e-09
6.73238e-10
-4.50176e-10
-2.03771e-10
2.66724e-10
2.27025e-10
-4.80416e-10
4.52276e-10
-1.09651e-09
2.73888e-10
5.56062e-10
4.05162e-11
-1.02997e-10
4.55381e-10
6.53196e-10
-7.3125e-11
1.0494e-09
8.26102e-10
-1.44604e-09
-4.29111e-10
2.57158e-09
-1.75935e-09
-1.92974e-09
2.70448e-09
-3.32639e-09
2.62979e-10
-4.11601e-12
-5.30995e-12
1.62512e-10
-1.43529e-11
4.69043e-11
2.08607e-10
6.14687e-13
-2.00599e-11
3.42331e-11
-3.87381e-12
-3.478e-11
9.76187e-11
1.5789e-10
-1.37272e-11
1.58104e-10
-1.75407e-11
-1.02468e-11
-9.99766e-12
8.35774e-12
6.70461e-12
1.40551e-11
9.21203e-12
-3.46144e-11
1.56263e-11
-9.98923e-13
-3.47193e-12
-1.067e-11
-2.38217e-11
2.73908e-11
1.56894e-11
-7.09266e-13
2.45321e-11
3.39583e-16
3.09835e-16
4.22743e-16
-9.47976e-16
-5.1378e-18
4.27046e-16
7.27334e-17
4.86601e-16
3.82431e-18
-8.70961e-15
-6.63879e-16
1.00051e-14
-1.95487e-14
1.08754e-14
6.9197e-16
-1.97248e-14
6.32332e-16
2.43504e-11
-1.98741e-11
-6.14774e-12
6.70374e-14
-3.05898e-10
-4.13563e-11
3.58475e-10
-1.40417e-10
-1.94642e-11
8.94978e-12
1.12526e-11
-3.7809e-11
8.91175e-12
6.34404e-15
-7.63557e-11
8.78798e-11
-2.2115e-10
1.20867e-11
-2.53254e-11
-4.64025e-11
1.17937e-11
-6.18913e-11
-1.17025e-10
-1.60929e-10
-5.11692e-11
2.4748e-11
-3.31009e-10
-1.54602e-10
-3.30689e-10
1.16822e-10
-2.02535e-12
-9.65587e-10
-7.7408e-10
-1.33595e-11
2.62161e-10
7.10746e-11
-9.43799e-10
1.96495e-11
-2.87423e-11
-8.12181e-12
4.88275e-11
5.19616e-11
-1.51882e-09
2.66845e-10
7.36157e-10
2.1787e-10
2.28999e-10
-1.06574e-10
2.31375e-10
-3.129e-17
-4.0391e-17
1.02951e-17
1.36716e-17
-3.89239e-17
-3.60973e-16
1.52802e-16
-2.77047e-16
-9.40426e-18
6.59403e-15
-8.11458e-16
-6.37398e-15
4.65484e-17
6.35453e-15
4.34981e-16
-1.73909e-15
2.81741e-16
-1.76635e-24
1.83036e-24
7.97642e-23
-9.48487e-23
1.49131e-24
-2.62685e-24
4.37781e-25
5.3652e-25
-4.60906e-21
-1.20775e-23
4.66024e-21
-1.54741e-22
-4.62785e-21
-2.31485e-23
-3.79983e-26
9.85757e-24
3.57228e-24
-1.88368e-22
1.77252e-24
-2.02605e-24
1.21695e-24
-4.66055e-29
6.33592e-29
-1.15276e-27
7.22638e-28
3.41107e-29
-3.44451e-29
2.00422e-29
1.79686e-29
2.13341e-26
-5.11577e-28
2.78179e-29
2.18374e-26
2.64109e-28
-8.72084e-28
2.64925e-28
1.60368e-43
-1.53063e-43
-9.81909e-45
9.36929e-46
9.76432e-44
-8.30237e-45
5.30198e-44
-3.90249e-43
-2.10338e-41
1.1146e-44
5.93188e-44
-8.10721e-44
1.18866e-44
1.88584e-47
-7.55646e-44
3.57051e-44
-4.37514e-43
5.11705e-08
1.09238e-08
-5.39487e-08
-8.14554e-09
-5.54913e-08
3.77143e-08
6.89475e-08
1.22401e-07
-1.66969e-07
3.97731e-08
-6.02537e-08
-3.34681e-08
3.89527e-08
3.85346e-08
-5.42115e-07
2.16827e-07
4.4769e-07
3.29231e-08
-7.42007e-07
-1.56104e-07
4.11884e-07
-1.83435e-07
2.22495e-07
1.85745e-07
-4.11016e-07
-5.31066e-11
-1.1723e-06
-3.49231e-07
1.74236e-06
-2.42716e-07
-7.56284e-07
3.61461e-07
1.40523e-06
-2.11274e-06
1.26661e-06
-1.31506e-06
-1.49555e-06
2.64425e-06
-4.23433e-07
4.18193e-11
9.08423e-12
2.14843e-11
-8.93785e-11
1.53917e-12
1.7279e-11
2.08445e-11
3.18503e-12
5.98401e-12
7.20337e-12
5.80509e-11
-5.86343e-10
-1.82455e-11
2.68375e-11
-1.33136e-10
-1.35872e-10
4.03925e-10
-1.03265e-10
-1.91013e-14
-9.75558e-11
2.2721e-11
-1.55559e-10
6.81953e-07
-6.25596e-07
1.68103e-06
-6.29864e-07
-3.36745e-06
2.21985e-09
3.4291e-09
7.7136e-09
-1.8446e-08
-1.2651e-09
2.95336e-08
-1.98047e-08
6.68029e-09
2.36188e-08
-5.75002e-10
1.26608e-09
2.06415e-08
-2.94217e-09
-5.55214e-09
-4.20977e-09
2.1793e-08
3.11475e-09
-3.96175e-27
-3.92418e-28
-4.06653e-28
2.38059e-27
2.58453e-28
-6.72149e-27
-1.28884e-26
6.67962e-29
-4.34234e-27
4.02292e-27
-3.79502e-27
-1.30523e-26
-1.1294e-27
2.38329e-27
-2.9296e-27
1.49255e-28
-1.28982e-26
1.72557e-06
2.15751e-07
-1.99926e-06
-3.85788e-08
-2.77885e-07
-3.06833e-07
2.22526e-06
-4.75339e-08
-4.23886e-09
2.92895e-07
-7.07995e-08
-2.10408e-06
-4.13865e-08
4.22508e-08
4.43105e-08
1.91301e-08
-1.06506e-07
4.71766e-08
-2.6729e-12
-3.83241e-09
1.0976e-08
-5.48059e-08
4.99268e-20
-3.37777e-18
1.50789e-18
5.60509e-20
-3.81298e-18
1.576e-18
2.77125e-19
3.6792e-18
-1.22193e-17
-1.70316e-18
-8.02507e-19
2.60236e-18
-2.54252e-18
-1.15059e-19
-6.59386e-19
4.92087e-19
-1.1488e-19
6.2119e-09
2.04062e-08
5.6883e-09
-3.68675e-08
2.98763e-09
5.49282e-10
3.0086e-11
-2.01533e-09
1.97809e-08
-8.27503e-10
-6.75133e-09
7.47251e-09
-4.45798e-09
2.3289e-09
-6.31204e-09
-1.68663e-09
-9.20138e-09
3.18859e-09
4.0133e-08
-2.35377e-08
1.1426e-08
-1.05898e-08
4.055e-09
1.09876e-08
-1.63566e-08
3.34821e-09
-1.44296e-09
3.21438e-09
1.3573e-09
1.50666e-08
2.69838e-09
2.26931e-09
-5.56268e-09
3.81359e-09
4.87792e-10
-1.54675e-09
-7.11533e-09
-2.19465e-08
2.19475e-09
8.92243e-10
-6.57992e-09
4.4333e-09
6.4188e-09
-2.11004e-11
9.84946e-08
6.68549e-10
1.37983e-08
1.23965e-09
-2.92883e-09
-4.65353e-09
-2.054e-09
3.47542e-09
5.46035e-09
3.84039e-09
-7.77302e-09
7.71299e-09
1.71614e-08
-1.99826e-09
9.89615e-09
-8.4724e-10
-1.12701e-09
-1.55497e-08
-4.85388e-08
6.52154e-08
-8.63416e-08
4.13794e-08
4.38352e-08
-1.6533e-08
-8.53583e-08
-4.1308e-08
-1.57549e-07
2.40236e-07
-2.19491e-07
1.29644e-07
-1.40939e-07
-3.31434e-08
-4.45787e-07
1.06903e-07
1.17149e-07
-2.57521e-07
-2.09472e-08
5.23888e-08
7.54618e-08
8.80567e-08
4.02779e-08
1.16726e-07
1.31201e-07
-1.09317e-07
-1.08026e-07
6.29227e-07
-1.10323e-07
1.32207e-07
-1.42887e-07
-5.83843e-07
-7.51228e-08
5.03731e-07
5.42565e-07
-8.59078e-07
1.30975e-06
-4.58728e-07
-2.90051e-07
4.39403e-07
1.47102e-06
-1.81259e-07
8.03153e-09
6.19549e-07
-4.68652e-07
1.79032e-06
2.06276e-06
-2.32968e-06
2.22268e-06
3.68267e-08
-2.97589e-08
9.23421e-10
-1.01799e-08
-2.26059e-07
2.91643e-10
2.86948e-07
-5.38878e-08
-2.58676e-07
-1.51495e-07
-1.01636e-07
2.82484e-07
-4.66853e-07
2.49219e-07
-8.40684e-08
1.21682e-07
-5.52318e-07
-1.64873e-17
-1.71564e-18
-6.38691e-18
7.983e-18
2.45666e-18
-9.25379e-17
-1.17193e-17
-3.27515e-19
4.92749e-19
-5.27919e-17
3.08e-16
-1.29462e-15
3.51581e-18
-6.9789e-17
-2.88823e-18
1.53577e-17
1.32477e-16
2.87586e-19
2.03628e-19
2.04729e-19
-3.22902e-19
-2.21065e-18
1.27489e-13
-1.51171e-14
-1.31273e-13
-9.79337e-15
-1.83347e-13
-7.33706e-13
1.27128e-12
-4.38659e-15
-2.37428e-13
-5.4379e-13
9.17312e-13
-1.24583e-13
3.44806e-13
-1.18667e-12
-1.80566e-13
2.079e-12
-1.47817e-15
-1.85149e-11
-5.15053e-11
1.9857e-11
5.20602e-11
-7.59505e-12
1.1219e-10
4.01223e-11
-5.91149e-11
-1.43791e-11
3.14634e-11
-3.56064e-10
4.85946e-10
-5.34393e-11
2.27239e-10
-1.1151e-11
-9.55931e-12
-3.34843e-10
-8.37372e-13
-3.24363e-11
1.71938e-11
-6.6601e-11
2.70656e-11
1.6507e-05
4.61297e-07
-1.66129e-05
-3.41689e-07
-2.48621e-05
-6.88513e-06
4.84048e-05
-2.75867e-05
3.17791e-06
7.70245e-06
2.91991e-05
-5.3897e-05
7.37778e-06
-3.24273e-09
4.94405e-07
-1.57191e-09
2.03048e-06
7.25783e-07
-5.26532e-05
-9.34931e-07
5.28521e-05
-5.35397e-05
5.22025e-05
2.06351e-06
5.12027e-05
-0.000157395
5.44677e-05
-5.23067e-05
-3.09668e-06
-5.18573e-05
0.000159177
-1.82954e-06
2.17443e-06
-2.93291e-06
-3.44519e-26
1.48536e-26
-9.78996e-30
3.18855e-28
5.89418e-25
-1.47938e-26
-7.58732e-24
1.17043e-29
6.03814e-25
2.90529e-29
3.11525e-32
-1.02593e-28
4.15929e-29
3.24122e-29
4.32899e-28
-1.52332e-26
1.57152e-28
2.37217e-30
7.51108e-32
3.01836e-32
-2.513e-30
1.22186e-29
1.17394e-28
-1.07901e-26
1.21343e-30
5.32022e-30
-1.04437e-32
2.91637e-30
9.48642e-29
9.43233e-33
-2.18736e-32
1.20434e-30
1.49642e-32
4.46157e-30
-4.59956e-36
4.55771e-36
3.46767e-38
-5.52472e-40
2.6756e-35
-3.82577e-36
-2.83489e-35
-2.22074e-38
2.79805e-35
-9.87206e-40
4.05795e-39
2.03966e-39
1.21118e-40
-5.52831e-39
1.2872e-37
-3.95824e-36
8.07887e-38
1.28714e-45
4.28831e-48
-1.19535e-47
1.0926e-44
-2.43664e-47
-4.83747e-50
1.30408e-45
2.40144e-50
-1.41393e-48
7.11792e-49
-4.84043e-48
-8.23239e-48
-2.24152e-49
3.1422e-49
-7.00018e-49
4.11907e-49
9.3558e-52
7.8776e-49
-1.22616e-47
-8.16105e-49
5.83633e-49
-1.47341e-47
1.0878e-49
4.06983e-51
-6.55277e-53
-8.28103e-49
-1.1625e-51
-1.64232e-54
3.15357e-51
7.56051e-55
-5.03936e-55
-1.18769e-55
9.2879e-56
7.4393e-57
3.15403e-56
-1.31091e-54
-2.55994e-54
3.53304e-55
-6.87716e-53
-8.068e-62
-7.71928e-63
8.9803e-64
3.27282e-63
4.83505e-61
1.58678e-61
-5.52444e-60
1.56695e-62
-8.11435e-63
1.38126e-63
-3.87796e-63
2.23261e-64
-1.98896e-63
3.48734e-63
1.87662e-62
2.79473e-62
2.06356e-62
1.48028e-62
2.65153e-61
-1.03092e-62
-3.78612e-60
2.94255e-57
-1.75804e-57
8.69406e-57
-1.58169e-59
7.9702e-58
-1.65105e-60
1.44211e-60
3.98231e-58
-4.05491e-58
2.48277e-59
-1.42e-57
1.81308e-62
9.80995e-60
-1.4146e-59
6.18633e-62
1.69672e-60
-4.39479e-58
2.55031e-58
1.79003e-58
1.0119e-59
-4.83992e-58
1.62148e-61
-3.9808e-61
6.47309e-63
-3.27979e-60
2.84339e-60
-7.72453e-60
1.66684e-58
1.23216e-60
2.96563e-65
6.91472e-65
2.78849e-65
-3.45374e-64
9.52205e-64
1.53538e-61
-1.54625e-61
6.84665e-65
3.48171e-66
6.57717e-59
5.41215e-58
-6.05802e-58
3.50849e-59
-3.66547e-60
-7.02688e-58
-3.4904e-58
-7.51748e-62
-3.6873e-61
4.0078e-61
1.07553e-62
1.65169e-58
1.21671e-58
-4.16341e-63
1.89617e-57
-1.48312e-64
-5.26445e-63
-9.6804e-53
-9.28261e-52
-9.49572e-52
1.96376e-51
-8.94416e-53
-7.72985e-54
-6.90279e-57
-7.95134e-52
-2.7152e-52
2.52886e-52
-2.59754e-52
-1.98168e-54
-5.22575e-50
5.1535e-50
-1.16439e-50
-4.3108e-48
-1.22583e-50
1.46069e-56
2.80645e-55
-7.29964e-55
-6.70873e-56
2.15226e-56
-4.20621e-56
6.84371e-57
-4.67546e-55
6.13803e-55
6.88968e-54
6.59824e-55
-1.00585e-53
2.81106e-54
1.51171e-54
-8.89754e-56
5.96643e-55
1.27568e-55
-1.20837e-55
1.79682e-59
-7.32198e-58
-3.26561e-49
-8.11469e-53
1.82674e-48
-1.63779e-48
3.74688e-49
3.82735e-48
-5.84628e-48
3.38659e-49
9.13314e-52
-5.81958e-47
-9.34467e-51
5.9922e-47
-8.85607e-49
-5.90311e-47
-1.83579e-49
-1.9146e-49
1.32662e-49
-9.34361e-48
8.05841e-48
4.50839e-48
-1.11297e-47
4.55153e-48
-5.14709e-47
-1.5535e-44
2.55389e-46
1.93286e-47
-7.14135e-47
-1.31204e-44
-6.77306e-45
-1.13008e-43
-4.76798e-44
-1.26125e-43
-6.51386e-46
-6.87848e-45
3.61683e-46
3.98446e-44
-4.06272e-44
-9.74364e-44
-1.18107e-43
4.49218e-41
-4.34296e-41
-3.54935e-42
7.82897e-42
-5.71338e-42
-4.45047e-42
-7.69072e-38
-1.5314e-38
-3.10559e-42
-1.16103e-40
-5.95766e-43
8.9167e-41
-1.00886e-40
9.55268e-38
-1.04464e-36
9.37769e-39
5.18884e-33
-1.16689e-31
-7.53222e-29
7.49965e-29
-7.91055e-32
7.31215e-32
6.24387e-33
4.92711e-31
-9.09119e-31
2.15359e-28
-3.19293e-29
-2.83377e-26
-9.53462e-32
2.38903e-28
1.62525e-30
-1.03525e-29
-2.47198e-29
-4.01888e-31
6.32876e-31
-2.5468e-30
1.14668e-30
-5.78584e-29
-2.19201e-25
-2.29468e-26
2.03933e-25
7.10364e-27
2.61314e-25
8.7422e-24
-9.33025e-24
-3.38388e-24
3.46344e-24
2.04011e-23
-7.73278e-23
-1.036e-22
-1.68977e-24
4.87398e-25
5.06687e-24
-7.46514e-23
1.75238e-24
4.72666e-22
1.68205e-22
-2.30823e-21
-4.50604e-22
-4.44894e-22
-2.33579e-22
4.1708e-22
-3.12124e-21
9.15358e-21
5.69017e-21
-1.90198e-20
-6.68986e-22
-1.29909e-19
-5.10167e-21
3.58767e-21
-1.4378e-20
2.25378e-21
2.04158e-21
-5.62034e-21
2.34652e-22
2.83092e-21
-3.73126e-20
3.6036e-20
4.79126e-21
4.18116e-23
1.47095e-19
-2.22043e-19
2.88297e-21
8.0502e-22
1.54367e-19
-1.87297e-19
6.08049e-20
-9.62299e-19
-4.03053e-23
-4.79901e-23
1.88064e-23
1.40699e-23
-2.60801e-23
-3.13946e-22
-3.85337e-22
-5.89681e-25
1.93726e-23
4.1138e-24
-1.33669e-18
-6.97528e-19
2.93314e-20
6.73804e-19
1.06944e-18
-1.03918e-17
-5.58017e-18
-6.17313e-18
1.33608e-18
1.05853e-16
4.70582e-18
-1.21303e-16
1.30161e-18
9.90362e-17
9.29584e-18
-2.43828e-17
9.32032e-18
-3.55236e-17
-2.05502e-16
-1.42755e-17
7.98422e-17
1.40152e-17
-6.08395e-17
-4.76651e-18
1.19664e-16
-6.42085e-16
-5.29383e-16
7.02423e-17
3.69506e-16
-5.1774e-17
-1.98224e-15
2.43662e-16
-4.19505e-16
1.31525e-16
2.63965e-13
-1.36003e-11
-7.59011e-11
1.82492e-11
-6.53665e-12
-8.18866e-12
7.08173e-12
-3.93346e-11
-1.81609e-11
5.77953e-11
1.52324e-10
-8.6665e-10
3.78875e-11
-4.61823e-10
-2.17642e-11
-4.63904e-11
-3.28419e-10
-3.74471e-15
-1.28729e-15
-1.95241e-15
9.23266e-15
5.01026e-15
-2.62839e-15
-4.5288e-17
-5.13039e-17
6.91063e-15
-1.91992e-16
3.16073e-15
-1.79667e-15
7.64188e-17
-4.53397e-20
2.51461e-17
-3.53161e-20
2.41974e-15
3.74755e-19
2.3616e-19
-2.35972e-19
-5.85322e-20
-5.6035e-19
-3.15412e-19
1.23323e-18
-1.823e-18
1.66698e-18
1.38039e-19
2.61096e-19
-4.92879e-19
1.76226e-19
-2.93769e-24
2.40302e-20
2.33302e-19
6.47728e-20
1.01992e-19
1.61601e-19
-1.06561e-19
-5.97042e-20
-1.52038e-18
-7.87725e-18
-1.52627e-18
2.42022e-18
7.01999e-18
3.24388e-18
3.21714e-19
-1.06076e-17
-2.99192e-21
1.1487e-18
3.8081e-19
1.00976e-20
-6.92046e-20
-3.43e-21
2.56823e-18
7.12973e-21
-4.54194e-23
1.04177e-18
4.90014e-29
4.11671e-29
2.41341e-28
-4.65582e-28
-8.74154e-30
6.42798e-30
2.9432e-29
-9.20271e-31
1.13331e-29
2.30769e-30
-2.23098e-29
9.46769e-30
-1.39206e-30
2.41784e-30
-6.19026e-30
1.61178e-30
1.9473e-28
5.28293e-34
-1.76681e-33
-6.15015e-33
6.50091e-34
-5.18729e-33
-9.3051e-32
2.3431e-32
-5.27167e-33
-3.42227e-32
-7.6281e-32
-2.23417e-31
2.86809e-31
-6.04171e-31
-1.23661e-30
5.08881e-32
-3.18312e-31
-1.66683e-30
3.98704e-25
2.22527e-26
-2.20813e-26
-6.1639e-24
-2.73554e-27
2.77186e-27
3.8489e-25
4.12248e-27
-9.46331e-28
-3.12361e-27
-9.89632e-28
1.78102e-27
-8.51488e-27
-1.37058e-27
1.84874e-26
-1.71011e-25
2.1867e-27
1.08446e-18
-2.64108e-18
-1.59636e-18
1.08321e-18
-7.33915e-18
-3.6301e-17
1.40848e-17
-1.47908e-17
-7.46432e-18
-1.33291e-17
-2.06757e-18
1.09285e-17
-2.94197e-17
-7.29949e-17
6.20211e-17
-1.00286e-16
7.65833e-19
4.41836e-13
3.6535e-14
7.27198e-13
-1.16358e-11
-1.5799e-14
7.81888e-14
-2.53866e-13
4.89386e-15
7.68161e-15
1.09633e-15
-3.27133e-15
2.60691e-16
-2.16142e-15
2.43112e-15
4.39951e-14
1.42459e-13
-1.59213e-12
7.92859e-15
2.54914e-13
1.68471e-15
8.94036e-15
-6.92418e-15
-9.98671e-19
-9.9439e-23
1.22131e-20
9.85993e-19
-5.2385e-24
-2.73257e-18
-1.12619e-21
-1.93106e-23
3.16199e-23
-1.7211e-22
-5.82694e-21
4.29915e-23
-1.98908e-22
1.04705e-20
1.35111e-19
-1.46133e-19
1.09375e-20
-7.54193e-22
1.07543e-18
-3.74659e-18
2.46867e-19
1.80947e-15
6.16977e-18
1.82628e-14
-2.02723e-14
1.69932e-18
1.77054e-17
1.48646e-15
8.19424e-19
6.04691e-18
5.5483e-19
-2.80153e-19
-9.39472e-22
4.908e-19
9.51277e-19
2.58935e-18
4.6342e-17
1.797e-14
5.53783e-18
7.49758e-18
-5.47496e-18
4.83003e-17
-6.5822e-19
-2.96709e-21
-8.57657e-19
1.07652e-19
-6.27526e-20
-1.54791e-22
2.51055e-20
-1.31365e-19
-2.01481e-19
2.26076e-21
-4.35052e-21
2.74982e-19
-2.13356e-18
2.78482e-19
-3.57606e-20
4.77043e-17
1.90976e-14
1.25577e-16
-1.66086e-15
-1.76048e-14
-5.00028e-18
5.04189e-19
4.55145e-19
-2.64885e-19
-7.02651e-21
1.56479e-21
-8.36021e-18
9.02368e-20
-1.6697e-15
-3.44684e-12
2.35557e-10
-1.50299e-10
-1.16302e-09
-1.74564e-10
1.3794e-11
6.36978e-11
-6.63887e-10
3.77859e-10
-2.78806e-09
-8.07472e-10
-1.93463e-09
-2.44842e-09
5.74223e-09
-7.75769e-10
-4.72724e-09
-1.87989e-09
-2.41168e-11
-5.11967e-09
-4.56721e-09
-2.84738e-11
-9.80536e-09
-5.44772e-11
-5.60457e-09
-1.10528e-10
-1.89386e-10
1.14238e-08
-1.4307e-10
2.05337e-09
7.40685e-10
-3.65351e-09
2.26929e-09
7.28646e-08
-1.48474e-08
4.961e-08
1.57042e-07
-1.33437e-08
-1.48463e-09
-1.19532e-08
3.23519e-09
4.74817e-11
-1.84222e-08
1.47306e-09
-5.92465e-10
-6.94671e-11
2.65811e-09
-1.14194e-08
5.05969e-09
2.65195e-08
-2.22969e-08
2.81501e-08
6.39071e-08
2.10357e-09
-1.23769e-07
1.66372e-08
-8.92263e-08
1.50235e-08
4.96939e-09
-1.07288e-08
5.38981e-07
-1.28545e-06
1.19891e-06
-1.02523e-06
9.56337e-07
6.30856e-07
-1.02687e-06
-1.21118e-06
8.50274e-07
1.48561e-07
-2.07242e-06
-6.01624e-07
2.80605e-06
-2.4102e-06
4.16928e-06
1.21474e-07
7.33856e-08
-2.33947e-07
5.95657e-07
8.29671e-08
-5.76883e-08
-1.74263e-07
1.48984e-07
-3.62972e-08
-1.04295e-07
2.23559e-07
-4.02137e-08
-5.37718e-08
-3.92577e-08
1.04698e-08
-1.14259e-08
-4.4697e-09
-8.85597e-08
-1.32047e-07
3.82217e-08
-3.10779e-07
-2.10027e-08
4.10885e-08
-1.0663e-07
8.65439e-08
3.44586e-08
-2.26972e-08
-3.27641e-08
3.69556e-09
7.18516e-08
2.65369e-08
1.90164e-08
-1.52183e-07
-9.70841e-09
1.35481e-08
2.18083e-07
-1.58098e-07
-5.6289e-08
-6.49089e-07
9.39024e-07
-2.40553e-07
7.2746e-08
-8.70599e-07
-2.78827e-08
-3.31361e-07
-4.70987e-08
-5.30643e-07
-2.08744e-09
1.99027e-08
2.98634e-08
-4.76786e-08
8.6287e-08
-4.61491e-08
-4.22253e-08
5.35327e-09
1.00836e-07
-5.78892e-08
1.80327e-07
-9.2574e-08
1.21683e-07
-2.25721e-07
1.35178e-07
-8.32763e-08
-4.6548e-08
1.23128e-08
2.23701e-07
-2.30446e-07
4.23085e-07
-1.92039e-07
2.65258e-09
-2.01947e-08
1.86512e-08
-1.10905e-09
8.60989e-09
-3.61344e-08
3.01771e-08
-2.30108e-08
4.95133e-08
-1.27416e-07
4.1768e-08
1.06386e-07
-5.06665e-09
-1.06504e-07
-4.43262e-07
-2.9907e-08
1.01544e-07
4.20381e-08
2.49968e-07
-4.37247e-08
1.579e-08
4.33635e-08
-1.54288e-08
1.31626e-07
1.94529e-08
-1.94804e-07
4.94651e-08
9.79512e-08
-3.60624e-08
1.89402e-07
-1.09976e-07
1.34167e-07
-1.50777e-07
1.42332e-07
4.13004e-08
4.29685e-07
-9.93137e-07
1.53918e-07
3.96176e-07
-6.56562e-08
5.3611e-07
-1.45507e-06
4.17134e-08
-1.43943e-07
4.09358e-07
-2.61033e-07
5.40176e-07
3.10529e-07
-3.46767e-08
5.14702e-07
1.02508e-06
-7.4261e-07
-6.05907e-07
3.4162e-07
-1.39097e-06
1.52009e-06
9.07531e-07
-1.11815e-07
-1.04163e-06
2.63086e-07
-1.69237e-07
2.34909e-07
9.44223e-07
9.06748e-07
-7.76035e-07
1.49458e-07
-1.97588e-07
7.36573e-07
1.20471e-08
-4.84444e-07
1.85512e-06
-1.61517e-06
-3.52415e-08
1.19874e-06
1.47396e-06
-1.25506e-06
2.0314e-07
2.26692e-06
-3.80038e-07
6.41186e-07
1.23611e-06
-2.44083e-06
9.18195e-07
4.03163e-09
1.26249e-09
-7.71489e-09
2.70879e-09
-8.71852e-10
-1.49568e-09
6.66982e-09
-2.20978e-09
2.54012e-10
6.7558e-09
-6.61045e-09
-3.39739e-09
-2.57438e-09
1.15562e-08
4.20488e-09
-1.6267e-08
9.25862e-11
9.36057e-12
8.81084e-12
7.00251e-12
-3.58694e-11
4.10146e-13
-8.7593e-11
8.90601e-11
3.38062e-12
6.41234e-13
1.34029e-09
-7.95876e-10
-1.18654e-10
-2.57497e-11
1.67897e-09
-5.74043e-11
3.12936e-11
-8.50103e-10
-1.17519e-10
-3.35835e-10
-3.56298e-10
6.115e-10
-1.77626e-10
-3.73922e-10
2.72053e-10
-3.95572e-11
-6.63741e-10
-1.85079e-10
-8.12506e-10
3.74496e-10
-3.79248e-10
-3.8737e-10
-4.76789e-10
-1.7564e-10
-1.66195e-09
-1.11309e-12
4.11648e-12
-4.55256e-12
2.09112e-12
9.40442e-12
-4.82528e-12
-1.19821e-12
-7.67816e-11
9.08407e-11
6.40797e-12
3.4523e-12
-1.34962e-11
1.34411e-11
-5.65511e-12
2.71053e-12
2.90813e-12
3.50615e-13
4.688e-12
1.21087e-11
-3.12564e-12
-5.11909e-11
-4.69051e-12
-3.61699e-15
-1.01286e-14
2.07136e-15
5.20201e-15
-1.54223e-15
-3.31638e-16
-3.47409e-15
-1.36757e-13
7.79239e-14
2.0374e-12
-4.87663e-13
2.5548e-14
2.05587e-12
1.15994e-13
-9.08598e-17
-9.09172e-13
-3.4638e-16
8.39419e-14
3.29121e-16
-1.24969e-15
1.55955e-15
8.36262e-09
2.94056e-09
-9.78918e-09
-2.89266e-08
6.10159e-10
2.51592e-09
3.64015e-10
1.63249e-10
9.84631e-10
7.17226e-11
-1.37674e-09
-9.71235e-09
2.54843e-10
1.04169e-09
1.50194e-10
-3.20209e-09
6.69314e-10
4.52657e-24
2.36509e-24
3.32923e-23
-1.41152e-22
-1.24001e-24
6.35221e-25
4.14677e-25
2.8269e-24
-7.34296e-24
1.08319e-25
-3.40326e-24
1.39122e-24
-6.85348e-25
3.97667e-25
-1.8245e-24
2.61472e-23
-1.77826e-21
-3.86394e-22
2.61374e-22
1.57828e-21
1.03307e-21
-5.41761e-22
-3.47783e-21
-2.15628e-21
3.38096e-22
-2.96489e-21
-4.81178e-22
2.38742e-21
9.5916e-22
-6.17666e-21
3.11979e-21
-5.54927e-21
1.22721e-21
5.17119e-23
9.58738e-24
-6.49804e-23
-7.30997e-24
5.70601e-23
-2.96099e-25
1.00483e-24
4.05798e-25
1.9338e-25
-1.23505e-38
1.19909e-38
5.23779e-41
-2.7082e-39
2.8459e-37
-8.95337e-38
-2.2075e-37
-3.40813e-39
2.47067e-37
-1.37918e-39
2.66873e-40
1.7304e-40
-6.85254e-41
-2.00327e-38
3.78736e-39
-9.43009e-38
3.84738e-40
-3.21316e-44
-1.4328e-42
-8.20839e-44
1.5434e-42
-3.12615e-44
3.20552e-46
-1.35411e-45
-1.36391e-42
-2.34331e-42
-2.35782e-45
2.66899e-45
4.46353e-48
3.92349e-44
-4.30286e-44
1.68078e-42
-9.42147e-42
5.0345e-43
-4.49143e-58
1.5009e-59
3.3267e-58
8.47765e-59
2.06276e-56
6.45497e-56
-6.82676e-55
2.55614e-57
7.6727e-59
1.01845e-57
3.58324e-56
2.70046e-56
1.32707e-57
1.40625e-59
-1.74202e-56
1.02587e-56
8.22199e-57
-1.86082e-67
-2.33786e-68
3.13031e-69
3.01327e-68
3.01943e-66
3.04008e-67
-1.96916e-65
4.40408e-66
-8.10673e-66
7.01512e-69
-4.1285e-68
1.19702e-69
-3.93691e-68
2.6091e-68
5.07241e-68
1.58275e-67
4.30657e-66
4.45724e-63
7.13558e-62
-9.58822e-62
-6.52775e-65
2.3584e-56
-6.47122e-57
-4.1641e-56
-7.48333e-59
1.2673e-56
7.95968e-62
3.1482e-60
-3.48911e-60
7.93778e-62
7.47813e-59
-6.54675e-57
7.79605e-63
-9.94087e-69
-1.78885e-60
-1.14581e-59
1.32383e-59
1.20429e-69
-2.7667e-70
-1.66308e-67
-1.1428e-59
6.88526e-61
-1.98503e-67
1.01665e-67
7.11898e-70
5.29347e-66
-5.73859e-66
2.14443e-59
-3.28722e-59
2.45122e-60
1.89503e-59
-9.65526e-60
5.35236e-66
2.4155e-64
-2.52969e-64
4.07758e-66
9.51181e-67
-1.02748e-56
1.02938e-56
-1.264e-56
-6.35928e-55
3.58377e-60
-2.70839e-60
3.99873e-61
-2.12528e-59
-9.60644e-60
-3.37213e-60
1.47568e-59
-3.62923e-59
-1.31161e-57
5.73699e-59
1.21492e-57
2.00952e-58
-1.59897e-57
-1.00529e-59
1.65282e-61
1.43091e-58
1.78751e-58
-9.76667e-64
6.39689e-63
3.72167e-63
-4.16788e-50
2.57349e-50
1.34383e-50
8.14916e-52
-4.34755e-49
1.66004e-46
-1.65751e-46
1.79852e-47
-2.05693e-47
-4.35237e-45
-4.2469e-47
2.60151e-45
-4.47068e-45
-6.37591e-47
3.34228e-46
-4.78919e-45
5.03135e-49
-2.1992e-47
-2.72721e-47
-3.90709e-48
-1.14239e-49
-6.91414e-46
6.30454e-46
-3.4064e-50
-2.7564e-46
-2.67852e-46
7.15918e-48
3.87242e-48
7.44489e-46
-9.42908e-45
1.4036e-48
3.07683e-47
4.00063e-49
6.94203e-43
4.20621e-42
-3.9431e-42
-3.64558e-41
6.13931e-43
-1.08318e-42
5.84703e-44
-9.02179e-41
9.09035e-41
-7.30451e-41
9.87321e-41
-4.86032e-40
4.59555e-41
-1.05233e-39
-1.12808e-42
1.58065e-42
-2.19177e-40
-1.64326e-43
-2.23216e-41
-8.62232e-42
-1.4451e-40
-1.01623e-38
-1.45105e-37
9.24813e-38
1.27012e-38
-1.66781e-36
1.08571e-36
-5.07858e-37
4.90058e-35
-7.26236e-35
-4.29877e-35
-2.4556e-36
4.58626e-35
-2.98809e-34
2.54556e-34
2.86748e-36
-3.98074e-34
3.46023e-37
3.94461e-37
2.79285e-34
-2.07085e-35
-2.61815e-34
3.4131e-35
-3.38306e-35
-3.96472e-33
-2.74757e-32
5.13138e-34
-5.69099e-34
-2.45895e-32
-5.27567e-33
-1.65349e-31
5.09152e-31
3.29485e-31
-3.11268e-30
2.08456e-30
-1.42311e-31
-2.45075e-31
-1.55752e-31
-1.6956e-32
1.90116e-32
-1.70871e-30
-1.6717e-30
-7.94515e-31
-7.8994e-30
-9.28975e-31
4.04008e-27
-3.94675e-27
-1.05847e-28
6.88756e-29
-4.61267e-29
-3.80242e-29
-8.27067e-25
-3.71815e-25
-2.83185e-28
-5.76194e-27
-7.1469e-30
2.94296e-28
-6.41526e-28
9.18054e-25
-5.07524e-24
-3.50163e-25
-7.9646e-23
-1.80123e-22
-6.4502e-23
2.3568e-22
-4.22157e-23
-1.87154e-22
2.25518e-23
-6.58123e-22
1.72936e-23
-1.16369e-21
-3.4295e-22
1.33816e-21
-1.31111e-21
-1.05969e-22
8.57761e-21
-2.70333e-20
-2.00122e-20
-4.02854e-22
-1.79823e-23
1.49259e-22
4.66474e-23
2.87782e-22
1.14889e-21
-3.41887e-21
-1.62804e-21
1.67467e-21
1.60962e-20
-7.79864e-20
-3.87e-19
-3.5999e-21
1.39811e-20
-1.99439e-21
2.13975e-21
1.31623e-24
2.32702e-20
-2.41461e-20
7.36652e-20
-2.25462e-19
1.88854e-20
5.2295e-18
-5.70341e-18
9.06928e-17
-9.64266e-17
-5.20488e-18
1.27576e-18
6.1097e-19
9.13241e-18
-7.29013e-17
-2.75642e-19
-5.6238e-18
3.20249e-18
-9.05056e-19
-1.84628e-18
1.8433e-18
7.93885e-17
1.81556e-11
5.62714e-11
-5.1354e-11
2.21619e-11
-5.36964e-10
5.04175e-10
7.333e-11
3.31679e-12
2.04856e-09
3.36511e-10
3.23722e-10
2.64688e-09
4.20099e-10
3.93594e-10
5.93384e-11
-3.06943e-10
-8.80752e-10
-2.65369e-10
4.45026e-10
1.49723e-12
-7.05706e-10
-1.19449e-09
-1.4001e-10
1.19551e-11
-7.6021e-11
-6.11805e-11
-1.77027e-10
-1.9404e-11
9.43964e-10
-4.25889e-12
-1.0733e-11
-2.96616e-11
7.58706e-11
6.87332e-13
-1.48047e-12
-5.60562e-11
-8.68964e-11
1.55028e-10
1.80271e-10
-2.83594e-10
-7.76312e-10
1.46213e-10
-1.80626e-09
5.17611e-11
-2.09365e-09
3.97771e-11
7.98175e-10
-1.20133e-10
-2.25347e-09
2.34934e-10
2.23158e-10
3.38243e-10
5.54955e-10
-1.21123e-09
1.32046e-10
2.89283e-10
-5.96177e-10
5.18195e-10
-2.12475e-09
-3.00292e-18
-3.4341e-15
6.52119e-16
3.8229e-15
1.32851e-19