/*--------------------------------*- C++ -*----------------------------------*\
| =========                 |                                                 |
| \\      /  F ield         | OpenFOAM: The Open Source CFD Toolbox           |
|  \\    /   O peration     | Version:  v2012                                 |
|   \\  /    A nd           | Website:  www.openfoam.com                      |
|    \\/     M anipulation  |                                                 |
\*---------------------------------------------------------------------------*/
FoamFile
{
    version     2.0;
    format      ascii;
    class       volScalarField;
    location    "0.1";
    object      alpha.water;
}
// * * * * * * * * * * * * * * * * * * * * * * * * * * * * * * * * * * * * * //

dimensions      [0 0 0 0 0 0 0];


internalField   nonuniform List<scalar> 
6576
(
1
1
1
1
1
1
1
1
1
1
1
1
1
1
1
1
1
1
1
1
1
1
1
1
1
1
1
1
1
1
1
1
1
1
1
1
1
1
1
1
1
1
1
0.971125
0.818373
0.969787
0.592294
0.983817
0.999914
0.994925
0.999988
0.999988
1.96215e-59
1.97756e-59
1.42334e-59
1.88033e-59
5.49818e-60
2.47386e-64
2.27858e-59
1.11516e-52
5.461e-53
1.80151e-52
1.41616e-51
2.79661e-51
1.17898e-52
1.56251e-52
3.92998e-39
2.5713e-41
4.68571e-42
1.23437e-40
1.93206e-43
2.81265e-40
4.17408e-44
0.000269083
0.000632486
3.09048e-05
3.10719e-05
3.11772e-05
3.09048e-05
3.03586e-05
0.000469066
0.000934377
0.000340477
0.000633605
0.000316498
0.000176301
0.000120542
4.16237e-05
7.62361e-05
0.000117239
0.000390345
0.00102536
0.00015854
0.000259596
0.994687
0.982192
0.988858
0.706553
0.926315
0.9956
0.974453
1
1
1
1
1
1
1
1
1
1
1
1
1
-8.09813e-63
8.39544e-81
-1.98896e-63
1.08458e-80
3.04755e-81
1.28125e-35
2.53635e-18
0.580382
0.935379
0.973455
0.975827
0.920455
0.99997
0.995602
-1.00205e-101
-3.54738e-101
-6.32648e-119
-5.15328e-41
-2.02864e-41
-2.32147e-42
-1.13492e-42
1.10555e-26
4.82527e-27
6.74206e-27
1.72055e-26
1.98264e-26
4.5927e-26
3.84056e-27
1.68536e-22
4.60494e-22
3.12118e-23
4.4981e-20
3.60455e-23
3.34364e-23
4.27995e-23
1.10401e-24
7.24995e-25
4.36767e-24
3.85062e-25
3.70924e-25
6.15947e-25
8.12439e-25
5.59406e-20
6.0519e-20
3.90866e-19
2.01424e-20
3.01256e-20
3.49737e-19
1.02809e-17
6.92204e-20
3.32059e-19
3.4671e-20
1.89089e-19
1.50554e-19
1.99119e-20
8.00495e-21
6.40044e-20
2.77204e-20
2.80505e-16
7.26656e-16
2.90578e-16
1.07672e-15
9.80286e-16
6.34233e-16
2.24697e-14
8.93586e-16
8.72964e-16
9.49294e-06
2.92295e-05
9.25237e-06
2.20538e-05
4.4567e-05
4.30669e-05
1.94257e-05
2.22254e-05
4.49255e-05
1.0249e-06
1.18484e-05
3.09351e-05
3.19257e-05
1.55593e-05
3.33917e-05
2.18977e-05
6.36433e-06
2.5004e-06
1.22089e-07
1.36908e-07
3.23767e-06
1.21984e-07
1.21422e-07
1.17577e-07
8.90613e-08
2.82465e-07
1.18845e-07
1.19032e-07
3.36843e-07
1.22437e-07
2.48979e-12
4.03094e-12
2.86258e-12
2.94075e-12
3.14414e-11
2.86259e-12
3.92896e-12
8.96817e-09
4.67159e-06
9.51893e-06
5.8268e-08
7.76671e-10
9.50228e-07
1.75884e-06
5.18318e-07
1.37382e-06
1.17943e-06
6.84355e-06
3.99178e-06
9.79974e-06
9.36268e-06
9.29768e-06
5.01165e-08
2.4443e-06
2.48531e-05
3.1867e-05
3.11749e-06
4.58512e-06
5.6662e-13
1.40626e-12
2.45958e-12
2.86057e-12
2.86057e-12
3.71852e-12
4.06309e-12
1.47596e-19
7.90868e-20
2.89566e-20
5.2477e-19
9.33745e-19
5.35963e-20
3.91451e-19
5.35963e-20
4.04012e-20
6.75527e-24
1.87579e-24
1.75993e-24
2.02263e-21
5.40376e-24
2.17078e-24
1.92946e-24
2.62592e-41
5.73767e-40
4.8504e-37
2.62592e-41
3.99614e-42
1.42658e-39
1.06808e-39
1
1
1
1
1
1
1
1
1
0.992924
0.990674
0.992583
0.997079
0.99778
0.987522
0.840081
3.56105e-06
2.94928e-06
2.94928e-06
4.46374e-05
1.42563e-05
1.38089e-05
7.51933e-06
8.2271e-05
4.57682e-05
0.990678
0.997783
0.994987
0.000447477
0.00363897
0.00371549
0.000569562
0.00566846
0.00322267
0.000441714
3.53433e-23
7.34971e-23
3.06742e-23
9.06702e-23
3.2169e-23
1.66761e-23
2.70506e-23
0.109693
0.00946575
0.00107653
0.0649821
0.00142068
0.00132775
0.00108102
0.000521072
0.000421698
9.76926e-14
9.9648e-14
2.377e-13
5.42838e-14
9.51861e-14
5.42838e-14
1.64464e-13
0.0037687
0.000267843
0.000989383
0.000675611
0.000260009
0.000941372
0.00179537
0.00544811
0.000964212
0.00538866
0.00093757
0.0010369
0.00024162
0.000592088
0.000880062
0.000243302
0.000244092
0.00280433
0.000685676
0.000242274
0.000249295
0.000240055
0.000719138
0.000525373
0.000240599
1
1
1
1
1
1
1
1
1
1
1
1
1
1
1
1
0.978886
0.606457
0.988281
0.996782
0.995996
0.929341
0.982805
0.000357407
0.0112764
0.0237629
0.0489069
0.23754
0.00560077
0.000379158
1.80509e-13
7.38266e-13
7.48777e-15
2.66207e-11
2.5205e-14
4.51933e-12
1.21605e-14
1.05964e-14
2.99155e-13
4.37156e-09
6.37998e-09
4.37873e-09
7.37265e-09
5.07483e-09
8.08299e-08
4.318e-09
1.57776e-06
7.74615e-06
3.48069e-07
1.83488e-06
2.27703e-06
1.21103e-06
2.27995e-06
2.56896e-06
1.12395e-06
0.199826
0.386216
0.883066
0.538588
0.184786
2.43243e-05
0.278577
0.996136
0.996514
0.996514
0.995484
0.996414
0.996409
0.996514
2.04433e-23
1.32847e-20
2.36545e-24
5.74802e-25
2.29688e-24
9.09621e-25
2.69436e-24
4.08266e-28
7.30704e-23
3.60333e-27
4.08266e-28
3.54835e-28
2.28931e-29
4.88706e-26
4.53645e-35
4.78798e-33
3.00202e-34
2.07052e-34
4.53645e-35
4.53645e-35
1.49586e-34
3.54189e-42
2.80123e-44
1.81172e-44
3.36677e-44
3.23882e-44
8.04233e-45
1.83473e-43
3.11236e-44
9.92524e-43
3.82436e-45
5.20754e-48
6.46147e-49
4.04678e-51
5.09805e-51
5.10184e-51
8.61176e-51
1.32472e-57
1.0423e-55
9.14352e-57
2.72391e-58
2.06439e-58
3.44901e-57
9.73194e-58
1.73064e-56
1.41901e-53
1.13465e-56
7.67052e-57
1.58594e-56
2.85133e-55
1.50807e-57
2.01081e-56
1.49749e-55
1.79e-55
1.04337e-56
5.95506e-56
8.45635e-56
1.04337e-56
6.84169e-60
6.84169e-60
6.84169e-60
-3.732e-56
9.38414e-58
2.21137e-54
2.62321e-56
2.26219e-56
1.04337e-56
1.04337e-56
6.21996e-53
1.36466e-59
7.37816e-60
4.35415e-49
7.27182e-51
4.35415e-49
3.88448e-50
8.82716e-49
4.36052e-44
8.82716e-49
3.79051e-51
9.56237e-52
3.02058e-51
1.53048e-50
2.20987e-50
3.06745e-51
4.81609e-51
6.08988e-55
1.92132e-46
5.31012e-51
9.60961e-46
1.46591e-44
2.96944e-46
2.97074e-45
2.97074e-45
1.46835e-44
1.1125e-44
2.35053e-44
9.60961e-46
5.81563e-41
1.79334e-44
1.10783e-40
1.83196e-39
8.44403e-44
2.72711e-42
9.96976e-43
3.59795e-41
2.78486e-42
1.07978e-37
8.15553e-38
4.05811e-34
2.56613e-36
1.07978e-37
1.1308e-32
7.54837e-34
1.47729e-27
4.23373e-29
1.67437e-27
1.14924e-22
4.26978e-25
5.3097e-26
4.7178e-26
4.17644e-26
2.02265e-24
3.2882e-22
8.16224e-22
8.16224e-22
2.30028e-18
2.49677e-19
1.18976e-20
2.10261e-20
1.69159e-17
1.08346e-17
2.7641e-17
2.9408e-17
1.43182e-15
8.50038e-18
1.81704e-16
1.39891e-17
4.09408e-18
3.21368e-19
2.49946e-16
2.63919e-16
1.63249e-15
9.91884e-15
6.3703e-19
5.90771e-18
1.81398e-18
1.64565e-19
1.77264e-19
2.85033e-14
2.05682e-13
4.49222e-14
6.92905e-14
6.92905e-14
2.37584e-13
3.73216e-14
3.18114e-12
7.16017e-13
4.28582e-12
5.39291e-12
1.69635e-11
1.85403e-12
4.20447e-12
1.10704e-06
5.4889e-07
7.04738e-07
1.45433e-05
1.37165e-05
2.60706e-06
9.49796e-06
5.51073e-10
7.17586e-10
5.03005e-10
3.44212e-10
9.68308e-12
3.1412e-15
1.36622e-10
1.70112e-14
5.65292e-14
1.12654e-13
2.55633e-14
7.98062e-15
1.53554e-14
1.55211e-14
3.11206e-14
1.22279e-13
3.45396e-13
3.375e-13
1.34293e-13
7.58629e-18
8.26576e-14
8.35511e-19
5.06312e-14
1.31043e-24
3.02533e-25
1.50372e-25
1.38879e-25
1.20903e-25
1.38879e-25
2.59731e-25
1.02398e-28
6.95121e-28
2.49964e-28
1.02398e-28
2.40662e-26
3.94097e-28
1.57397e-26
6.4088e-20
2.97643e-22
1.64055e-22
1.34584e-22
6.03875e-22
6.48978e-21
3.81089e-22
1.66922e-13
1.39511e-12
3.9541e-13
2.37382e-13
7.4357e-12
1.11797e-12
1.90516e-12
5.55987e-07
7.50903e-09
3.19894e-10
2.60801e-10
3.00208e-10
5.75281e-08
2.84927e-08
4.05483e-09
5.80823e-10
2.12097e-17
8.73044e-12
2.12097e-17
1.04696e-16
2.14345e-17
4.47712e-17
2.31582e-17
3.41614e-15
2.65063e-14
3.83035e-12
5.25152e-12
3.88628e-14
3.30375e-14
2.3475e-13
1.0135e-11
3.29323e-13
1.83975e-13
4.05659e-14
8.33593e-14
2.57314e-15
4.274e-14
2.57314e-15
3.42195e-13
2.58661e-15
4.33237e-13
1.44623e-12
8.32462e-15
1.72935e-12
8.32814e-15
2.47647e-13
8.32814e-15
0.000300841
8.78918e-05
2.34465e-05
0.000108777
0.000849989
0.000238343
0.000239421
0.000242994
0.000233012
0.000377576
0.000229862
3.22337e-06
0.00270718
0.000163165
1.39321e-05
0.00050892
0.00151116
0.00318366
0.0621757
0.00342009
0.00088027
0.000423236
0.00037413
0.00908448
0.000246072
0.0656671
0.00037413
0.00208831
0.0421728
0.000247128
0.000470286
0.00023957
0.992602
0.985816
0.965218
0.925109
0.584389
0.953678
0.946557
1
1
1
1
1
1
1
1
1
1
1
1
1
1
1
1
1
1
0.999995
1
1
1
1
1
1
1
1
1
1
1
1
1
1
1
1
1
1
1
1
1
1
1
1
1
1
1
1
1
0.999979
0.998463
1
1
1
0.999899
0.999993
0.961961
0.982333
0.757516
0.988254
0.990877
0.924517
0.988613
0.938015
0.65823
0.977769
0.990068
0.988579
0.821601
0.97469
0.000917089
0.000349446
5.39052e-05
0.00118758
0.000634874
0.000172386
5.31808e-05
1.41312e-07
1.17396e-07
1.07779e-07
0.000209678
6.81553e-05
1.17396e-07
1.46065e-07
1.77603e-05
1.64608e-05
1.70888e-05
3.88479e-05
1.35494e-05
1.6203e-05
7.65443e-05
1.67807e-07
2.3249e-07
1.67967e-07
2.76772e-07
2.3568e-07
2.58884e-07
2.41232e-07
4.85772e-06
1.19843e-07
1.66456e-10
2.52547e-11
1.13884e-09
4.89339e-08
1.42717e-09
3.11641e-08
2.0697e-09
2.54513e-11
2.52548e-11
0.00100278
0.000145581
5.78697e-05
5.78691e-05
5.92743e-05
5.05425e-05
4.89643e-05
3.01076e-18
8.2061e-20
2.10341e-19
9.18353e-20
3.69559e-20
1.40667e-19
1.03783e-19
1.30637e-16
2.62018e-16
7.45375e-17
1.69831e-16
5.25507e-16
7.45375e-17
7.16771e-17
1.78075e-19
7.46903e-20
2.01424e-20
5.44543e-20
1.85981e-20
5.72453e-35
2.3201e-34
2.52907e-35
5.72949e-35
6.07675e-34
2.52907e-35
6.88138e-36
8.47718e-41
1.86825e-42
3.69756e-38
6.85156e-44
1.86825e-42
1.68973e-37
2.99252e-38
3.74151e-55
9.85243e-51
2.16607e-52
1.48697e-53
1.70655e-55
1.58692e-52
2.51107e-52
2.11216e-63
2.15143e-61
1.04626e-61
2.01629e-63
2.11216e-63
2.01629e-63
2.11216e-63
2.01574e-58
3.36441e-51
2.23666e-52
2.13662e-57
2.43523e-61
5.88101e-56
2.01102e-58
2.28488e-58
1.95959e-63
9.35297e-56
1.95959e-63
1.95959e-63
1.59201e-62
2.11596e-63
3.4965e-56
4.57634e-63
2.11596e-63
4.73721e-63
1.50896e-50
2.46368e-57
2.21824e-55
2.12791e-55
2.21824e-55
1.05926e-54
1.00695e-54
2.21824e-55
8.51124e-55
4.01069e-55
1.2005e-57
3.69024e-58
1.9417e-58
1.32312e-47
5.96773e-46
1.23585e-44
1.91141e-41
2.09916e-43
1.87232e-44
1.00611e-46
3.97163e-43
4.92085e-43
1.57278e-42
3.18978e-42
7.35622e-41
2.51157e-43
4.15119e-44
2.35457e-37
1.16312e-38
3.44814e-38
5.1378e-36
8.71145e-36
5.75611e-37
3.98326e-36
2.35426e-37
4.66122e-38
1.61729e-37
7.16194e-34
6.00209e-33
1.31989e-31
6.12444e-33
9.57846e-33
3.06788e-30
9.06455e-34
2.40974e-32
9.94658e-34
1.32781e-28
2.40974e-32
3.50751e-28
1.84459e-27
4.19358e-27
4.65659e-27
3.08639e-27
4.80849e-26
7.23757e-27
3.60972e-26
1.04784e-24
8.42494e-25
7.14202e-21
3.40998e-22
1.04784e-24
7.7704e-20
2.00094e-20
7.2692e-18
6.00315e-18
7.37541e-18
8.516e-18
5.0525e-18
2.31775e-16
5.86962e-16
7.74125e-18
3.00365e-17
8.00845e-18
8.78117e-15
5.88269e-17
6.95793e-20
1.94722e-18
2.9028e-15
8.06488e-16
7.96052e-14
5.62137e-14
4.4632e-13
4.37452e-14
1.68352e-14
1.25363e-13
6.56027e-14
2.56017e-06
8.7695e-07
4.28617e-08
3.32773e-05
2.4374e-05
1.03965e-05
8.30593e-06
2.70835e-05
1.04635e-05
4.22572e-06
4.49366e-05
2.73517e-05
4.4838e-07
1.84806e-06
3.47024e-06
3.62474e-07
2.87246e-07
4.09008e-07
3.81447e-07
1.11864e-05
5.22825e-05
6.58729e-05
4.8074e-05
1.10963e-05
5.74659e-05
1.25598e-05
5.68557e-05
6.58851e-05
5.41649e-10
7.81431e-14
1.53225e-09
3.67318e-10
7.02744e-14
9.39727e-10
7.16166e-14
7.00609e-14
5.27472e-10
8.55471e-27
2.15684e-25
1.00628e-26
9.61081e-26
4.44735e-27
1.95551e-24
1.53565e-24
4.30202e-25
6.56113e-24
5.01401e-23
1.28384e-22
1.45924e-21
8.45738e-23
6.33962e-24
1.03533e-26
2.50815e-26
8.44924e-27
1.94001e-28
1.04218e-27
2.41255e-27
2.99195e-33
1.25886e-27
3.93404e-28
4.78012e-34
2.9094e-33
3.36842e-33
2.52012e-33
2.70201e-33
7.28358e-33
4.00101e-34
1.33241e-23
4.8606e-24
2.37666e-23
2.80459e-24
5.76747e-24
2.82393e-24
2.81073e-24
7.59167e-20
1.48832e-16
6.66947e-18
5.39034e-20
1.49005e-18
1.59955e-20
6.85286e-22
1.83517e-17
3.80369e-20
2.90261e-19
1.71622e-22
1.71622e-22
1.71622e-22
1.80968e-22
1.80968e-22
2.08068e-20
7.07988e-18
2.96978e-18
3.8626e-18
7.38196e-18
2.91771e-18
2.89388e-17
5.52409e-15
1.89376e-18
2.46746e-18
5.76632e-18
2.25818e-17
5.55615e-15
2.3203e-16
2.80596e-14
1.33368e-13
1.22335e-12
0.00218438
0.00158658
0.00218848
0.00102177
0.00089744
0.00282289
0.00026092
1
1
1
1
1
1
1
0.999976
0.999761
1
1
1
1
1
1
1
1
1
1
1
1
1
1
1
1
1
1
1
1
1
1
1
1
1
1
1
0.846356
0.937993
0.989707
0.994333
0.990717
0.995268
0.964998
0.917286
0.78683
0.983924
0.993157
0.990685
0.947856
0.976083
0.000969896
0.00348153
0.000976609
0.0032856
0.053056
0.0121039
0.0325402
0.00163445
0.00135021
0.000948931
0.00142858
0.000948931
0.0019706
0.0018907
0.264485
0.0719447
0.115968
0.730349
0.529853
0.367665
0.246102
0.921325
0.938544
0.922332
0.961189
0.970064
0.932131
0.961706
0.000331513
0.212469
0.053447
0.117639
0.284058
0.158403
0.722927
3.3059e-05
3.23712e-05
3.3059e-05
3.33783e-05
3.57191e-05
8.24747e-05
3.34402e-05
8.30675e-05
2.94091e-05
3.07449e-05
5.91265e-06
1.10221e-05
3.96955e-05
2.0807e-05
1.6516e-25
1.27041e-27
1.85431e-23
4.66119e-26
4.764e-29
1.1578e-27
1.44464e-26
1.36722e-35
1.81034e-32
1.08474e-33
9.74473e-36
1.31249e-34
3.85636e-35
1.22373e-35
1.08599e-40
1.05109e-40
9.81823e-41
8.97194e-41
7.94371e-40
1.08376e-40
8.93361e-40
9.01803e-44
1.17947e-43
1.62917e-42
1.1632e-43
9.59998e-43
1.82046e-43
9.04941e-44
2.28115e-49
2.92753e-51
1.67657e-45
1.33249e-51
2.92753e-51
3.71045e-48
9.23013e-50
5.8734e-50
4.89263e-52
2.8123e-49
5.38373e-50
5.22415e-50
3.22306e-49
2.85471e-48
8.35991e-50
1.23321e-49
7.11023e-57
2.71974e-53
5.97219e-55
8.99247e-57
3.9671e-57
2.24296e-56
9.03623e-57
1.2758e-54
1.23962e-51
8.40754e-53
9.84794e-55
1.2758e-54
1.46349e-53
2.604e-56
1.06957e-60
1.06957e-60
1.06957e-60
5.76853e-60
1.40979e-58
1.10604e-58
1.06957e-60
1.43653e-61
7.39596e-62
8.15722e-62
5.4401e-60
1.08766e-57
2.88786e-61
5.05935e-61
3.48785e-60
6.01206e-60
9.98111e-59
4.0778e-61
7.39596e-62
5.62508e-59
1.97338e-61
9.2837e-59
2.01629e-63
3.72872e-48
1.947e-48
2.02398e-48
7.25904e-49
9.05387e-50
1.50549e-48
8.08441e-49
3.25361e-43
1.20749e-44
6.42562e-44
7.22871e-43
7.66225e-42
1.62247e-43
4.50797e-42
5.5368e-47
1.85941e-48
5.5368e-47
1.62115e-45
5.5368e-47
4.07732e-41
1.5987e-40
1.12995e-41
2.00678e-38
2.22739e-36
1.90495e-40
1.72733e-38
2.67468e-36
2.67291e-36
1.74914e-39
2.31782e-35
1.13767e-36
1.01653e-37
1.14731e-36
4.04437e-25
1.82739e-26
6.10097e-26
1.07444e-24
7.65974e-24
1.28674e-25
1.20254e-22
1.0244e-27
4.9655e-24
1.11083e-23
2.69746e-28
1.0244e-27
2.08296e-21
4.69276e-23
8.08619e-23
2.0209e-22
2.0209e-22
7.62963e-23
9.0159e-22
3.82725e-21
2.23418e-21
3.05158e-21
1.73925e-20
5.96253e-21
4.66429e-20
4.02327e-21
1.8335e-24
1.3939e-24
5.64009e-25
1.12351e-18
1.88002e-18
2.05769e-18
1.72329e-18
2.22009e-18
4.15646e-18
2.06136e-16
4.60334e-20
8.70058e-18
4.06188e-18
8.81127e-15
1.15613e-14
1.22247e-14
1.03095e-14
9.93833e-15
1.23439e-14
1.03095e-14
4.95397e-15
4.95397e-15
4.95397e-15
1.10717e-14
4.95397e-15
1.03366e-11
7.26057e-15
5.71482e-15
4.95397e-15
2.52972e-14
3.12446e-11
1.08323e-10
7.15727e-11
4.81665e-11
2.94093e-10
9.02407e-11
3.12659e-10
1.7596e-11
3.65406e-10
3.27288e-11
2.82129e-10
1.8771e-10
2.79229e-10
9.00311e-10
3.50795e-08
3.50375e-08
3.55433e-08
3.95165e-08
1.12492e-08
3.57995e-08
4.02282e-08
1.77788e-06
2.315e-07
1.60101e-07
2.28493e-07
2.39388e-07
1.63718e-06
6.02146e-06
9.06111e-06
0.000110047
1.97635e-05
9.06856e-06
3.30456e-05
0.0001542
7.42779e-05
3.49993e-07
9.28053e-08
9.08067e-08
1.97877e-07
3.61944e-06
3.28184e-06
3.98823e-07
1.2351e-05
6.00878e-07
1.2066e-05
7.97808e-08
2.54358e-07
5.76296e-07
2.31751e-06
2.9069e-12
1.12874e-12
2.58329e-13
2.54362e-15
1.74257e-13
3.63571e-14
3.97917e-14
9.7278e-14
4.86561e-13
5.51932e-12
2.39718e-12
2.5561e-12
3.87592e-12
7.74618e-11
2.07701e-11
1.48405e-13
1.17335e-16
3.64742e-16
3.65799e-16
1.69037e-20
1.36778e-16
1.92714e-20
1.68962e-16
7.784e-25
2.98576e-23
4.88759e-24
2.42666e-25
1.01321e-24
5.46144e-25
7.23247e-25
1.14005e-23
7.61034e-25
4.06593e-33
4.3179e-28
3.0853e-27
4.06593e-33
3.95956e-33
2.9934e-26
1.07388e-27
3.24705e-27
6.1118e-27
6.55365e-31
6.55365e-31
6.55365e-31
6.3657e-31
2.55126e-30
7.33944e-31
6.69309e-31
3.79101e-39
4.45082e-39
1.12623e-38
4.91114e-38
3.57838e-39
3.79101e-39
3.78694e-37
8.21822e-39
2.05913e-38
8.09572e-39
9.88949e-38
1.1097e-38
8.94285e-39
1.06676e-38
8.73326e-32
3.99534e-32
2.97205e-31
1.26408e-32
3.1637e-32
3.27469e-32
2.56814e-32
5.88619e-36
5.05027e-34
2.08787e-35
2.39428e-34
1.56393e-34
2.2681e-35
2.2681e-35
2.9725e-32
6.07897e-32
1.57999e-31
7.89871e-32
6.64903e-31
3.33711e-32
6.52541e-32
3.43013e-28
3.43013e-28
3.43013e-28
2.93952e-27
9.3739e-27
8.0272e-28
3.43013e-28
3.97989e-32
2.06361e-32
4.19571e-32
4.4597e-33
5.14018e-33
1.40392e-32
5.55637e-33
4.44598e-27
3.35365e-28
1.42679e-25
2.51549e-28
3.73776e-24
5.94208e-27
2.74257e-20
3.28552e-22
4.09276e-24
8.62293e-23
3.75134e-21
1.22737e-22
5.84153e-21
2.84345e-22
3.42289e-20
2.92604e-24
1.36353e-19
1.36464e-20
1.80968e-22
0.00500182
0.00278006
0.0960219
3.96213e-06
0.00201465
0.00379505
0.00262476
1
1
1
1
0.999999
1
1
1
1
1
1
1
1
1
1
1
1
1
1
1
0.989253
0.999119
0.998752
0.884165
0.999794
0.999795
0.892527
0.977819
0.993911
0.637188
0.976298
0.997273
0.995924
0.755246
0.000218614
0.00017857
0.000221548
0.00253613
0.000253043
0.00017478
0.000666489
0.645378
0.828427
0.398583
0.502252
0.828298
0.316792
0.673386
0.828485
0.820987
0.55669
0.00802718
0.107733
0.912378
0.735491
0.923439
0.447505
0.000832195
0.000841919
0.000852995
0.0465539
0.000830487
0.00399475
0.00157811
0.00200808
0.00172846
0.000943711
0.00369125
0.000189421
0.00232754
0.00369125
0.000126338
0.000337197
0.000417188
0.00132103
0.000291032
1.5359e-08
6.23897e-09
5.02268e-05
5.04303e-05
6.23897e-09
1.45335e-09
3.85181e-38
7.2581e-38
2.6752e-40
2.41839e-36
1.19663e-35
5.85993e-41
2.6752e-40
5.57413e-41
6.12962e-44
4.74174e-44
7.3543e-41
5.86001e-40
9.79701e-46
2.87052e-45
2.89422e-53
1.53223e-53
4.80224e-54
1.15438e-53
1.88305e-52
1.46988e-55
8.35043e-57
8.47556e-56
7.06808e-56
8.47556e-56
6.71311e-55
6.20018e-55
2.90247e-54
1.1892e-54
8.35043e-57
8.35043e-57
8.35043e-57
8.78376e-57
6.40542e-56
7.06808e-56
2.12171e-52
7.06808e-56
1.79494e-51
1.32962e-52
6.35778e-56
8.78376e-57
9.10239e-55
1.21986e-51
7.24519e-53
1.34011e-52
7.45698e-52
1.09754e-51
6.5409e-52
1.78631e-53
3.05101e-56
3.53347e-57
1.58805e-56
1.03777e-49
1.05045e-49
1.14721e-49
1.54704e-48
8.70962e-50
2.31074e-42
4.7337e-46
1.71491e-43
5.06079e-43
3.35217e-42
1.73744e-42
2.16028e-42
8.3896e-46
5.96018e-45
2.19293e-46
1.93619e-45
2.04967e-46
8.3896e-46
2.19293e-46
3.7942e-40
9.82575e-38
1.96231e-42
8.88991e-38
1.59451e-38
5.09701e-43
1.96231e-42
1.80092e-39
2.819e-40
1.92389e-40
6.35141e-39
2.69768e-43
6.2151e-40
1.21233e-41
1.23584e-22
4.12964e-21
1.64718e-21
2.0783e-21
6.12583e-20
9.62651e-25
9.62651e-25
1.86365e-10
1.84036e-10
1.30994e-09
2.95495e-10
1.90983e-10
2.30937e-10
7.15668e-10
1.18548e-10
3.93e-11
3.05747e-10
1.08786e-09
3.17526e-09
3.41592e-09
2.46065e-09
3.57502e-09
5.32345e-08
5.99912e-07
9.02506e-11
1.39065e-08
5.68098e-09
2.42694e-07
6.34801e-08
5.27019e-07
4.53813e-08
4.35771e-08
6.81861e-06
1.95262e-06
4.05746e-08
4.68741e-08
4.11196e-08
7.40495e-07
0
4.26623e-06
1.0365e-06
3.56867e-06
9.00136e-08
-5.74858e-40
-8.96944e-44
-1.44102e-40
1.69792e-06
9.94971e-05
0.00010645
4.32841e-05
6.6591e-05
6.83329e-05
6.6591e-05
0.265251
0.812845
0.999966
0.999966
0.99997
0.999966
0.999948
1.22482e-08
1.51793e-07
1.61106e-08
5.35735e-08
1.61106e-08
2.19865e-08
0.0590933
0.00326383
0.0178924
0.000456089
0.00129859
0.00132983
0.182896
0.00396614
1.21669e-21
1.21669e-21
7.08384e-22
-5.02134e-38
3.52825e-22
4.19972e-16
1.67062e-15
1.23257e-06
2.7566e-08
1.82566e-08
1.36463e-17
8.60803e-09
5.06384e-07
8.79055e-09
1.58746e-13
1.29165e-12
6.01331e-12
1.48298e-12
1.57259e-13
3.36958e-13
1.13224e-12
5.61529e-13
2.45353e-12
9.52508e-15
3.54373e-17
1.24161e-13
8.70847e-13
1.2233e-12
1.5021e-12
8.1514e-13
7.99771e-18
5.11713e-18
5.13588e-18
4.33772e-18
2.83565e-18
2.49173e-18
2.6327e-17
4.06617e-18
1.3054e-19
1.49071e-19
5.19721e-19
3.12061e-22
5.8722e-20
3.84465e-21
2.13552e-27
2.17686e-27
6.97054e-27
3.92684e-27
5.82853e-27
6.28109e-27
6.85494e-27
2.39196e-34
2.8725e-30
8.29537e-35
4.97245e-35
8.28536e-35
8.29537e-35
5.07291e-35
5.40897e-44
4.28811e-43
8.80466e-43
5.88402e-43
4.33428e-42
2.25402e-43
4.32106e-43
2.76385e-44
9.9262e-45
4.90437e-44
1.3158e-44
6.37596e-45
6.37176e-45
6.48484e-45
1.93007e-39
9.13753e-39
1.68983e-41
1.25809e-43
1.74098e-39
4.40757e-40
1.78469e-41
4.52307e-41
7.46868e-43
3.44724e-40
1.25809e-43
1.25809e-43
1.25809e-43
1.35161e-43
1.33772e-43
7.60283e-43
5.12869e-40
3.81441e-41
4.33679e-41
2.64652e-40
1.11059e-40
2.69734e-40
1.29272e-39
3.81441e-41
2.13468e-40
3.81441e-41
3.80032e-37
3.80032e-37
3.31978e-37
9.72597e-37
1.05203e-36
3.05166e-37
3.18625e-37
7.89871e-32
8.30598e-30
5.51025e-30
1.24355e-29
1.08653e-27
2.42401e-31
1.14471e-28
5.09624e-37
2.82013e-34
4.6491e-36
2.00189e-32
3.30215e-31
1.78965e-31
1.14745e-26
7.24747e-27
4.29724e-26
8.17894e-27
6.45116e-27
5.50009e-27
8.80748e-26
0.000109568
0.00013867
1.88283e-05
1.33666e-05
1.72705e-05
4.76552e-05
5.31423e-05
0.00146962
0.00162986
0.00198256
0.00198797
0.00179241
0.00330807
0.00092911
0.989024
0.965253
0.978443
0.823828
0.687119
0.932787
0.97319
1
1
0.999203
1
1
0.999995
1
1
1
1
1
1
1
1
1
1
1
1
1
1
1.3046e-37
1.45365e-37
3.58468e-39
1.47781e-35
1.81055e-36
3.58468e-39
2.34479e-39
2.32338e-39
1.05262e-40
2.24716e-41
1.42029e-38
2.66658e-39
5.64808e-44
1.22354e-44
4.9806e-48
2.97402e-48
1.17349e-44
1.87571e-51
3.31475e-49
1.14198e-43
1.51018e-44
1.542e-51
6.50664e-52
6.26726e-52
1.37283e-51
2.38849e-51
1.08366e-51
6.26726e-52
3.4411e-53
4.15344e-53
4.15344e-53
3.79855e-50
3.35824e-51
4.3819e-53
4.15344e-53
3.42929e-53
1.09172e-54
7.89164e-52
2.78821e-46
6.16571e-46
1.38992e-43
1.06716e-48
3.95235e-48
1.6793e-43
1.56769e-42
5.1485e-43
6.05687e-43
1.25816e-41
3.43592e-43
1.43323e-43
1.93945e-41
1.64729e-40
7.70501e-40
7.70501e-40
7.14319e-41
7.14319e-41
1.341e-41
1.0957e-35
1.1367e-36
2.9954e-34
6.5377e-34
2.86554e-32
3.91469e-33
1.04055e-34
7.92215e-33
3.78627e-33
2.20414e-11
2.14895e-11
2.14881e-11
2.61454e-11
2.80384e-11
2.8853e-11
9.50365e-11
3.8155e-10
3.16896e-10
3.34229e-10
4.7983e-10
3.73811e-09
3.97713e-10
3.97713e-10
6.14065e-05
3.2782e-05
6.17356e-05
2.4296e-05
1.49944e-05
3.5589e-06
3.39702e-05
3.39151e-06
3.39702e-05
3.09814e-05
1.48891e-05
4.09293e-05
0.868622
0.883256
0.999841
0.928426
0.927007
0.460108
0.979249
0.000150695
0.000900632
0.000695398
0.000209407
0.000119505
0.000440928
0.000464763
1.61556e-05
4.77424e-06
2.41135e-06
1.36985e-07
5.9406e-07
5.3846e-07
1.41854e-07
1.67608e-15
1.57317e-19
6.14029e-15
7.38398e-08
5.4025e-16
1.00705e-07
3.37902e-16
8.30312e-09
2.07387e-08
3.86317e-08
-1.64e-33
3.1126e-16
2.29942e-19
3.49453e-07
1.61243e-07
-8.92953e-26
9.15388e-10
-1.10029e-25
5.64877e-08
6.11054e-06
4.68853e-05
6.16517e-06
6.91339e-05
9.48517e-05
1.20698e-05
6.05818e-05
1.63048e-05
5.7417e-07
6.27592e-07
9.17499e-05
4.65125e-05
2.48962e-05
4.46087e-05
3.58629e-27
3.35244e-27
2.38004e-27
1.72391e-27
1.66538e-27
1.47465e-28
2.60585e-27
3.26341e-34
4.48827e-34
4.48827e-34
3.95817e-34
3.08302e-34
3.26341e-34
1.1881e-33
1.96448e-39
3.63369e-39
2.84414e-38
2.78925e-41
4.31558e-38
6.02535e-38
3.34233e-38
1.63762e-39
3.87478e-46
1.63488e-41
1.02079e-47
5.33105e-42
1.98699e-46
2.95875e-42
3.7702e-46
8.15619e-41
3.22067e-52
3.22067e-52
7.39678e-52
1.36191e-51
2.71275e-51
1.967e-50
1.64752e-51
1.96674e-51
3.06811e-48
3.70088e-51
1.65313e-50
2.18751e-52
4.90652e-49
2.18751e-52
8.5444e-50
2.34312e-48
7.71608e-48
1.7644e-51
7.28095e-52
1.75541e-51
1.86766e-52
3.69798e-51
1.79623e-52
3.69722e-52
1.00032e-43
2.85977e-45
4.32893e-45
3.48016e-48
3.10183e-48
1.31517e-48
6.19772e-43
8.722e-45
3.83999e-41
6.56808e-41
3.55561e-42
1.10364e-44
9.96724e-45
1.10364e-44
3.80987e-40
7.17305e-45
1.29298e-41
1.33772e-43
5.68264e-41
8.00382e-39
4.93614e-39
2.25202e-38
3.1069e-38
2.21128e-38
1.66034e-36
1.76021e-37
7.37777e-28
3.14962e-25
3.27631e-27
4.20174e-29
6.51443e-28
1.09531e-28
6.40176e-28
6.69322e-10
3.48323e-09
6.64471e-10
2.52564e-11
7.97895e-08
2.4781e-05
1.54149e-05
3.35813e-06
3.34969e-06
4.60262e-06
5.74444e-06
5.08662e-06
8.71646e-08
5.76458e-08
6.11911e-08
9.2599e-07
6.63686e-07
2.16134e-07
3.24385e-07
3.78708e-08
1.98777e-05
3.28939e-05
3.78902e-08
1.20452e-07
8.83938e-06
2.55115e-05
9.54065e-06
1.11776e-05
1.62937e-05
8.31152e-05
1.88825e-05
0.00164522
0.0061793
0.00127869
0.000245763
0.00195384
0.0014899
0.00192632
0.246656
0.0217748
0.0218645
0.0950772
0.0948522
0.0711293
0.0340747
1
1
1
1
1
1
1
1
1
1
1
1
1
1
1
1
1
1
1
1
1
1
1
1
1
1
3.30551e-46
3.30551e-46
3.30551e-46
3.30551e-46
3.42249e-46
5.10534e-45
1.74198e-45
4.91606e-46
1.035e-40
1.74198e-45
1.24722e-43
1.26804e-44
1.24726e-43
8.26526e-42
8.12111e-42
3.13294e-42
3.13294e-42
4.26111e-27
7.90373e-27
8.12154e-27
1.27806e-26
1.42926e-26
8.81029e-27
4.89864e-27
4.45323e-30
1.65887e-28
1.15569e-28
4.37752e-30
2.10302e-30
1.25615e-25
5.55361e-25
6.69712e-05
1.66293e-05
1.58483e-05
9.80565e-05
6.0839e-05
8.69467e-05
9.8057e-05
7.85316e-05
3.63005e-05
7.5328e-05
8.80672e-05
2.06446e-05
0.000143879
0.000143879
9.28823e-05
7.27222e-05
0.000143917
3.07266e-05
2.90279e-05
7.8184e-05
3.11638e-05
0.000174529
0.000174642
0.000142439
0.000119658
0.000116475
0.000124713
0.00011737
1.90767e-05
5.33768e-05
3.2392e-06
3.84699e-05
4.23392e-05
1.34617e-05
3.83635e-05
2.18191e-05
1.10968e-06
6.56339e-06
5.12098e-05
1.11998e-06
5.48931e-05
6.25467e-05
6.36933e-05
3.65238e-05
7.63493e-06
3.74492e-08
1.80195e-06
3.79617e-06
5.60443e-06
3.41998e-08
6.86239e-08
9.32371e-05
2.31625e-05
6.16696e-05
4.47076e-05
2.25809e-05
1.01176e-05
4.19493e-05
6.11039e-06
8.6804e-05
1.04371e-05
1.85848e-06
5.46928e-07
8.76766e-08
1.0884e-06
7.13302e-06
1.69141e-08
1.38266e-06
2.51715e-05
8.41476e-07
3.90159e-05
4.12383e-10
3.5565e-10
9.63695e-09
2.02537e-10
1.47369e-08
1.59843e-07
2.29052e-14
3.06857e-14
1.64287e-14
9.17216e-15
1.36731e-13
1.08276e-14
1.5281e-14
4.63641e-28
4.6364e-28
3.05134e-34
3.02351e-28
-1.98399e-30
2.69678e-34
2.45831e-34
3.03859e-34
5.61764e-34
2.73302e-53
8.10255e-51
1.27717e-47
1.08756e-55
3.08265e-51
2.73302e-53
2.52569e-53
9.92466e-56
9.92466e-56
8.30282e-56
6.39412e-55
3.2476e-55
1.77844e-55
7.94873e-56
3.14748e-66
1.88951e-66
1.88951e-66
5.08821e-65
2.24636e-65
4.21296e-65
1.88951e-66
2.71549e-62
2.03211e-61
1.29274e-61
2.69883e-61
3.22747e-62
4.89628e-61
6.03961e-58
2.49208e-62
3.30687e-61
2.71549e-62
1.83798e-56
1.07307e-53
2.58549e-56
5.68954e-56
1.00889e-56
9.05822e-57
8.50494e-51
7.08224e-52
1.2086e-50
7.38465e-43
7.69739e-43
2.85637e-42
1.3603e-42
8.94279e-43
2.82969e-42
4.81568e-42
1.14168e-27
3.81705e-28
2.12655e-27
6.51799e-28
6.89764e-27
5.37482e-27
6.13519e-27
6.82019e-27
9.1516e-27
4.95419e-27
3.81522e-28
7.40718e-27
1.02503e-26
9.74713e-29
7.03113e-20
3.78446e-20
3.29261e-20
2.78659e-19
4.52968e-20
4.21256e-20
6.75826e-20
2.927e-19
2.90221e-19
2.69916e-19
2.73356e-19
2.6784e-19
1.68126e-18
2.7189e-20
7.48777e-15
5.22278e-14
5.19463e-12
1.61084e-14
7.67805e-15
7.48777e-15
7.48777e-15
1.09329e-10
1.16097e-10
2.94995e-10
1.4799e-10
1.20735e-10
1.36179e-10
7.36367e-11
1.55938e-14
2.69626e-14
1.698e-14
1.07556e-11
8.35772e-13
2.7911e-08
2.45268e-08
3.09377e-08
3.68778e-08
3.68778e-08
2.7911e-08
4.46583e-08
6.84218e-10
2.68485e-10
6.63652e-09
1.29925e-10
1.22199e-10
2.46507e-10
2.3223e-10
3.98473e-09
3.08206e-09
3.98473e-09
6.59805e-09
5.8457e-09
4.46091e-09
5.8457e-09
1
1
1
1
1
1
1
1
1
1
1
1
1
1
1
1
1
1
1
1
1
1
1
1
1
1
1.16733e-27
5.27262e-27
2.20685e-26
1.41982e-27
1.03396e-24
3.56716e-27
5.62609e-25
9.47528e-36
2.0464e-35
2.17598e-35
2.21965e-36
6.39519e-36
2.14211e-36
1.27967e-35
1.41664e-41
9.40532e-42
3.10809e-42
5.39272e-38
3.67739e-41
2.06172e-41
1.24196e-41
6.39519e-36
1.93108e-32
3.71096e-32
1.15742e-42
1.87065e-40
1.6857e-41
3.76368e-44
4.34496e-40
3.76368e-44
3.76366e-44
3.76368e-44
4.67076e-43
6.90786e-44
2.46087e-36
2.46087e-36
8.17919e-38
6.61777e-38
9.79454e-38
9.92933e-37
1.10855e-37
3.61462e-35
1.98624e-37
4.27025e-08
4.23421e-08
3.08934e-07
5.44373e-08
1.35786e-07
2.80299e-08
2.64019e-07
1.01435e-07
4.30894e-07
4.29266e-08
5.94842e-08
1.41849e-07
1.3487e-08
2.38187e-08
3.92274e-17
3.33021e-17
5.39579e-16
4.57624e-17
1.38351e-13
4.57624e-17
4.11964e-17
1.66625e-14
1.55491e-13
5.43545e-14
3.36381e-18
1.20004e-18
1.70465e-17
3.40338e-18
1.37358e-19
5.16403e-19
1.59791e-18
1.10364e-20
1.10364e-20
8.15092e-21
1.97516e-21
7.00288e-21
1.99754e-17
3.34788e-20
2.40953e-22
3.54399e-20
1.11163e-16
8.45553e-18
2.69716e-16
1.23372e-24
3.63573e-25
1.71119e-25
3.18186e-27
3.24556e-24
1.71119e-25
6.26354e-26
1.62444e-23
2.18894e-25
1.01669e-23
4.20086e-30
7.97793e-30
1.38169e-29
2.56534e-29
5.67776e-29
5.20371e-29
3.43686e-36
3.43686e-36
3.43686e-36
3.43686e-36
4.11377e-36
4.70625e-34
6.15197e-36
1.32122e-55
3.55099e-55
3.55099e-55
6.8809e-50
6.5305e-54
3.55099e-55
6.5305e-54
3.7773e-62
1.48293e-60
3.01964e-62
1.08905e-62
9.96784e-63
9.82713e-63
4.13887e-66
4.13887e-66
4.13887e-66
5.28816e-59
4.13887e-66
4.62047e-66
5.22589e-61
3.17345e-60
1.6356e-64
2.33179e-66
2.24709e-65
3.30194e-48
3.24392e-48
6.71156e-48
3.44749e-48
6.77156e-46
3.33925e-48
1.33462e-47
3.73863e-49
8.5867e-53
3.02481e-54
2.84372e-55
3.02481e-54
8.98065e-50
1.45933e-49
3.40092e-49
4.80386e-49
2.46501e-49
7.7979e-50
1.9484e-49
6.38414e-49
2.37712e-48
9.52613e-50
9.52613e-50
9.52613e-50
6.99951e-46
1.06357e-49
9.52613e-50
1.2945e-49
1.26993e-46
1.33996e-46
9.84959e-46
1.39765e-43
1.51851e-46
1.33996e-46
1.49167e-46
1.75482e-38
2.88462e-39
2.48424e-38
1.17867e-38
2.13502e-39
7.97229e-39
7.97271e-39
1.62288e-36
5.15647e-36
2.29356e-36
5.25445e-37
3.1337e-37
2.52337e-36
5.7946e-37
2.36698e-27
2.36716e-27
5.29037e-27
4.61063e-27
9.2272e-28
1.96766e-27
3.29427e-27
2.61272e-33
2.99195e-33
6.328e-32
2.37261e-33
2.84736e-33
2.99348e-33
3.92559e-33
1.45944e-27
2.61564e-27
6.92454e-28