/*--------------------------------*- C++ -*----------------------------------*\
| =========                 |                                                 |
| \\      /  F ield         | OpenFOAM: The Open Source CFD Toolbox           |
|  \\    /   O peration     | Version:  v2012                                 |
|   \\  /    A nd           | Website:  www.openfoam.com                      |
|    \\/     M anipulation  |                                                 |
\*---------------------------------------------------------------------------*/
FoamFile
{
    version     2.0;
    format      ascii;
    class       volScalarField;
    location    "0.1";
    object      p;
}
// * * * * * * * * * * * * * * * * * * * * * * * * * * * * * * * * * * * * * //

dimensions      [1 -1 -2 0 0 0 0];


internalField   nonuniform List<scalar> 
6576
(
-604.003
-663.205
-623.131
-617.384
-602.011
-567.282
-609.717
-598.989
-583.805
-598.396
-534.502
-547.809
-557.842
-554.714
-528.814
-530.999
-626.891
-573.52
-547.389
-463.736
-605.664
-539.405
-543.735
-693.783
-470.652
-383.261
-219.538
-621.284
-671.12
-670.614
-624.772
-687.791
-581.475
-447.908
-440.589
-419.18
-484.636
-442.531
-498.409
-468.969
-556.748
-625.62
-525.212
32.9364
6.81213
44.8455
15.0047
29.2408
72.0198
47.2794
21.8556
46.7497
-2.91147
-2.9146
-2.9328
-2.87241
-2.8804
-2.90029
-2.89054
-2.91244
-2.87509
-2.86049
-2.83716
-2.87641
-2.91184
-2.86922
-2.59261
-2.63672
-2.66695
-2.6812
-2.64028
-2.73621
-2.68868
-1.23004
-0.604768
-0.159632
-0.843757
-1.01863
-0.649316
-0.326371
-1.55714
-1.64189
-1.01312
-1.14651
-1.48068
-1.57599
-1.30568
2.21433
2.15777
2.03858
2.05295
1.88167
2.13075
1.98648
55.3718
46.6274
84.3578
10.6187
31.2552
56.8
28.7837
185.557
159.003
151.457
159.233
186.055
138.4
165.421
165.738
153.493
193.014
140.175
167.133
167.648
-2.88327
-2.89833
-2.85998
-2.9243
-2.85517
-2.83681
-2.89499
-38.5584
-38.2462
-283.153
-244.657
-222.347
-23.8001
17.6567
-2.6806
-3.227
-3.00545
-3.70867
-3.3486
-3.89155
-3.58414
0.381202
0.35916
0.347479
0.446318
0.449764
0.421741
0.410614
0.317634
0.36544
0.321139
0.46959
0.450468
0.401842
0.404738
0.130934
0.125792
0.033833
0.197195
0.109898
0.061113
0.147914
0.257434
0.247851
0.368638
0.310846
0.311703
0.49711
0.46782
0.43492
0.420906
0.113386
-0.0199769
0.11919
0.193675
0.0829488
0.016304
0.140865
0.288934
0.269904
0.435761
0.346499
0.351417
0.562001
0.61277
0.505866
0.487185
0.120254
0.0114256
0.62861
0.472664
0.44674
1.22647
1.16255
1.03042
1.03632
-2.57376
-1.97936
-3.7994
-1.25175
-0.856045
-1.90766
-0.836009
-1.9714
-2.68177
-1.66653
-1.26441
0.179639
-1.13935
-1.78047
-5.34462
-6.33416
-4.69962
-2.94825
-6.62488
-7.10329
-4.32596
-3.23464
-2.75351
-4.06744
-2.90675
-3.85827
-3.22389
-2.44097
-4.59752
-4.71369
-5.23426
-4.00631
-3.81396
-4.13396
-4.50721
-3.06867
-3.85718
-3.27176
-3.76792
-2.9643
-2.87697
-3.56636
-1.01452
-0.850739
-1.06262
-1.79106
-1.0933
-1.14306
-1.43871
-0.453369
-0.516647
-0.270875
-0.54002
-0.835487
-0.389607
-0.596279
-0.218856
-0.10144
-0.246399
-0.378962
-0.14568
-0.34082
-0.146385
-0.119526
-0.278999
-0.0778912
-0.0137747
-0.116417
0.0383585
-0.0916489
0.0214777
-0.0812795
-0.0537699
-0.0712556
-0.00338998
0.0156172
-0.0427911
-0.0371484
0.0211815
186.911
159.959
153.831
173.85
146.887
114.453
141.553
126.863
154.481
48.2174
81.2619
51.1123
51.6307
28.2141
38.2266
20.0077
0.499938
0.464397
0.557444
0.64251
0.532486
0.536069
0.566335
0.575943
0.518553
94.469
53.5003
64.6368
0.719958
1.08509
0.462581
1.34592
0.322298
0.0125517
0.367369
-0.767563
-0.765881
-0.695265
-0.727956
-0.735623
-0.669386
-0.66742
3.1177
-0.328257
-1.16807
-1.13277
0.439692
0.0970178
0.456065
0.23311
0.135221
-1.44441
-1.5117
-1.4142
-1.36399
-1.32771
-1.40882
-1.34903
0.541294
0.380084
0.303941
0.194703
0.325319
0.539786
0.194188
0.000974627
0.322791
0.390377
-0.231704
0.0144393
0.175112
0.0473963
0.173102
0.179912
0.408662
0.296865
0.117044
0.0679302
0.299518
0.176665
-0.439585
-0.252188
-0.0387868
189.208
189.591
199.822
162.948
162.86
173.41
173.28
188.268
187.607
200.893
173.931
160.833
114.394
140.945
154.687
168.938
27.6596
3.63278
42.5952
53.4778
83.7088
28.6319
57.1679
0.610166
0.122851
2.08591
2.62112
3.42459
1.64217
0.791777
-1.11279
-1.02672
-0.875572
-1.21851
-0.936665
-1.18946
-0.937039
-0.90555
-1.1434
-2.79435
-2.93951
-3.30846
-3.49131
-3.13225
-3.10059
-2.84565
-3.08187
-4.24442
-3.5005
-4.81658
-4.89968
-4.68741
-4.55874
-3.877
-3.63109
11.938
-9.77451
8.52829
7.34152
3.35563
-0.356253
8.78664
2.09335
-1.10882
-8.89129
17.1807
-4.61206
14.6864
20.6416
-0.970466
-0.950067
-1.09095
-0.925955
-1.015
-0.992185
-1.10429
-1.23115
-1.29365
-1.34715
-1.31686
-1.25384
-1.3347
-1.40656
-1.09883
-1.09504
-1.20642
-1.14123
-1.0655
-1.1187
-1.21307
-1.16191
-1.26014
-1.14773
-1.13526
-1.21947
-1.11707
-1.03668
-1.1474
-1.07096
-1.50013
-1.58729
-1.48801
-1.5053
-1.45092
-1.58576
-1.50974
-1.76587
-1.63694
-1.72875
-1.75972
-1.85475
-1.69289
-1.76792
-1.77778
-1.80944
-1.89953
-1.7322
-1.65339
-1.72827
-1.79729
-2.44175
-2.39821
-2.30406
-2.44768
-2.53816
-2.44433
-2.34895
-2.0354
-2.10659
-2.12579
-2.1141
-2.19361
-2.23614
-2.1545
-2.5971
-2.44867
-2.49551
-2.06397
-2.10298
-1.95154
-2.86996
-2.78528
-2.79321
-2.79577
-2.87286
-2.82001
-2.75647
-2.78241
-2.80519
-2.88035
-2.64568
-2.73208
-2.71952
-2.78709
-2.84392
-2.9201
-2.76299
-2.77549
-2.65099
-2.73134
-2.87703
-2.7979
-2.83609
-2.75513
-2.69038
-2.776
-2.92315
-2.87694
-2.86358
-2.84077
-2.79748
-2.76615
-2.64734
-2.73444
-2.82354
-2.87458
-2.88615
-2.9237
-2.80444
-2.79453
-2.83679
-2.8359
-2.13559
-2.0798
-1.99029
-2.16732
-2.2708
-2.1227
-2.21885
-2.12452
-2.03668
-1.73262
-1.61618
-1.79416
-1.84749
-1.96343
-1.7338
-1.83259
-1.89023
-2.01315
-1.86059
-1.84315
-1.95119
-2.04067
-1.89459
-1.31148
-1.37941
-1.39798
-1.40564
-1.57401
-1.55079
-1.4326
-0.227365
-0.0498003
-0.0334809
-0.44012
-0.358404
0.137939
0.29563
0.0781936
0.211548
-0.0748457
0.313611
0.0995286
0.654147
0.804566
0.823128
0.828794
1.01913
0.850698
0.687043
1.57504
1.71808
1.74978
1.96761
1.81412
1.91787
1.9303
-0.830586
-0.86154
-0.842657
-0.86669
-0.878684
-0.864131
-0.835792
-0.978198
-0.952437
-0.952066
-0.995361
-1.00642
-0.994191
-0.993886
-0.966601
-0.969217
-1.09227
-1.09333
-1.07699
-1.07407
-1.06705
-1.06162
-1.04756
-0.511654
-0.536905
-0.581655
-0.606697
-0.631391
-0.576628
-0.554811
-0.521775
-0.567763
-0.51667
-0.485815
-0.531213
-0.455053
-0.504011
-0.420598
-0.451518
-0.48477
-0.532687
-0.503457
-0.459341
-0.486672
-0.0188961
-0.0604452
-0.00320445
0.0172598
-0.0207972
0.0514785
0.0112375
0.166007
0.204767
0.156216
0.145645
0.100906
0.218796
0.176159
0.187586
0.142289
0.10532
0.14879
0.167471
0.208215
0.170549
0.169577
0.130247
0.144929
0.106377
0.343523
0.372282
0.320729
0.330947
0.282799
0.308601
0.342816
0.282091
0.32037
0.266319
0.33035
0.370511
0.330116
0.32682
0.285098
0.262628
0.491262
0.515851
0.472007
0.468953
0.416768
0.44952
0.535535
0.510397
0.571775
0.562137
0.642714
0.340682
0.23768
0.260472
0.231527
0.216858
0.354866
0.327401
0.598906
0.537709
0.529057
0.385819
0.629378
0.432759
3.10801
0.4812
0.333089
0.633238
0.406851
0.62997
0.524921
-0.221516
0.43311
-0.0244503
-0.272324
-0.0823842
-0.0877163
0.358417
86.7233
58.545
48.1062
34.7387
7.2213
32.2943
61.14
155.952
142.751
169.633
114.234
139.461
152.703
187.477
161.25
161.268
135.329
161.953
188.101
153.859
161.915
188.29
140.667
112.945
167.41
140.719
173.989
200.197
173.972
187.576
187.743
198.046
161.139
161.256
183.91
183.833
157.532
157.612
190.803
190.839
201.37
164.735
164.61
175.066
149.085
168.93
155.942
142.695
190.561
164.185
156.395
190.726
164.261
143.36
169.845
139.426
112.935
151.553
164.826
138.396
111.519
138.784
33.0125
49.1865
15.1235
86.7448
58.3567
33.9222
58.6263
31.9825
7.85513
45.7562
54.3867
85.6288
27.9047
54.8813
1.03022
0.992924
0.772137
0.91715
0.944696
0.80435
0.885395
0.69266
0.689114
0.614182
0.704603
0.686161
0.654739
0.698164
0.780575
0.692728
0.796814
0.670732
0.7562
0.82137
0.868605
0.367023
0.626597
0.587104
0.777719
0.833928
0.639753
0.761162
0.627356
0.444362
-0.247974
-0.0384831
0.0579766
0.241027
0.178587
0.207744
0.0956678
0.049723
-0.129263
-4.47843
-4.01578
-4.32687
-4.81394
-4.48711
-3.96192
-4.06952
0.566866
0.522687
0.567807
0.449403
0.443837
0.494773
0.495518
0.685668
0.757771
0.73291
0.657681
0.734533
0.755508
0.677374
0.451162
0.315858
0.364874
0.410876
0.307414
-0.480093
-0.470757
-0.580909
-0.469179
-0.37547
-0.420128
-0.504193
-0.641373
-0.560879
-0.547934
-0.601542
-0.532466
-0.578535
-0.655802
-0.584754
-0.518576
-0.617259
-0.582664
-0.642422
-0.714086
-0.63943
-0.883078
-0.771138
-0.84842
-0.885498
-0.963406
-0.830959
-0.888343
-0.87941
-0.910895
-0.999547
-0.778166
-0.850225
-0.845873
-0.912988
-1.28074
-1.15198
-1.15823
-1.15546
-1.06489
-1.08386
-1.14405
-1.19544
-1.04328
-1.14988
-1.17855
-1.11063
-1.05756
-1.46872
-1.59217
-1.46753
-1.42355
-1.35741
-1.51334
-1.34623
-1.4236
-1.79855
-1.76202
-1.88343
-1.73021
-1.77774
-1.64209
-1.90136
-1.81301
-1.72814
-1.80335
-2.57204
-2.48411
-2.44963
-2.39575
-2.30791
-2.39769
-2.47128
-2.4411
-2.48458
-2.5738
-2.40169
-2.31034
-2.40489
-2.48073
-2.78513
-2.82007
-2.74329
-2.40454
-2.46259
-2.31649
-2.58209
-2.49577
-2.40615
-2.47953
-2.79947
-2.8362
-2.91781
-2.76382
-2.83215
-2.82816
-2.82617
-2.91762
-2.83228
-2.8507
-2.81974
-2.78487
-2.89895
-2.89844
-2.93244
-2.83739
-2.82392
-2.86499
-2.86124
-2.91156
-2.84251
-2.87012
-2.91512
-2.84661
-2.8584
-2.91563
-2.54595
-2.49236
-2.61436
-2.68933
-2.72267
-2.60665
-2.56864
-2.66656
-2.70706
-1.90933
-1.94343
-1.73341
-2.1728
-1.96573
-1.87147
-2.02642
-1.59335
-1.92514
-1.58513
-1.93668
-3.00364
-2.08448
-2.59758
0.774698
0.582796
1.06079
0.662488
0.937878
1.07833
1.91518
1.36315
0.914475
1.03861
1.89145
1.22826
1.84948
2.08411
1.86126
2.05875
1.58152
1.88325
1.73728
1.97427
1.92819
-0.864717
-0.874712
-0.921028
-0.894272
-0.901225
-0.971134
-0.977839
-0.95163
-0.945656
-1.08878
-1.08713
-1.06241
-1.06328
-1.09021
-1.07733
-1.05911
-1.05655
-1.05636
-1.05455
-1.04735
-1.0364
-1.04463
-1.05411
-1.01019
-0.99523
-1.01374
-1.00836
-0.997472
-1.01865
-1.00479
-0.998585
-1.01443
-0.885163
-0.907255
-0.864137
-0.932076
-0.920951
-0.889859
-0.905372
-0.252113
-0.280445
-0.289902
-0.319091
-0.282529
-0.337205
-0.301071
-0.13593
-0.117005
-0.0841534
-0.134569
-0.170972
-0.182449
-0.143804
-0.152581
-0.116645
-0.191406
-0.143775
-0.0992221
-0.14001
-0.138844
-0.176848
-0.198215
-0.0258593
0.0261435
0.0241897
0.0167816
0.0697904
0.0403575
0.0798821
-0.0522297
0.0264263
-0.0067965
0.175527
0.235696
0.196558
0.3258
0.385829
0.346748
0.519412
0.302476
0.670929
0.369419
-0.341124
0.251197
0.31662
168.838
155.426
142.376
161.629
148.479
134.855
135.904
108.835
109.469
135.214
200.215
173.777
173.843
189.587
189.782
200.292
163.546
163.568
174.108
174.048
169.263
156.496
143.352
191.371
165.08
157.257
170.778
144.163
165.092
191.669
171.123
197.423
158.125
171.52
144.751
171.171
15.1657
33.4387
51.8277
60.2561
88.8825
61.8163
37.2845
32.2578
8.3326
47.0794
57.7294
85.2406
32.101
58.339
2.115
2.12117
2.45175
2.25285
2.24669
2.72741
2.92926
1.53026
1.26182
1.43029
1.68268
1.99828
1.52333
1.68726
8.23346
-10.6643
-6.46842
7.76431
1.04146
15.7709
6.62413
34.0023
3.06684
-9.97844
-6.94987
-13.4421
9.33974
-0.984532
-3.38496
-25.8288
-11.3173
1.76776
12.8335
0.542373
1.3958
-0.143473
-0.914965
-1.03584
-0.729638
-0.999982
-1.21478
-0.939673
-0.93395
-1.60723
-1.01704
-0.543183
-0.217256
-0.517112
-1.06287
0.367197
0.398204
0.396478
0.285912
0.305698
0.333002
0.315824
-0.00194748
0.00841249
-0.0758824
0.00395917
0.0759449
0.0451312
-0.0227509
-0.0657687
-0.145558
-0.0776561
-0.109344
-0.0552672
-0.157544
-0.09002
-0.188049
-0.118471
-0.116358
-0.145526
-0.0942147
-0.132356
-0.194375
-0.215505
-0.141873
-0.148109
-0.165319
-0.117318
-0.220219
-0.163443
-0.455387
-0.384759
-0.36083
-0.417921
-0.356212
-0.310498
-0.265366
-0.29538
-0.34595
-0.14881
-0.0479199
-0.111473
-0.147568
-0.207989
-0.0949548
-0.143127
-0.134605
-0.159664
-0.22613
-0.111366
-0.0572119
-0.10913
-0.160868
-0.361658
-0.287517
-0.361123
-0.361825
-0.428694
-0.473769
-0.400048
-0.693814
-0.616814
-0.622458
-0.517464
-0.586681
-0.558569
-0.621757
-0.362945
-0.265959
-0.332027
-0.719331
-0.616966
-0.650381
-0.995611
-0.919062
-0.895253
-1.28369
-1.18844
-1.16586
-1.12096
-1.19529
-1.04966
-1.12977
-1.14323
-1.18091
-1.26334
-1.09802
-1.0314
-1.57133
-1.49699
-1.46982
-1.42758
-1.34185
-1.42278
-1.49328
-1.09904
-0.999457
-1.07855
-1.13033
-1.04417
-0.998928
-1.07392
-1.56867
-1.45191
-1.48843
-1.47365
-1.4143
-1.49075
-1.56876
-2.12586
-2.16483
-2.26452
-2.07121
-1.99234
-2.61372
-2.53792
-2.50881
-2.60604
-2.53899
-2.52475
-2.46504
-2.00809
-2.06731
-2.17636
-2.21265
-2.12985
-2.09859
-2.034
-2.54522
-2.63358
-2.54938
-2.55509
-2.64574
-2.59883
-2.51373
-2.82322
-2.77893
-2.83582
-2.84533
-2.92133
-2.86251
-2.77561
-2.84308
-2.83049
-2.75699
-2.86004
-2.93733
-2.79669
-2.95149
-2.9793
-2.96003
-2.9463
-2.95062
-2.90037
-2.91795
-2.93547
-2.9428
-2.94336
-2.9383
-2.96875
-3.00465
-2.98592
-2.91802
-2.92846
-2.90449
-2.99001
-2.96974
-2.9521
-3.08939
-3.04313
-3.09622
-3.0442
-3.03989
-3.09616
-3.06792
-3.14657
-3.07809
-3.06677
-3.19019
-3.05271
-3.15299
-3.13635
-3.05998
-3.12694
-3.19345
-3.15433
-4.25436
-3.65335
-3.92025
-3.56169
-3.83181
-3.46329
-3.84771
-1.25313
-1.11269
-1.17371
-1.27321
-1.28795
-1.33583
-1.27151
-1.1622
-1.10088
-1.10876
-1.17681
-1.11364
-1.14176
-1.10619
-1.30997
-1.29148
-1.38044
-1.34994
-1.45414
-1.36654
-1.44659
-1.18501
-1.24018
-1.1775
-1.29568
-1.3023
-1.26949
-1.27175
-1.21106
-1.21265
-1.11762
-1.0752
-1.11754
-1.15427
-1.09605
-1.07021
-1.12182
-1.17926
-1.22825
-1.17534
-1.2586
-1.25583
-1.20356
-1.20314
-1.189
-1.17471
-1.21394
-1.25242
-1.2563
-1.23235
-1.23883
-1.19679
-1.20154
-1.27226
-1.31038
-1.26711
-1.24924
-1.28781
-1.2557
-1.29441
-1.30483
-1.26393
-1.15329
-1.19882
-1.16404
-1.19746
-1.20898
-1.16174
-1.17342
-1.07223
-1.05659
-1.02508
-1.08187
-1.10826
-1.08027
-1.05336
-1.08355
-1.07081
-1.11136
-1.02426
-1.0544
-1.08193
-1.05439
-0.827883
-0.81362
-0.77883
-0.840256
-0.874341
-0.841319
-0.809405
-0.878386
-0.843426
-0.821415
-0.844707
-0.873722
-0.811045
-0.841591
-0.710856
-0.748386
-0.701117
-0.681853
-0.645832
-0.676563
-0.709837
-0.388897
-0.417521
-0.421223
-0.387667
-0.417776
-0.437209
-0.406731
-0.516801
-0.558529
-0.559564
-0.622247
-0.581005
-0.558238
-0.597992
-0.370515
-0.419029
-0.417972
-0.477678
-0.373
-0.43632
-0.225903
-0.264754
-0.280311
-0.26605
-0.2296
-0.288203
-0.303027
-0.341445
-0.265348
-0.299999
-0.0768234
-0.11241
-0.134389
0.731587
0.4065
0.628339
0.349102
0.22652
0.63696
0.511437
162.396
149.283
135.501
136.794
109.926
109.508
136.051
201.068
174.634
174.713
190.822
191.383
202.106
165.924
165.103
176.407
177.019
170.277
158.021
144.149
54.2478
67.0177
39.6058
14.0587
38.3307
39.7695
16.9886
52.3569
33.0747
8.63998
38.3038
63.6909
37.8762
13.5738
-1.91649
-2.83185
-2.5632
-1.04117
-1.45654
-1.86228
-1.64939
-1.93941
-6.43796
19.8511
13.5233
19.1191
6.06596
-11.7039
-0.710254
-4.37865
41.5235
4.95356
-3.79639
-6.62659
-98.6882
-37.141
-53.3752
-2.207
-1.19403
-2.37388
-3.74203
-3.15646
-1.98256
-3.82223
-1.32005
0.438471
-1.0866
0.00169589
-0.142356
-0.226313
-0.763449
-0.532143
-0.491749
-0.610924
-0.0485917
-2.30237
-1.46668
-1.29173
-1.65481
-1.04213
-1.19255
-0.6012
0.318017
0.256674
0.31353
0.246758
0.299485
0.286055
0.332198
0.28012
0.221545
0.283443
0.217259
0.266368
0.259121
0.304066
0.192603
0.274404
0.249457
0.280326
0.322396
0.275749
0.223489
0.0183331
0.0717079
0.0738143
0.128562
0.0743679
0.103482
0.15195
0.279865
0.337266
0.278598
0.286426
0.331745
0.0125503
0.0742063
0.0734435
0.0636514
0.00547401
0.348827
0.278656
0.348252
0.30989
0.261588
-0.00267096
0.0709708
0.0895905
0.0396883
-0.0140201
-0.149001
-0.22626
-0.165606
-0.352748
-0.450699
-0.369062
-0.268362
-0.32643
-0.0212309
-0.080892
-0.0938492
-0.11382
-0.0524789
-0.0764774
-0.0203601
-0.594817
-0.514757
-0.571018
-0.480309
-0.550365
-0.476339
-0.54398
-0.382888
-0.299551
-0.305664
-0.323282
-0.394564
-0.344068
-0.281126
-0.939054
-0.850468
-0.827953
-0.71206
-0.790803
-0.784639
-0.859191
-1.39441
-1.52434
-1.33261
-1.3009
-1.40335
-1.18366
-1.28564
-2.76434
-3.07958
-2.79108
-3.46063
-3.22089
-2.90669
-2.93572
-3.03208
-3.05238
-3.06057
-3.183
-3.05371
-3.25772
-3.25936
-3.17101
-3.33695
-3.33095
-3.10256
-2.95826
-3.19193
-3.02529
-3.08165
-2.96916
-3.22849
-3.23627
-3.22195
-3.16269
-3.16455
-3.22021
-3.29105
-3.20425
-3.17502
-3.32624
-3.16051
-3.50433
-3.30043
-3.4214
-3.12235
-3.13356
-1.98524
-2.28712
-1.80259
-2.47021
-2.59848
-3.91095
-2.21951
-6.39781
-224.318
-72.088
-72.0071
-45.1702
-42.7866
56.7609
-2.71898
-3.19731
-3.38465
-3.93384
-3.74832
-3.83345
0.416116
-4.01967
-2.88638
-2.8565
-2.64468
-4.92659
-5.27989
-4.093
-2.66671
-2.35568
-2.82239
-2.7941
-2.802
-2.5098
-2.65647
-1.89742
-1.95933
-1.59185
-2.19764
-2.24723
-2.36445
-2.29344
-1.4665
-1.54781
-1.54065
-1.50712
-1.60211
-1.65967
-1.54467
-2.01825
-1.91095
-1.93384
-1.85139
-1.9204
-2.03773
-1.95794
-1.89939
-1.98087
-1.45999
-1.52398
-1.51595
-1.51238
-1.57725
-1.5625
-1.50213
-1.53946
-1.53172
-1.60293
-1.57172
-1.55657
-1.6345
-1.62153
-1.6082
-1.62701
-1.56381
-1.58936
-1.5708
-1.53419
-1.51479
-1.4392
-1.40138
-1.38905
-1.43698
-1.45542
-1.4144
-1.39836
-1.20773
-1.23747
-1.19313
-1.17551
-1.14219
-1.1764
-1.20518
-1.0436
-1.06702
-1.07477
-1.0708
-1.10497
-1.11709
-1.08488
-0.930656
-0.901721
-0.947566
-0.945761
-0.974498
-0.958876
-0.928776
-0.984053
-0.949171
-0.989934
-0.948712
-0.904088
-0.947765
-0.945402
-0.9807
-0.997215
-0.856625
-0.821973
-0.819484
-0.821641
-0.779527
-0.770857
-0.803079
-0.821211
-0.876018
-0.841965
-0.655612
-0.693228
-0.69982
-0.727268
-0.692355
-0.75088
-0.716016
-0.710428
-0.698201
-0.746083
-0.682581
-0.647871
-0.681544
-0.713499
-0.688761
-0.64288
-0.672566
-0.559565
-0.508692
-0.54121
-0.566389
-0.548091
-0.513497
-0.584102
-0.617633
-0.581974
-0.551035
0.877721
0.931781
0.825124
0.776067
0.799832
0.8259
0.86025
1.31414
1.15518
1.62132
1.90197
1.61704
1.62159
1.56048
61.9273
50.7126
86.1012
32.9171
14.4592
34.8486
59.1495
60.1582
47.0504
72.0336
99.7124
74.0372
73.2104
98.9506
199.415
199.169
209.902
173.197
173.177
183.765
183.755
179.757
206.122
179.236
180.314
166.711
153.75
0.641707
0.59227
0.646426
0.632011
0.587362
0.664055
0.62311
0.620821
0.573949
0.629362
0.614228
0.570891
0.649574
0.610929
0.562014
0.623346
0.612351
0.604
0.643393
0.603489
0.558814
0.62548
0.610255
0.564341
0.641557
0.69197
0.647925
0.606084
0.401889
0.457212
0.456151
0.52934
0.479435
0.4986
0.453715
0.45417
0.379813
0.432189
0.450272
0.389389
0.442754
0.429739
0.469087
0.386413
0.431984
0.460605
0.403925
0.458181
0.481379
0.442379
0.39777
0.444246
0.429076
0.47968
0.481381
0.50036
0.461028
0.46871
0.422601
0.530558
0.564668
0.595408
0.475331
0.507141
0.529193
0.55636
1.20971
1.20643
1.14675
1.32222
1.2716
1.237
1.28449
1.2793
1.15092
1.39982
1.35967
1.29214
1.42946
1.48416
1.59014
1.84583
2.0905
2.01239
1.65938
0.194963
1.01303
0.638716
1.04594
1.52494
0.568975
1.07957
181.583
38.8948
58.4644
42.8037
13.2584
-3.12448
-8.48051
-2.8273
-3.40796
-3.48176
-2.30884
-1.8387
-2.30449
-2.32805
-1.69794
-1.58232
-1.83751
-1.39109
-2.11627
-1.84651
-1.51066
-2.77677
-2.83068
-2.87069
-2.92283
-2.9394
-2.95306
-2.99114
-2.94606
-3.05898
-2.95685
-2.91123
-2.95482
-2.92129
-3.21896
-3.15101
-3.00184
-3.21901
-3.05809
-3.08275
-3.24254
-3.14359
-3.2213
-3.09887
-3.16936
-3.22585
-3.30067
-2.59422
-2.53751
-2.56981
-2.59922
-2.56207
-2.61805
-2.76671
-1.87503
-1.94568
-1.89537
-1.94701
-1.97699
-1.91859
-1.89318
-1.84248
-1.80052
-1.77972
-1.84528
-1.86932
-1.81821
-1.79327
-1.74513
-1.71066
-1.68687
-1.76887
-1.79909
-1.7456
-1.72151
-1.61917
-1.59795
-1.65185
-1.67999
-1.70878
-1.65954
-1.68599
-1.61802
-1.64075
-1.75996
-1.72109
-1.71104
-1.76368
-1.72543
-1.69512
-1.73036
-1.32274
-1.30323
-1.27003
-1.37141
-1.33536
-1.33454
-1.30322
-1.2411
-1.19771
-1.21225
-1.28099
-1.32156
-1.32361
-1.35487
-1.3174
-1.37696
-1.33842
-1.14781
-1.18445
-1.17818
-1.19135
-1.14273
-1.25101
-1.05458
-1.07019
-1.0187
-1.08438
-1.1187
-1.07497
-1.05625
-1.02344
-1.05349
-1.08416
-0.925232
-0.943063
-0.893397
-0.965155
-0.996978
-0.95622
-0.939209
-0.967013
-0.967411
-0.998428
-0.703063
-0.672822
-0.722459
-0.741543
-0.769572
-0.710863
-0.737934
0.0657693
0.0396073
-0.192245
0.164811
0.226781
0.604343
0.648197
0.571883
0.524621
0.380792
0.578751
0.605632
0.300475
0.608928
0.690476
0.983941
0.84048
0.82665
0.663174
0.579547
0.695267
0.761493
0.588859
0.33707
1.74145
1.43486
1.69289
1.57847
2.59773
1.08922
1.80601
1.46153
0.695114
1.43144
1.42501
1.55231
1.51904
1.64129
6.10836
4.38
5.44519
3.12078
4.91601
-9.14439
1.14128
166.124
178.853
152.934
201.451
175.111
167.25
154.067
180.37
201.356
175.102
168.04
181.095
207.499
154.821
181.274
181.295
199.375
199.421
209.84
172.748
173.035
182.946
183.612
184.701
211.065
184.857
0.962912
0.999889
0.957475
0.939361
0.893906
0.916927
0.960516
0.962004
0.982185
1.0247
0.862666
0.822504
0.798513
0.823056
0.865672
0.786649
0.834631
1.05804
1.06544
1.09952
1.06357
1.11358
1.12394
1.07986
0.953195
0.936812
0.964216
1.00152
0.97327
0.967622
0.992843
1.49953
1.48578
1.40735
1.39102
1.5866
1.58833
1.50613
1.61774
1.71358
1.62273
1.63312
1.64239
1.7202
1.54361
1.20519
1.55181
1.48122
1.89377
1.1172
1.18918
0.843155
0.879992
1.27719
1.89037
0.502525
1.04664
1.59258
-0.515293
-1.61031
-1.5804
-1.9257
-1.57411
-1.60727
-1.76156
-1.54956
-1.50333
-1.62364
-1.35719
-1.40488
-1.66229
-1.43108
-1.22562
-1.48156
-1.63503
-2.37685
-2.4764
-2.41134
-2.44323
-2.18366
-2.44003
-2.31294
-3.25887
-2.85117
-3.19347
-2.66875
-2.55884
-2.96296
-2.97009
-3.26131
-3.33724
-3.28183
-2.94894
-2.94654
-2.90056
-2.90816
-2.90567
-2.82759
-2.84766
-3.01646
-2.94328
-2.94891
-2.83841
-2.80552
-2.92563
-2.78411
-2.80919
-2.84642
-2.88923
-2.92767
-2.88497
-2.85461
-2.85404
-2.82293
-2.82179
-2.5102
-2.44609
-2.43921
-2.48697
-2.42731
-2.36949
-2.41984
-2.38884
-2.44181
-1.93095
-1.99031
-1.96533
-1.97291
-2.0115
-1.97069
-1.93515
-1.83092
-1.79872
-1.8562
-1.80451
-1.8355
-1.83892
-1.87367
-1.68108
-1.72354
-1.7301
-1.76176
-1.72274
-1.79025
-1.74833
-1.62383
-1.58808
-1.58421
-1.54205
-1.58391
-1.56366
-1.52832
-1.64583
-1.58727
-1.60544
-1.45467
-1.40009
-1.45317
-1.44091
-1.47061
-1.50415
-1.30064
-1.3201
-1.27338
-1.23065
-1.20202
-1.18182
-1.23099
-1.20261
-1.16966
-1.19807
-0.905097
-0.868031
-0.899151
-0.852925
-0.891966
-0.848293
-0.896656
-0.687891
-0.745185
-0.738316
-0.719448
-0.765701
-0.77719
-0.734852
-0.963644
-0.941616
-0.890643
-0.927285
-1.02223
-0.959968
-0.897561
-0.814594
-0.865926
-0.825739
-0.948765
-0.91485
-0.926184
-0.904566
-0.727952
-0.670016
-0.549171
-0.670891
-0.837256
-0.798538
-0.65377
-1.68793
-1.74953
-1.91597
-1.50138
-1.97599
-2.07909
-1.71792
-0.801516
-0.822375
-1.0531
-1.30866
-1.26912
-1.64969
-1.63662
-1.13059
-1.54328
-2.09597
-1.71916
-1.23374
-0.0373985
0.0473841
0.10914
0.148323
-0.0972142
0.155024
-0.0479409
-0.6609
-0.103405
-0.0045442
-0.627349
-0.908895
-0.364706
-0.207251
166.013
153.013
179.369
197.047
170.205
162.842
176.836
149.894
197.524
170.722
166.144
179.859
205.554
153.15
179.18
178.301
193.005
193.5
203.522
166.361
166.664
176.55
177.102
179.421
206.696
180.327
1.36981
1.42886
1.41237
1.45493
1.49219
1.41702
1.45359
1.28725
1.31958
1.27818
1.24116
1.28053
1.21571
1.25744
1.11513
1.12057
1.07711
1.18264
1.14227
1.15686
1.11816
1.28863
1.30244
1.34424
1.05273
1.09409
1.11226
1.05216
1.10066
1.11152
1.12859
1.09445
1.09412
1.05315
1.13885
1.1777
1.11942
1.10038
1.05561
1.14075
1.09965
1.181
1.14103
-0.925517
-0.943611
-0.895588
-0.897182
-0.872213
-0.927221
-0.934667
-0.974265
-1.03269
-1.00596
-1.00401
-1.05705
-1.01129
-1.06493
-2.11567
-2.06843
-2.01681
-1.98638
-2.00451
-2.09628
-2.06214
-2.80451
-2.78025
-2.83089
-2.55928
-2.48091
-2.51602
-2.59659
-2.54016
-2.4937
-2.53566
-2.84392
-2.90346
-2.84053
-2.79611
-2.74252
-2.84021
-2.90391
-2.84543
-2.79172
-2.86318
-2.93134
-2.86434
-2.92949
-2.89673
-2.90029
-2.87494
-2.87103
-2.84279
-2.85238
-2.85168
-2.83792
-2.80653
-2.88225
-2.92664
-2.85092
-2.82777
-2.87484
-2.87401
-2.9154
-2.87362
-2.86325
-2.91547
-2.86655
-2.83529
-2.87609
-2.35659
-2.39552
-2.33736
-2.34339
-2.31316
-2.35196
-2.39058
-2.02213
-1.95912
-2.01827
-1.99924
-2.04006
-2.08856
-1.86595
-1.81603
-1.87218
-1.88617
-1.92672
-1.85046
-1.89232
-1.93249
-1.7015
-1.71889
-1.66761
-1.55635
-1.60436
-1.57495
-1.53541
-1.56008
-1.59818
-1.57043
-1.57936
-1.62059
-1.57669
-1.5926
-1.5597
-1.62382
-1.58661
-1.42584
-1.45216
-1.44375
-1.4923
-1.46058
-1.48968
-1.4597
-1.42133
-1.44843
-1.41085
-1.42886
-1.46655
-1.47309
-1.43561
-1.34958
-1.31888
-1.30606
-1.25542
-1.28572
-1.31568
-1.2871
-1.30576
-1.2859
-1.26247
-1.30188
-1.28009
-1.24907
-1.26999
-1.06845
-1.02862
-1.05767
-1.10082
-1.07785
-1.05422
-1.07855
-1.02706
-1.04226
-1.05823
-1.0663
-1.04816
-1.03125
-1.04707
-0.957154
-0.983835
-0.992096
-0.978807
-1.00229
-1.01578
-0.994574
-0.99063
-0.983879
-1.00595
-1.01462
-1.0185
-1.08631
-1.07312
-1.10203
-1.11594
-1.14455
-1.08059
-1.07498
-1.13509
-1.12226
-1.00005
-1.00858
-1.02603
-1.05579
-1.03559
-1.00503
-1.01527
-1.03417
-1.02201
-1.31768
-1.28413
-1.36758
-1.43806
-1.52461
-1.34028
-1.4055
-1.90716
-2.01244
-1.8768
-2.18283
-2.32346
-2.24205
-2.16534
-1.72746
-1.57777
-1.52931
-1.59909
-1.49732
-1.58691
-1.7465
-2.3582
-2.05532
-2.00587
-1.97611
-2.19319
-2.14899
-2.40786
-2.57815
-2.80312
-3.22025
-3.56921
-3.38158
-3.10449
-2.89982
-3.39339
3.58875
6.45418
5.846
2.71243
2.10417
4.98149
159.704
146.693
173.638
193.381
167.223
159.252
146.064
172.304
193.382
167.071
160.088
173.59
199.509
146.937
173.143
173.146
176.933
203.033
176.721
194.33
168.005
160.118
146.976
172.849
168.098
194.071
143.876
117.962
157.244
170.531
196.624
143.961
170.151
170.435
47.7048
1.98729
34.8482
59.9525
33.4438
9.68666
32.1876
42.0446
56.4968
31.3076
3.09727
14.1827
23.362
12.501
3.07645
2.46051
1.5765
3.16582
1.97657
0.794078
1.72836
1.76666
2.71645
2.26863
2.15848
2.37997
2.40554
2.23211
2.5068
2.63919
2.52086
2.36666
2.14565
2.15849
2.12674
2.15776
2.16554
2.15711
2.15131
2.03549
2.06264
2.02531
2.04467
2.00916
2.01846
1.97774
1.73792
1.67968
1.71927
1.75464
1.72464
1.67926
1.71516
1.74918
1.78397
1.7274
1.71327
1.67616
1.71289
1.74866
1.5681
1.52319
1.58366
1.60466
1.56684
1.60268
1.64006
1.52243
1.57553
1.56363
1.57857
1.61361
1.54299
1.57943
1.5592
1.52308
1.58334
1.63864
1.60298
1.39296
1.43796
1.44575
1.43092
1.4674
1.45794
1.49648
1.37113
1.41366
1.4306
1.41004
1.37034
1.56633
1.57961
1.52536
1.60213
1.63703
1.60212
1.5668
1.85645
1.81035
1.85343
1.87467
1.84557
1.80907
1.84432
1.92277
1.88069
1.89803
1.86115
1.8247
1.89214
1.8636
2.31329
2.16805
2.5067
2.23522
2.03605
2.13177
1.88073
50.175
63.1361
88.9446
4.04992
3.7906
5.44726
3.27826
1.87878
6.32853
4.69181
3.52732
1.92027
2.7533
23.5526
30.8713
49.4691
51.6744
81.8906
57.8823
38.8479
2.09863
2.13967
2.12637
2.11976
2.08605
2.11035
2.13621
2.15931
2.15374
2.11885
2.17498
2.17047
2.1736
2.15333
2.0446
2.04287
2.11171
2.09063
2.07282
2.07211
2.10766
0.608494
0.210909
0.260158
0.321228
0.129494
0.148028
0.384864
-0.827702
-0.487885
-0.567158
-0.659576
-0.319319
-0.358172
-0.607205
0.826087
0.734751
0.645019
0.471677
0.63705
0.741454
0.643835
0.600094
0.424027
0.82099
0.963893
1.10307
0.904771
0.553703
0.878693
1.15117
5.41391
-8.50757
-21.9065
5.63291
-3.3862
7.56078
0.281132
-10.1394
-9.05785
-10.2641
2.9481
-24.8741
9.02505
-4.21459
8.49893
-2.73387
3.00745
5.71874
-7.11736
9.67696
5.70141
1.98376
1.66348
1.77605
-0.0750187
-0.277065
-1.16467
1.11771
-0.566559
-0.200189
-1.0675
-0.329779
-0.566067
-0.810665
-0.864303
-0.872287
-0.786743
-0.788164
-0.844595
-0.83881
-0.9232
-0.89328
-0.944358
-0.95588
-0.903574
-1.44398
-1.4727
-1.42728
-1.52071
-1.52784
-1.49464
-1.48308
-1.69637
-1.71366
-1.68609
-1.76578
-1.79068
-1.77038
-1.74758
-1.87594
-1.95008
-1.89595
-1.90105
-1.96887
-1.93432
-1.87953
-2.28619
-2.24291
-2.20429
-2.18013
-2.20832
-2.27247
-2.23562
-2.43467
-2.36
-2.39711
-2.46692
-2.51721
-2.64582
-2.57377
-2.61915
-2.66805
-2.62721
-2.58199
-2.62396
-2.8094
-2.86112
-2.84555
-2.77086
-2.82438
-2.82006
-2.77005
-2.93383
-2.88911
-2.88271
-2.85091
-2.78258
-2.8323
-2.9058
-2.86144
-2.88288
-2.83974
-2.80564
-2.85158
-2.9071
-2.9056
-2.93163
-2.88222
-2.86093
-2.78278
-2.82688
-2.85257
-2.87461
-2.93297
-2.88819
-2.89269
-2.61152
-2.68238
-2.65435
-2.65296
-2.69713
-2.6547
-2.61271
-2.68278
-2.73035
-2.67198
-2.68477
-2.6349
-2.65649
-2.61359
-2.6903
-2.76666
-2.71501
-2.51284
-2.43715
-2.50807
-2.48642
-2.53125
-2.58338
-2.40271
-2.36044
-2.34112
-2.2788
-2.31492
-2.40384
-2.36474
-2.32173
-2.35528
-2.33969
-2.28602
-2.35339
-2.36345
-2.40976
-2.327
-2.37166
-1.7336
-1.75938
-1.78981
-1.84253
-1.81251
-1.76864
-1.79424
-1.81618
-1.83062
-1.85895
-1.87996
-1.83369
-1.88878
-1.84338
-1.67139
-1.64636
-1.61681
-1.59522
-1.61547
-1.63707
-1.66065
-1.60461
-1.65132
-1.6459
-1.70005
-1.65116
-1.52685
-1.50673
-1.52964
-1.57665
-1.55177
-1.545
-1.57083
-1.48855
-1.5215
-1.47895
-1.48611
-1.528
-1.53917
-1.49711
-1.41841
-1.39468
-1.37283
-1.32915
-1.35501
-1.36606
-1.38785
-1.28332
-1.32546
-1.31335
-1.24277
-1.24002
-1.33453
-1.33488
-1.29885
-1.34073
-1.37675
-1.36007
-1.32483
-1.23722
-1.22134
-1.23725
-1.2768
-1.26177
-1.25179
-1.26928
-1.13828
-1.17608
-1.17919
-1.12217
-1.12812
-1.16131
-1.16103
-1.05854
-1.05931
-1.02743
-1.01127
-1.01273
-1.02514
-1.02369
-1.04571
-1.04144
-1.11147
-1.08155
-1.08544
-1.09787
-1.07442
-1.08919
-1.11207
-0.964199
-0.962707
-0.99877
-0.970682
-0.990857
-1.02368
-1.02725
-1.039
-1.0189
-1.01423
-1.02541
-1.01437
-0.979108
-1.04314
-1.06784
-1.03356
-1.07509
-1.08261
-1.07978
-1.75943
-1.84152
-1.75016
-1.61276
-1.60797
-1.73218
-1.70409
-2.50426
-2.50316
-2.31544
-2.73165
-2.74454
-2.4983
-2.67475
-3.11473
-3.53872
-3.00762
-2.62021
-2.52669
-2.97494
-2.76785
-5.14731
-4.57403
-4.77809
-5.01032
-5.05315
-5.58764