/*--------------------------------*- C++ -*----------------------------------*\
| =========                 |                                                 |
| \\      /  F ield         | OpenFOAM: The Open Source CFD Toolbox           |
|  \\    /   O peration     | Version:  v2012                                 |
|   \\  /    A nd           | Website:  www.openfoam.com                      |
|    \\/     M anipulation  |                                                 |
\*---------------------------------------------------------------------------*/
FoamFile
{
    version     2.0;
    format      ascii;
    class       surfaceScalarField;
    location    "0.1";
    object      phi;
}
// * * * * * * * * * * * * * * * * * * * * * * * * * * * * * * * * * * * * * //

dimensions      [0 3 -1 0 0 0 0];
oriented        oriented;


internalField   nonuniform List<scalar> 
13152
(
1.49139e-06
3.36625e-05
-2.45148e-06
-3.27024e-05
3.10282e-05
-2.86136e-05
-9.23186e-07
-5.81709e-06
7.05078e-05
-5.77517e-05
5.89437e-05
-3.64351e-06
3.53478e-05
-0.000125802
4.74914e-05
-4.07573e-05
0.000100618
-2.69318e-05
-4.93417e-05
-4.73383e-05
0.000123612
6.28513e-07
-2.80794e-05
5.1911e-07
-4.98343e-05
1.12114e-06
1.31106e-05
8.60705e-06
-4.9797e-05
1.30802e-05
5.49527e-07
-8.45423e-06
-2.58039e-05
-4.96815e-05
-1.44151e-05
-2.45013e-05
-8.57403e-06
4.74904e-05
-9.56189e-08
-1.44462e-05
1.26722e-07
-2.37009e-05
-8.96007e-07
9.41251e-06
-5.09481e-05
2.70894e-05
-4.90574e-05
4.98958e-05
4.89628e-05
-9.90616e-07
4.58943e-08
-2.53003e-05
-4.9816e-05
1.80357e-07
-0.000124913
5.35492e-07
2.66807e-05
5.0363e-05
6.83407e-08
0.000124534
5.97415e-05
2.11926e-05
4.22333e-05
-0.000123167
5.17038e-07
-1.04875e-06
6.02732e-05
2.07865e-05
4.27273e-07
-3.13395e-05
0.000122634
0.000129552
4.85169e-05
-1.17526e-06
-4.89326e-05
1.59097e-06
-2.73145e-05
-4.48746e-05
0.000120706
3.37032e-07
-2.88268e-05
-1.34642e-05
1.33348e-05
4.66386e-07
8.78962e-06
-5.10806e-05
-8.25924e-06
-2.32805e-05
-4.84022e-05
-2.30335e-05
2.1939e-07
4.85197e-05
3.36861e-07
-6.20296e-07
8.61603e-07
-2.03245e-06
1.79115e-06
-6.25581e-07
-6.16899e-08
6.69752e-08
-1.70223e-08
2.53044e-07
1.31017e-06
-1.2758e-06
-9.60602e-08
-2.9072e-09
-7.19372e-07
-6.96035e-08
-6.8724e-08
1.21305e-07
-4.59733e-08
2.29414e-07
-7.61118e-08
-1.24567e-06
-1.47743e-07
-9.86006e-07
1.0537e-05
-3.60005e-06
-5.95091e-06
1.58698e-05
-5.76324e-06
-1.10926e-05
-1.19303e-05
-1.77619e-05
3.6056e-06
1.60522e-06
-1.09741e-05
5.79564e-07
-5.74016e-07
-1.18484e-05
4.97648e-07
-2.8005e-05
-3.7716e-06
-6.98109e-06
-9.28326e-07
1.1681e-05
-7.52589e-07
-3.49584e-06
4.76831e-07
-7.13048e-06
-6.03204e-07
1.27269e-05
9.42765e-06
-2.9285e-05
1.24596e-05
-3.35931e-07
-5.98326e-06
1.75146e-05
-5.14497e-08
8.75766e-06
9.2973e-06
9.93403e-06
-2.7989e-05
6.90136e-07
9.57758e-06
-1.51006e-06
9.17112e-06
8.16307e-07
2.829e-07
1.02174e-05
-9.22688e-07
9.45532e-06
7.61611e-07
-9.0058e-06
2.83943e-05
1.26582e-06
-7.98896e-05
-6.24896e-05
-1.57515e-05
0.000158131
-2.29508e-06
-4.20587e-05
-3.55357e-05
-2.81632e-06
-6.19685e-05
9.15624e-05
-1.73408e-05
-0.000116281
-7.67798e-05
0.000152591
-8.65485e-05
6.95235e-06
-0.000165858
-4.02693e-06
-5.26279e-06
-2.54186e-06
1.18316e-05
-9.64369e-06
5.25868e-06
3.57891e-07
5.61296e-06
-2.05194e-05
3.77722e-05
1.17635e-05
-5.20776e-05
2.88536e-05
2.07499e-05
-3.74013e-05
7.15135e-05
-2.00248e-05
-5.0426e-06
-6.2877e-06
-5.53929e-06
1.68696e-05
-2.9761e-07
-7.64284e-06
2.89783e-06
-3.35556e-06
-3.22977e-06
-3.66318e-06
6.4887e-06
-6.18113e-06
1.10198e-05
-1.79127e-05
1.05722e-05
-1.17264e-05
1.60527e-05
-3.98428e-07
-9.73286e-09
7.94963e-07
-3.86802e-07
1.55029e-06
-1.00059e-06
-9.48126e-07
2.38331e-07
1.30223e-06
-2.20115e-07
2.72516e-07
-1.05299e-06
-1.03747e-06
-1.30769e-07
-1.06158e-06
2.62442e-07
5.89545e-09
5.00564e-08
-3.7344e-08
-3.55673e-08
2.28549e-08
-1.51946e-07
-3.19915e-08
2.33993e-07
-6.34876e-08
-1.25802e-07
-7.686e-09
-1.90111e-07
1.65805e-07
-1.61158e-07
1.17904e-07
-5.08827e-08
-2.02715e-07
-3.37842e-07
2.90283e-08
6.44509e-08
3.94895e-07
-4.88374e-07
-5.88854e-08
1.41755e-07
-5.38412e-08
6.38276e-09
-8.17288e-10
-1.19971e-07
6.56621e-07
2.84102e-07
-3.9769e-07
2.29443e-07
-5.36391e-05
5.25603e-05
8.66802e-07
2.11998e-07
8.03436e-05
4.70049e-05
7.3508e-05
8.80489e-06
0.000124099
4.36705e-06
1.72352e-05
2.54027e-05
2.62313e-05
5.16436e-05
-1.70174e-05
5.20537e-05
1.08465e-06
4.30676e-05
-5.47811e-07
-4.09772e-05
-1.54302e-06
-4.10068e-05
-4.49316e-05
0.000129006
-1.1931e-06
-4.03615e-05
-4.22502e-05
4.40442e-05
-2.98711e-06
4.23323e-05
-0.000124944
-3.07158e-06
2.18415e-06
-1.7165e-06
-1.11026e-05
-0.000191797
6.90505e-05
0.000133849
-0.000122819
4.50607e-05
6.66566e-05
0.000141804
0.000211095
4.41426e-05
3.15155e-06
-2.23356e-06
-1.87076e-05
0.000131901
0.000135575
9.37985e-06
0.000327964
3.12818e-06
7.28533e-06
-3.30683e-06
-7.10668e-06
7.78627e-06
-1.40197e-05
9.3616e-06
-6.80922e-06
2.18808e-05
-7.27061e-06
1.38204e-05
-9.85667e-06
6.56476e-06
-2.0942e-05
1.4173e-05
-2.16279e-05
2.11842e-05
-7.30554e-06
-5.81127e-06
-7.99473e-06
2.11115e-05
4.27057e-06
-4.7783e-06
-6.79782e-06
-1.44507e-05
1.291e-05
-4.65045e-06
1.50916e-05
-1.52195e-05
7.41637e-06
-1.88646e-05
1.27965e-05
-1.98308e-05
1.98934e-05
4.91306e-06
1.69845e-05
-5.15543e-06
-1.67422e-05
7.82586e-06
-7.07585e-06
4.16303e-06
9.19883e-08
2.47185e-05
1.36243e-05
1.09525e-06
-2.17955e-05
4.82826e-06
1.29591e-05
-1.07041e-05
1.56243e-05
-1.47643e-05
1.62142e-06
-6.66961e-06
-1.20885e-05
1.71367e-05
-7.89694e-06
-1.20552e-05
2.15736e-05
-7.14629e-06
-7.42028e-06
1.04638e-07
-5.21567e-06
-6.97748e-06
-5.30778e-06
-6.64281e-06
1.48505e-06
1.07968e-05
-1.94281e-05
1.04575e-05
-1.63928e-05
3.04635e-07
5.18437e-06
5.54653e-06
8.59461e-06
-8.00045e-06
-7.19681e-06
6.60263e-06
-2.24028e-05
3.70325e-06
2.72943e-05
-4.06858e-06
-2.63348e-05
1.68966e-05
-2.51999e-06
4.18776e-06
1.93115e-05
-1.65717e-05
2.44627e-05
-2.31602e-05
-5.74253e-06
-6.1407e-06
-1.56242e-05
2.75074e-05
-5.53729e-06
-2.05326e-05
2.03274e-05
-5.1088e-06
-6.56921e-06
-2.27437e-05
-1.9226e-05
2.63454e-05
-1.39947e-05
-2.92816e-05
-4.39428e-06
1.48497e-05
-1.55642e-05
1.69119e-05
-2.78754e-05
-1.2589e-05
1.55061e-05
-1.69653e-05
-4.16615e-05
-2.59437e-05
-1.25415e-05
8.01469e-05
3.12084e-06
-4.6686e-05
1.90372e-06
-2.45492e-05
1.7262e-06
-1.46361e-05
-9.13144e-06
1.12259e-05
-7.72767e-06
-5.35946e-05
4.50943e-05
-7.35336e-06
-6.22901e-05
2.90434e-05
1.7777e-05
-1.24615e-05
3.23734e-05
-2.75425e-05
2.86793e-05
5.23779e-05
1.89384e-05
-9.9996e-05
2.32129e-05
2.12538e-05
-1.57874e-05
3.04781e-05
4.5113e-05
-5.22274e-05
-1.23087e-05
8.57899e-05
-6.61114e-05
-7.24307e-05
9.06003e-05
-0.000119604
4.13305e-05
-3.39142e-05
-3.29577e-05
2.55414e-05
-0.000106326
2.49852e-05
0.000122672
6.227e-06
-0.000146467
8.70468e-05
-2.82471e-05
-9.17571e-05
1.66203e-05
9.59674e-05
-6.93824e-05
0.000110988
-9.14024e-05
-7.26995e-05
-3.66151e-05
6.23272e-05
4.69875e-05
8.62064e-05
7.05756e-05
-0.000229481
0.000148344
-9.87524e-05
-2.60387e-05
-5.81008e-05
-9.25167e-05
0.000113466
9.9961e-05
-0.000121902
0.000190204
0.000114659
0.000108362
0.000108462
-0.000331483
-1.57395e-06
0.000105181
1.10521e-05
0.000106229
5.5896e-07
-0.000101521
-0.000106032
0.000313782
-0.000108536
7.57443e-06
3.81825e-06
-3.89333e-06
2.96763e-06
3.00059e-05
-2.38863e-06
-2.92938e-05
1.67647e-06
-4.88712e-05
-1.33763e-05
9.22534e-05
-4.31577e-05
-8.10211e-06
4.92996e-05
1.04199e-05
-8.90132e-05
3.86502e-05
1.23258e-05
-6.16936e-05
8.69676e-05
-9.44314e-05
1.47e-05
-1.51028e-05
-3.60558e-05
3.64587e-05
-3.00191e-05
-4.4294e-05
-2.91108e-05
-1.60111e-05
2.2002e-05
-3.68011e-05
-2.94949e-05
-5.66366e-05
4.25828e-05
-1.53647e-06
-8.4211e-05
-5.43485e-05
-1.34102e-05
2.40813e-05
1.9501e-05
-3.01719e-05
4.271e-05
-1.14861e-05
-4.4634e-05
1.58411e-05
5.09502e-05
-4.8692e-05
1.56932e-05
5.24998e-05
6.92585e-06
3.69984e-05
-4.15586e-05
6.85325e-05
-1.09148e-05
-2.74823e-05
5.49872e-06
3.28984e-05
-1.05472e-05
-1.3619e-05
1.32514e-05
-8.20055e-06
-2.98291e-05
3.58568e-05
-3.75377e-06
-4.57222e-05
6.88818e-06
4.22202e-05
2.58992e-05
-3.78535e-05
3.82861e-05
-1.05962e-05
9.61953e-06
1.17964e-05
-1.08198e-05
2.70194e-05
-1.03213e-05
1.1403e-05
2.52359e-05
-3.04339e-05
1.05422e-05
3.16882e-05
-9.31778e-06
-3.19359e-05
-8.05525e-06
-2.18046e-07
1.88154e-05
5.31287e-07
-1.79043e-05
7.44038e-06
-1.72303e-05
1.86253e-05
-7.87878e-06
5.38348e-06
-5.67013e-06
8.16544e-06
1.8056e-05
-1.21628e-06
7.15338e-06
1.62861e-05
1.85849e-05
-4.94359e-06
2.299e-06
2.44514e-05
1.66159e-05
-2.27758e-05
2.60682e-05
9.14605e-06
-1.50796e-06
-8.80962e-06
1.17154e-06
-1.59046e-05
-2.46286e-06
2.75135e-05
-1.06905e-05
-6.72206e-06
1.52346e-05
2.81356e-06
-2.68577e-05
1.19505e-05
4.45566e-06
-1.7939e-05
2.74265e-05
-2.5816e-05
5.11701e-08
1.09231e-08
-5.39479e-08
-8.14527e-09
-5.54906e-08
3.77138e-08
6.89469e-08
1.224e-07
-1.66967e-07
3.97727e-08
-6.02529e-08
-3.34678e-08
3.89524e-08
3.85342e-08
-5.42109e-07
2.16824e-07
4.47684e-07
3.29223e-08
-7.41999e-07
-1.56103e-07
4.11879e-07
-1.83433e-07
2.24397e-07
1.86325e-07
-4.10677e-07
-4.48483e-11
-1.1832e-06
-3.50435e-07
1.75803e-06
-2.4338e-07
-7.53496e-07
3.62492e-07
1.41337e-06
-2.12629e-06
1.27145e-06
-1.31963e-06
-1.51414e-06
2.68412e-06
-9.9619e-07
1.19301e-05
2.58761e-06
2.67155e-06
-1.71892e-05
5.20294e-07
4.79609e-06
6.61368e-06
1.07909e-06
2.02882e-06
1.48163e-06
9.6009e-07
-1.36264e-06
-6.13403e-07
4.12385e-06
-7.42657e-06
-1.80161e-06
1.40243e-05
-2.31029e-06
-2.44473e-06
-9.82106e-07
1.40585e-07
-3.90579e-06
6.88361e-07
-6.25515e-07
1.69519e-06
-6.31315e-07
-3.38312e-06
1.25734e-06
7.77649e-06
1.15542e-05
-2.05881e-05
-2.13327e-07
4.38612e-06
-2.91541e-06
1.21265e-06
6.35053e-06
2.91435e-07
1.97451e-06
2.12005e-06
-9.22636e-07
-1.70132e-06
-8.43727e-06
8.7273e-06
5.09151e-06
-1.91163e-05
-1.08746e-05
-2.96789e-06
3.29588e-05
2.13861e-06
-1.36795e-05
-7.57538e-06
1.92609e-06
-1.0662e-05
2.15601e-05
-2.61588e-06
-3.26238e-05
-1.34341e-05
3.20263e-05
-1.8501e-05
6.99302e-06
-3.17789e-05
8.33896e-05
2.53595e-06
-8.47245e-05
-1.20102e-06
-5.05774e-05
-2.63991e-05
0.000160366
-4.3817e-05
-4.22461e-06
1.91674e-05
-2.32751e-05
-8.06168e-05
-1.92111e-05
1.19792e-05
3.91414e-05
9.37676e-06
-9.23352e-05
4.06329e-05
-5.71602e-06
-6.34613e-06
2.77678e-05
-2.02445e-05
4.96252e-07
-1.64221e-05
1.5354e-05
5.71826e-07
-1.85507e-05
1.63074e-05
2.73955e-06
1.6931e-05
-5.19038e-05
-1.79074e-05
-1.46465e-05
4.79079e-05
-1.54379e-05
-1.89775e-06
-3.99603e-06
5.65688e-06
-2.50287e-06
4.05443e-06
1.45342e-05
2.00334e-06
-2.05919e-05
3.23705e-06
7.30616e-07
8.67669e-08
-1.36442e-06
1.91357e-05
-2.24655e-06
-1.05603e-05
1.35375e-05
-7.54877e-06
5.389e-06
-6.5482e-06
-2.365e-06
-1.51052e-05
7.54487e-06
1.63364e-05
-1.54221e-05
-8.45917e-06
-2.35407e-06
2.24352e-06
7.6554e-06
-6.60961e-06
3.25843e-06
-4.80073e-06
3.78583e-06
-4.454e-06
1.53678e-05
7.71985e-06
8.03099e-06
-2.05516e-05
2.89493e-06
3.7092e-07
-1.96866e-05
1.59719e-05
-2.70777e-05
5.42619e-06
2.93737e-06
-2.44423e-05
1.60788e-05
1.45486e-05
-9.79361e-06
6.71193e-07
1.29792e-06
1.61881e-05
3.46884e-06
-1.3566e-05
-1.43451e-05
-4.12249e-06
-2.20228e-06
1.31867e-05
1.7428e-05
-2.93168e-05
5.69916e-06
2.36756e-05
-6.71211e-06
8.2888e-06
-2.85013e-06
-1.12701e-09
-1.55495e-08
-4.85389e-08
6.52155e-08
-8.63417e-08
4.13794e-08
4.38352e-08
-1.65326e-08
-8.53586e-08
-4.13082e-08
-1.57549e-07
2.40236e-07
-2.19491e-07
1.29644e-07
-1.4094e-07
-3.3141e-08
-4.4579e-07
1.06902e-07
1.17148e-07
-2.57518e-07
-2.09471e-08
5.23883e-08
7.54611e-08
8.8056e-08
4.02774e-08
1.16726e-07
1.312e-07
-1.09314e-07
-1.08024e-07
6.29217e-07
-1.10322e-07
1.32208e-07
-1.42885e-07
-5.83837e-07
-7.98833e-08
5.15565e-07
5.51526e-07
-9.87208e-07
1.42655e-06
-5.29669e-07
-9.76768e-07
4.47781e-07
1.49434e-06
-1.82002e-07
8.25178e-09
6.21531e-07
-4.81986e-07
1.79432e-06
2.17476e-06
-2.69618e-06
2.2443e-06
1.92522e-05
-9.48213e-07
2.01252e-06
-2.03165e-05
-7.00827e-06
-6.31613e-07
2.68921e-05
-2.01648e-06
-5.94001e-06
-3.14083e-06
-3.89266e-06
5.01701e-06
-9.48199e-06
4.01154e-07
-1.61862e-05
1.1662e-05
-2.36557e-05
-1.99336e-05
-1.23452e-05
-1.863e-05
5.09087e-05
1.06354e-05
-1.12294e-05
-1.93396e-05
-2.70036e-05
2.52938e-05
-1.12367e-05
3.22828e-05
-3.22755e-05
2.27129e-05
-5.32891e-05
-3.21949e-06
1.19537e-05
2.35486e-05
1.14103e-05
8.08309e-06
3.42324e-06
-1.90165e-05
-3.25294e-06
2.86782e-05
-2.75298e-06
-2.42732e-05
-1.65196e-06
-2.44941e-05
-2.5882e-05
7.90541e-05
-1.34629e-06
-2.59008e-05
-2.85862e-05
2.81664e-05
-9.26626e-07
3.17198e-05
-8.62067e-05
-7.60259e-06
9.88705e-06
-1.55939e-07
-2.38551e-06
-4.45213e-05
1.4959e-05
3.19478e-05
-1.89183e-05
1.19997e-05
4.53299e-06
-2.79052e-05
-3.55344e-05
1.31182e-05
-1.5141e-05
1.40225e-05
-1.67713e-05
3.44226e-05
-8.93358e-07
-5.43824e-06
-8.80937e-06
-2.12937e-07
-1.74518e-05
1.17192e-05
-3.98374e-05
2.124e-05
4.92899e-05
1.13214e-06
-4.89812e-05
-1.44079e-06
-4.86817e-05
-5.16296e-05
0.000149601
-5.08419e-05
3.29241e-06
4.59841e-05
5.16393e-05
-0.000146605
5.01679e-05
-5.62465e-06
3.32349e-06
-4.78506e-06
4.12082e-06
7.3126e-07
-5.28396e-05
-9.36335e-07
5.30447e-05
-5.37298e-05
5.23856e-05
2.07555e-06
5.13845e-05
-0.000157954
5.46935e-05
-5.25476e-05
-3.08227e-06
-5.20171e-05
0.000159755
-1.83795e-06
2.20639e-06
-3.00101e-06
-5.52553e-06
1.27861e-05
-1.2168e-05
4.90747e-06
2.59699e-05
-1.0691e-05
-2.08044e-05
2.38733e-07
3.85172e-05
2.45517e-05
3.89482e-08
-3.67587e-05
1.38328e-05
1.56264e-05
2.59555e-05
-3.66075e-05
4.0027e-05
1.39278e-05
1.25544e-05
1.09465e-05
-3.74287e-05
5.94133e-06
2.39977e-05
-1.60112e-05
5.14601e-06
1.33497e-05
-2.55817e-05
1.08925e-05
3.86867e-05
2.3104e-05
-3.77393e-05
1.6333e-05
1.1917e-05
4.05753e-05
-2.94058e-06
1.25193e-05
2.60018e-06
-1.21789e-05
2.29185e-05
-1.44204e-05
-1.14386e-05
-2.90051e-06
3.83383e-05
-2.17623e-05
1.59812e-05
8.3813e-06
2.67004e-06
-3.66113e-05
2.58364e-05
-3.75867e-05
3.89171e-05
2.15495e-05
1.7817e-06
-1.69191e-05
-6.4121e-06
-1.37837e-05
-1.4369e-06
3.67702e-05
1.5639e-06
-1.35659e-05
6.01179e-06
-4.30135e-06
-1.86295e-05
-4.38165e-06
8.95648e-06
-2.07424e-05
1.70009e-05
5.30541e-06
1.23949e-06
-3.55479e-05
-5.97057e-06
1.85898e-05
-9.03239e-06
2.04782e-05
5.05853e-07
-1.5637e-05
-5.34702e-06
-1.25296e-05
-4.62518e-06
3.76329e-05
3.43437e-07
-1.23672e-05
-2.00436e-05
1.82055e-05
2.18152e-06
4.67049e-06
-3.70812e-05
-2.52823e-05
3.88627e-05
-3.62488e-05
-7.64816e-06
-7.73048e-07
4.88007e-07
7.9332e-06
1.53115e-05
1.55982e-05
-3.85579e-05
1.52889e-05
-7.505e-07
4.04938e-06
-4.07239e-06
5.11015e-07
-2.80492e-06
1.47875e-05
2.68989e-06
8.83587e-06
1.51739e-05
7.0754e-07
1.26735e-05
-5.33672e-07
-1.28473e-05
1.42011e-05
-1.30196e-05
-4.74028e-07
-1.41202e-05
4.09949e-05
-1.36152e-05
1.23311e-05
1.24049e-05
-3.88675e-05
2.11755e-06
-2.73229e-06
3.28389e-07
-8.01957e-07
-1.01091e-05
4.73112e-07
1.04379e-05
-1.63555e-05
1.61655e-05
-6.11811e-07
1.47378e-05
-4.12024e-05
4.11572e-06
-4.12632e-06
4.8372e-07
-3.08735e-06
1.7641e-05
-2.85901e-06
1.59371e-05
7.75236e-06
4.30398e-06
1.00073e-05
2.81886e-06
-1.71302e-05
5.09166e-07
4.18493e-06
-3.90115e-07
1.00075e-05
5.08897e-07
2.97007e-06
1.59419e-05
-1.60931e-05
1.42719e-05
-7.11683e-06
-1.69229e-05
-4.72185e-07
-7.20522e-06
-1.6479e-05
4.13253e-05
1.03088e-06
4.88991e-07
7.65015e-07
-1.57645e-05
-1.09356e-06
-6.74194e-06
-3.96367e-05
-9.10561e-06
-1.14941e-05
-2.16185e-06
2.27616e-05
-1.76325e-06
-7.31497e-06
-2.73936e-08
-2.00078e-06
-1.12566e-05
1.2209e-05
-1.30038e-05
-6.52016e-06
-1.9765e-05
2.98121e-05
-1.90493e-05
-2.71641e-06
-4.33097e-05
9.54417e-07
1.08854e-05
-1.08373e-05
-1.0025e-06
4.38467e-06
-4.82418e-06
1.39392e-06
-6.41904e-06
2.16892e-05
1.48386e-05
1.67036e-05
-4.23796e-05
1.52241e-05
-1.38792e-06
-2.28493e-06
1.41643e-05
1.47348e-05
-1.48119e-05
1.47109e-06
-6.74988e-07
-1.35585e-05
-2.95822e-08
1.38176e-05
-2.29558e-07
2.03156e-05
9.96704e-06
-4.38412e-05
1.8662e-05
1.62404e-06
-5.69474e-06
-5.21084e-07
2.00335e-05
-5.32888e-06
-5.95422e-07
-2.17411e-06
-5.74464e-06
7.39766e-06
-9.13306e-06
1.63006e-06
9.4232e-06
-8.58917e-06
2.23406e-05
-2.54538e-05
-2.51321e-05
-1.95421e-05
2.94415e-06
-2.10003e-05
-6.89122e-06
-1.52968e-05
-1.75682e-05
-2.56926e-06
-2.28293e-05
-1.52512e-05
-1.42166e-06
1.37611e-06
2.06796e-05
-4.452e-05
-3.57141e-06
-1.09378e-06
1.7606e-05
-6.4395e-06
-1.00727e-05
2.50803e-05
-9.55637e-06
-1.66177e-05
-2.91074e-05
-2.12103e-05
-4.94539e-06
-7.60938e-07
-7.33187e-07
8.6544e-07
-1.53672e-05
1.72122e-05
-4.54541e-05
-4.75908e-06
2.71165e-06
-1.67521e-05
-3.1906e-06
1.72311e-05
-2.63846e-05
2.09109e-05
8.18541e-06
6.08459e-07
-4.37452e-05
2.82398e-05
-2.15705e-05
-9.85992e-06
-1.0998e-06
4.65707e-05
7.81213e-06
-5.11734e-06
-2.42653e-05
-5.2071e-06
1.19194e-05
-7.55772e-06
2.32615e-05
-1.20665e-05
-2.13532e-05
-2.81128e-06
1.17888e-05
1.23758e-05
1.47714e-05
6.59953e-06
-4.27242e-05
-3.5771e-06
1.55372e-05
2.37058e-05
-1.23851e-05
-1.48978e-05
-8.40482e-06
4.76479e-05
1.27541e-05
-1.85396e-05
1.6138e-05
1.60726e-05
5.30393e-06
-1.56517e-05
-5.72488e-06
-1.99093e-05
-1.36493e-05
4.96313e-05
-2.95032e-05
1.77108e-05
1.37151e-05
-4.70777e-05
3.13982e-05
-1.94122e-05
-3.38757e-05
5.16245e-05
-4.96637e-05
1.44522e-05
2.9239e-05
-8.34183e-07
-4.2857e-05
5.79937e-06
-6.92364e-06
1.55764e-05
1.61378e-05
1.89006e-05
3.19346e-05
-1.22354e-05
-2.66229e-05
5.34073e-07
4.69769e-05
-3.09735e-05
4.76454e-05
-4.4043e-05
-8.66399e-06
-1.01922e-05
1.03681e-05
8.48808e-06
-2.65527e-06
-2.32391e-05
-3.07517e-05
-2.94185e-06
3.21254e-05
2.41715e-05
-2.422e-05
-1.00669e-05
8.97842e-07
3.33892e-05
5.60401e-06
-1.23647e-05
-1.74594e-05
-1.11924e-05
6.72951e-06
2.5454e-05
1.99422e-06
-3.86407e-05
1.11113e-05
2.10724e-05
2.67911e-05
-3.71617e-05
3.88002e-05
-1.66107e-05
-1.09406e-05
-3.68356e-06
3.1235e-05
2.46818e-06
-8.1848e-06
-1.08942e-05
2.37328e-06
-1.08458e-05
-1.45944e-05
9.94964e-06
7.01808e-06
8.31036e-06
-3.37507e-05
9.33889e-06
-9.21331e-06
1.5605e-05
6.22587e-07
-9.53593e-06
-2.53143e-05
3.42277e-05
-5.52357e-06
-1.21301e-05
1.82762e-05
-9.04939e-06
-6.01015e-06
1.037e-05
1.37339e-05
-3.31532e-05
1.78742e-05
-1.35144e-05
-1.58962e-05
2.16404e-05
-2.74768e-05
-5.21828e-06
-2.30533e-06
-7.09916e-06
1.46228e-05
6.98191e-06
-7.69514e-06
-4.50505e-06
-9.9885e-06
1.46651e-05
-1.04412e-06
1.37363e-05
-2.03873e-05
7.82926e-06
-1.33784e-05
9.08263e-06
-1.12419e-05
1.57197e-05
8.51229e-06
4.804e-06
-9.22845e-06
-4.08783e-06
-4.97913e-06
-8.49884e-06
2.19902e-05
-1.49633e-05
1.47882e-05
5.39873e-06
1.02108e-05
-2.48379e-05
1.39664e-05
-1.26556e-05
1.56557e-06
5.69235e-06
2.95284e-06
5.06243e-06
1.04696e-05
-1.37189e-06
-2.06451e-06
-1.06429e-05
-2.30532e-05
-7.46541e-06
1.00523e-05
2.04663e-05
1.04708e-05
1.01166e-06
-3.45357e-05
-5.52482e-06
8.53018e-06
2.08019e-05
1.18578e-05
-3.1648e-05
-6.80279e-08
3.09223e-05
1.81314e-05
-1.17984e-05
2.65936e-05
1.25438e-05
8.60226e-06
4.68743e-06
-2.58335e-05
-2.15974e-06
7.66251e-06
7.04104e-06
-2.20575e-06
8.64828e-06
1.20386e-05
-7.18314e-06
-7.06117e-06
-5.35959e-06
2.60464e-05
-4.59122e-06
6.89412e-06
-7.08693e-06
5.15916e-06
-2.53993e-06
-8.96788e-06
6.34866e-06
-7.47265e-06
-1.16562e-05
2.4288e-05
-7.51712e-06
-2.49546e-06
-3.04537e-06
-1.10176e-05
5.09511e-06
-8.79885e-06
-5.90274e-06
4.85463e-06
-2.33893e-05
-6.43969e-06
9.52929e-06
7.10458e-06
4.34253e-06
-2.09764e-05
-1.09973e-06
6.31243e-06
4.31658e-06
7.30228e-06
-1.29743e-06
-9.97145e-06
-5.00256e-06
2.22763e-05
-5.9395e-06
-5.32937e-06
3.59346e-06
-5.19043e-06
4.90333e-06
2.63109e-06
-2.17835e-06
-6.15067e-06
5.69794e-06
-5.00712e-06
-8.56171e-06
1.61999e-05
-4.94183e-06
-2.24363e-06
-3.16897e-06
-7.41492e-06
4.43322e-06
-5.99758e-06
-5.7331e-06
2.12797e-06
-1.44847e-05
-6.11326e-06
-2.40837e-06
2.19712e-06
8.56153e-06
-8.35027e-06
2.6921e-06
7.2399e-06
-1.23404e-05
1.98871e-06
2.90051e-06
3.91725e-06
-6.61912e-06
4.69058e-06
-7.15041e-06
1.39682e-05
9.63779e-06
8.22389e-06
-1.06218e-05
5.71001e-06
1.24893e-05
-2.21659e-06
3.82137e-06
-3.657e-06
-8.59697e-06
-4.68837e-06
5.15017e-07
1.27703e-05
-2.46947e-07
-3.65944e-06
-4.11375e-06
-8.21569e-07
1.15579e-06
-8.9901e-07
-4.37052e-06
8.70395e-07
-5.36176e-07
1.82313e-06
1.30515e-06
-4.02729e-06
4.42004e-06
-1.72651e-06
7.79891e-06
-1.01532e-05
1.2734e-05
3.26791e-06
8.49371e-07
4.51356e-06
-8.63084e-06
1.03524e-06
2.97158e-06
-7.38917e-07
4.80977e-07
1.40364e-06
2.23536e-06
-1.3893e-06
-3.65083e-07
-6.43392e-07
4.28239e-06
5.96243e-06
5.46342e-06
-6.9123e-06
3.14646e-06
5.78756e-06
-3.63822e-06
8.45825e-06
-1.88106e-06
-1.1531e-06
-2.54608e-06
7.98157e-06
-1.45866e-06
-5.95244e-08
7.23629e-07
-4.91082e-07
-1.6912e-06
8.15039e-07
-1.50935e-07
1.04248e-06
-3.41462e-06
3.09859e-06
-1.24108e-06
9.01076e-06
2.28374e-06
1.48332e-07
-8.65655e-07
-1.56642e-06
-1.80633e-07
1.96491e-08
1.48421e-07
-1.80717e-07
-2.01892e-08
1.88262e-07
-9.11158e-07
7.10249e-07
-1.58854e-06
-2.08934e-08
1.46731e-06
-1.47135e-07
-1.29928e-06
-1.68536e-06
7.50798e-07
9.13683e-07
-2.70199e-06
3.59337e-06
-4.21177e-06
-3.42156e-06
-8.06485e-06
-1.08929e-05
2.23793e-05
-5.64032e-06
-1.83328e-05
-7.29577e-06
-6.4094e-06
-1.67875e-05
-2.34222e-05
-8.33881e-06
-2.67815e-05
-7.24353e-06
-2.34744e-05
-2.19917e-05
-2.95822e-07
5.34708e-06
-3.60162e-06
4.21947e-06
1.4016e-05
-5.23892e-06
-4.10361e-06
1.14139e-05
-4.38794e-06
1.25378e-05
1.32413e-05
-2.00396e-05
-3.96734e-06
-3.07068e-06
7.67997e-06
-1.94016e-06
-2.57794e-05
3.93564e-06
-2.23012e-07
-2.41829e-07
-1.70089e-06
-1.12796e-06
1.38968e-05
1.79114e-05
-7.89597e-08
1.59875e-05
1.26836e-05
9.63959e-06
-1.40344e-05
1.09557e-05
-4.74422e-07
1.57086e-05
4.88679e-06
-2.4416e-05
5.4347e-07
-1.34101e-06
1.24522e-06
-1.07924e-06
9.83176e-07
6.39535e-07
-1.11591e-06
-1.30434e-06
1.06321e-06
1.54165e-07
-2.33328e-06
-7.15558e-07
3.07275e-06
-2.80513e-06
4.47214e-06
1.21474e-07
7.33857e-08
-2.33946e-07
5.95657e-07
8.2967e-08
-5.76888e-08
-1.74264e-07
1.48986e-07
-3.62976e-08
-1.04296e-07
2.2356e-07
-4.0214e-08
-5.37724e-08
-3.92582e-08
1.04699e-08
-1.14258e-08
-4.46968e-09
-8.85608e-08
-1.32048e-07
3.82223e-08
-3.10782e-07
-2.1003e-08
4.10877e-08
-1.0663e-07
8.65453e-08
3.44585e-08
-2.26974e-08
-3.2764e-08
3.6952e-09
7.1851e-08
2.65366e-08
1.90157e-08
-1.52182e-07
-9.70962e-09
1.35488e-08
2.18085e-07
-1.58098e-07
-5.62913e-08
-6.49091e-07
9.39027e-07
-2.40552e-07
7.2744e-08
-8.70627e-07
-2.78832e-08
-3.31362e-07
-4.70984e-08
-5.30642e-07
-2.08719e-09
1.99027e-08
2.98631e-08
-4.76787e-08
8.62865e-08
-4.61492e-08
-4.22244e-08
5.35324e-09
1.00836e-07
-5.7889e-08
1.80325e-07
-9.25735e-08
1.21682e-07
-2.2572e-07
1.35177e-07
-8.32764e-08
-4.65472e-08
1.23128e-08
2.237e-07
-2.30444e-07
4.23083e-07
-1.92038e-07
2.65229e-09
-2.01952e-08
1.8651e-08
-1.10813e-09
8.60984e-09
-3.61347e-08
3.01772e-08
-2.30111e-08
4.95136e-08
-1.27417e-07
4.17685e-08
1.06387e-07
-5.06637e-09
-1.06506e-07
-4.43265e-07
-2.99074e-08
1.01543e-07
4.20383e-08
2.49969e-07
-4.37245e-08
1.57897e-08
4.33635e-08
-1.54288e-08
1.31626e-07
1.94527e-08
-1.94803e-07
4.94643e-08
9.79511e-08
-3.60625e-08
1.89401e-07
-1.09975e-07
1.34167e-07
-1.50777e-07
1.42333e-07
4.12979e-08
4.29685e-07
-9.93369e-07
1.5392e-07
3.96183e-07
-6.56608e-08
5.36915e-07
-1.46462e-06
4.17125e-08
-1.43943e-07
4.09355e-07
-2.61033e-07
5.40173e-07
3.10557e-07
-3.46753e-08
5.14702e-07
1.03444e-06
-7.78403e-07
-6.18404e-07
3.62365e-07
-1.45367e-06
1.55795e-06
9.30168e-07
-1.28164e-07
-2.10391e-06
2.66089e-07
-1.72766e-07
2.43964e-07
9.52294e-07
9.42137e-07
-8.26337e-07
1.50967e-07
-2.08582e-07
7.59001e-07
1.24239e-08
-5.62843e-07
1.99566e-06
-2.00721e-06
-1.97034e-07
1.23678e-06
1.51788e-06
-1.27142e-06
2.19402e-07
2.28879e-06
-3.96182e-07
6.42646e-07
1.32292e-06
-3.11072e-06
9.39161e-07
1.48265e-05
1.45544e-06
-1.80357e-05
1.75379e-06
-9.36692e-06
-4.94475e-06
2.91382e-05
-1.23811e-05
4.46967e-06
2.3035e-05
-9.61358e-06
-3.14571e-05
-1.98821e-05
3.79724e-05
2.57469e-05
-4.77416e-05
1.03344e-05
1.46011e-05
2.54947e-05
5.64853e-06
-4.57443e-05
1.92807e-06
-4.61189e-07
1.31342e-05
1.86505e-05
8.77221e-06
2.02618e-05
-1.91348e-05
-1.58816e-06
-5.50587e-06
3.89019e-05
-2.72316e-05
4.03762e-05
-4.07179e-05
-6.48479e-06
-1.66529e-05
-2.66832e-05
4.98208e-05
-8.0841e-06
-2.20803e-05
2.36796e-05
-5.76453e-06
-1.89725e-05
-1.26731e-05
-3.20262e-05
2.26191e-05
-2.18406e-05
-1.75157e-05
-1.25681e-05
-1.5037e-05
-6.35667e-05
-1.21328e-05
1.02792e-05
-3.15757e-05
3.34292e-05
2.16636e-05
-2.43098e-05
-9.48657e-06
-2.03125e-05
5.22553e-05
2.34559e-05
2.02807e-05
-6.80463e-05
3.61812e-05
-2.22118e-05
6.16796e-06
1.23224e-05
1.79021e-06
1.26312e-05
2.97179e-05
-4.349e-06
-3.33223e-06
-2.36022e-05
-4.46639e-05
-1.61356e-05
1.54647e-05
4.53348e-05
1.79457e-05
-1.63709e-05
-4.62386e-05
-1.37953e-05
1.56054e-05
4.00752e-05
-2.04412e-05
1.37367e-05
4.19439e-05
1.18212e-05
-2.02851e-06
-3.0234e-05
-6.53322e-07
2.62113e-05
1.30315e-05
-3.1431e-05
2.7843e-05
2.89117e-05
1.02764e-05
-1.83744e-05
-2.08137e-05
4.09619e-06
2.1364e-05
3.45164e-06
1.3933e-06
1.29793e-05
1.07415e-05
-1.15149e-05
-1.7601e-05
6.09039e-06
2.60151e-05
8.01014e-06
-1.81318e-05
2.708e-05
4.93936e-06
2.22711e-06
7.95968e-06
-1.51261e-05
-5.7412e-06
6.12503e-06
4.55551e-06
1.30884e-05
-1.66026e-05
1.61749e-06
-1.31381e-05
1.76457e-05
-8.98579e-06
1.51588e-05
-1.11169e-05
-1.62953e-05
-1.1287e-05
-5.1841e-06
1.98825e-06
1.44829e-05
3.95039e-06
-1.50525e-06
-1.37322e-05
-5.76974e-06
4.536e-06
-1.14828e-05
-4.65206e-06
1.81231e-05
1.76395e-06
-1.47521e-05
1.47116e-05
-1.87175e-05
1.45956e-05
1.92636e-05
6.23328e-06
-2.03125e-05
-6.26055e-06
1.88814e-05
-5.67021e-06
5.64293e-06
1.75219e-05
1.61874e-05
-2.83536e-06
6.8495e-06
2.56262e-06
-6.57674e-06
1.83293e-05
-9.56671e-06
-1.15979e-05
-5.63083e-06
3.08097e-05
-7.69895e-06
5.37554e-06
4.88603e-06
-2.65589e-07
-1.40102e-05
1.03577e-05
-2.019e-05
1.01023e-05
-1.09481e-05
-1.89922e-05
-2.61476e-06
3.2555e-05
-1.99398e-06
1.93246e-06
-1.08866e-05
-1.22711e-05
-8.71506e-06
-1.93522e-05
1.46129e-05
6.67179e-06
2.9776e-06
-3.32164e-05
2.20008e-05
-3.12943e-05
3.39989e-05
-1.03392e-05
6.44807e-08
9.12224e-06
1.15243e-06
9.79201e-06
8.82535e-06
-2.89566e-05
9.81909e-06
3.73832e-08
2.08472e-06
9.3469e-06
-2.60628e-06
9.34096e-06
1.86601e-06
-1.18821e-05
3.10422e-05
-2.4979e-06
-6.11838e-06
-8.60617e-07
5.58464e-07
6.42053e-06
1.21715e-05
1.20677e-05
-3.03576e-05
1.21212e-05
-8.10319e-07
3.18219e-06
-3.15803e-06
5.34302e-07
-2.27152e-06
1.18743e-05
2.16256e-06
6.74701e-06
1.20122e-05
2.38543e-07
1.0632e-05
-1.05555e-05
-3.15063e-07
1.22489e-05
-9.94087e-06
-2.06947e-06
-1.06342e-05
3.35152e-05
1.07903e-05
9.31831e-06
-3.06641e-05
9.66487e-06
2.0174e-06
-2.63999e-06
1.048e-06
-5.07317e-06
-1.56646e-05
-1.43191e-05
3.50569e-05
6.14614e-07
-1.21797e-07
-5.56599e-06
-1.55872e-05
5.37186e-07
-7.11328e-06
6.67814e-06
3.13355e-07
3.54164e-06
-1.62209e-05
1.08276e-05
-2.28732e-05
1.23814e-05
5.12431e-06
-1.40051e-06
1.07385e-05
5.25641e-06
-3.22158e-05
1.09823e-05
6.95168e-08
-1.85254e-05
3.4632e-05
-1.58984e-05
-2.55754e-06
1.59619e-05
-1.43554e-06
1.39099e-06
-1.59174e-05
-9.05951e-06
-1.35364e-05
-1.80991e-06
-8.68514e-06
-1.75193e-05
1.96491e-05
-3.93966e-06
1.00429e-05
-3.62474e-05
-1.21165e-05
-2.89556e-08
2.91824e-05
3.67149e-05
-7.87911e-07
1.62902e-05
8.55897e-06
-1.58595e-07
-1.39183e-05
1.141e-05
2.66698e-06
-1.27074e-05
1.2712e-05
-1.63198e-07
1.03534e-05
-3.69792e-05
-1.52653e-05
-1.16451e-05
3.96225e-05
-1.17465e-05
-3.68207e-06
3.55301e-06
-4.9462e-06
3.3179e-06
-1.62414e-05
-1.40588e-05
-1.35409e-05
-1.36029e-08
-1.33666e-05
-2.86128e-06
-8.70172e-09
-1.40637e-05
-1.50868e-05
1.32381e-05
1.84005e-06
1.23224e-05
-4.1473e-05
2.77977e-06
-3.82401e-06
2.47699e-06
2.36878e-06
1.43529e-05
-2.40715e-06
-1.43145e-05
1.31362e-05
-1.54098e-05
4.64239e-06
-1.73559e-05
4.4845e-05
-1.19379e-05
1.51055e-05
-5.57465e-06
1.717e-05
-4.34224e-05
-1.78558e-06
3.54568e-06
-4.03596e-06
-5.96647e-07
-1.02093e-05
-1.97836e-05
-4.53601e-05
-9.46775e-07
-1.77294e-05
1.37654e-05
4.91084e-06
-1.50653e-05
1.50232e-05
-9.0467e-07
1.19957e-05
-4.47905e-05
-1.83512e-05
-1.3129e-05
4.65034e-05
-1.39162e-05
-5.33975e-06
4.66721e-06
-6.58769e-06
5.30364e-06
1.11471e-06
1.55857e-05
-1.59041e-05
-7.96391e-07
2.24761e-05
-2.61205e-05
-2.56423e-05
-3.20088e-05
6.00682e-06
-4.80314e-05
-2.17163e-05
-4.72242e-06
-4.77182e-05
3.28735e-05
2.59518e-05
-9.74824e-06
-4.90769e-05
-2.29327e-05
-2.61228e-05
-1.56472e-05
-1.70337e-06
1.75513e-06
-2.27674e-05
-5.11049e-06
-1.55954e-05
-4.81111e-05
-8.86572e-07
1.99612e-05
-7.80981e-06
-1.12648e-05
2.7626e-05
-1.08212e-05
-1.76913e-05
-3.36149e-05
-2.55916e-05
-5.28175e-06
-2.28244e-06
-2.45625e-07
2.67225e-07
-1.63702e-05
1.89222e-05
-5.22698e-05
-8.95181e-06
-1.01573e-05
-1.29112e-05
-3.33671e-06
2.64052e-05
-3.02567e-06
-1.04742e-05
3.34253e-06
-1.2724e-05
-3.21286e-06
-1.50931e-05
-2.55173e-05
3.72737e-05
-1.88749e-05
-6.69238e-06
2.02138e-05
-5.18127e-05
-8.51636e-06
-2.94665e-05
-1.08031e-06
2.01109e-05
1.0436e-05
1.14907e-05
1.00824e-05
-5.10397e-05
-1.14228e-06
1.15527e-05
3.25455e-05
-2.3823e-05
-9.86477e-06
-8.55452e-06
5.26527e-05
-8.14195e-06
1.92798e-05
8.97301e-06
1.30789e-05
-1.11385e-05
4.09063e-05
-5.16503e-05
5.16316e-05
8.10022e-06
-4.13877e-06
1.97511e-05
-2.37124e-05
-1.62279e-05
1.66535e-05
7.6747e-06
2.72981e-05
-4.76649e-05
-7.50218e-06
-2.68304e-05
5.09861e-05
-1.92397e-05
-1.26003e-05
2.06587e-05
-1.96796e-05
2.56131e-05
5.75281e-05
-1.46086e-05
1.32241e-05
-1.69955e-05
2.93845e-05
1.73903e-05
5.33619e-05
6.32536e-05
1.03513e-05
1.85782e-05
7.40598e-05
4.82425e-05
2.67969e-05
3.88071e-06
-7.48583e-06
-2.31918e-05
-3.56301e-05
7.36529e-05
6.23946e-07
-2.14249e-05
-3.96554e-05
-7.21592e-05
1.85659e-05
-2.14132e-05
-6.93119e-05
-2.78318e-05
-3.27397e-05
7.91375e-05
-8.19425e-06
-4.10509e-05
-6.43805e-05
8.17238e-05
-2.55375e-05
4.90885e-05
-0.00015452
-7.57439e-05
0.000124728
1.07828e-05
-4.31025e-06
-1.88004e-05
1.23279e-05
-2.75281e-05
5.15763e-06
-3.2281e-05
4.42657e-07
4.67766e-05
-5.98674e-06
-5.95903e-05
1.49597e-05
4.41448e-05
1.23694e-05
9.42602e-06
-2.77822e-05
3.41537e-06
2.39137e-05
-9.44747e-06
1.80205e-05
-3.23026e-05
-4.76127e-06