/*--------------------------------*- C++ -*----------------------------------*\
| =========                 |                                                 |
| \\      /  F ield         | OpenFOAM: The Open Source CFD Toolbox           |
|  \\    /   O peration     | Version:  v2012                                 |
|   \\  /    A nd           | Website:  www.openfoam.com                      |
|    \\/     M anipulation  |                                                 |
\*---------------------------------------------------------------------------*/
FoamFile
{
    version     2.0;
    format      ascii;
    class       volVectorField;
    location    "0.1";
    object      U;
}
// * * * * * * * * * * * * * * * * * * * * * * * * * * * * * * * * * * * * * //

dimensions      [0 1 -1 0 0 0 0];


internalField   nonuniform List<vector> 
6576
(
(0.052135 -2.46938 -0.0948047)
(-0.139235 -2.55065 0.116618)
(-0.047359 -2.60701 0.0206736)
(0.0675676 -2.42057 -0.093494)
(-0.00491042 -2.50792 0.00860884)
(-0.118671 -2.65158 0.119618)
(-0.0228764 -2.5713 0.0487255)
(0.0223312 -2.49746 0.000163251)
(0.0246022 -2.08614 -0.0170302)
(0.0245419 -2.43357 -0.00130648)
(-0.0188381 -2.52925 -0.0269342)
(-0.0256571 -2.60205 -0.0226313)
(-0.00316985 -2.58187 0.00663298)
(0.0107093 -2.47979 -0.00169709)
(0.0920107 -2.43047 0.0370713)
(0.0162419 -3.0372 -0.0531914)
(0.0974267 -1.44202 0.0548759)
(0.0263933 -2.862 -0.0274136)
(0.0842763 -2.60034 0.0974558)
(0.0251827 -2.4703 0.00391212)
(0.071915 -2.29361 0.0756053)
(0.00276297 -2.52955 0.0204021)
(0.0152735 -2.44196 0.0122341)
(-0.00823891 -2.50039 -0.0205581)
(0.00384435 -2.67235 0.0191615)
(0.0815173 -2.5481 0.084347)
(0.0988677 -2.49415 0.100832)
(-0.000805697 -2.4308 0.0232148)
(-0.00992767 -2.63483 -0.0500831)
(0.00438716 -1.61291 -0.0110995)
(-0.0786709 -2.61666 0.0940272)
(-0.0405877 -2.42534 -0.014502)
(-0.0145647 -2.58741 -0.00128469)
(0.0168311 -2.42355 0.0477911)
(0.0236305 -2.44275 0.0552126)
(-0.0284254 -2.09399 0.0165641)
(0.00631517 -2.73078 0.020672)
(-0.0186591 -2.60969 0.0169814)
(0.0275441 -2.46704 0.0400742)
(0.0154181 -2.45817 0.0278845)
(0.0024698 -2.19449 0.0520473)
(-0.0246983 -2.45951 0.0108451)
(-0.00252261 -2.3439 0.00862417)
(-0.0733721 -0.0439261 -0.0710866)
(0.00150222 0.0340421 -0.0130376)
(-0.0108311 0.0394357 0.0269758)
(0.0427663 0.0167239 -0.0223577)
(-0.124855 -0.129274 -0.13075)
(0.00107151 -0.00991833 0.00669428)
(0.000262416 -0.0316615 0.0135002)
(-0.0109102 0.0503722 -0.0218529)
(-0.017059 -0.0156911 -0.0158715)
(-0.0106318 0.539051 -0.0356563)
(0.00453809 0.534995 0.0172328)
(0.000180399 0.529182 -0.00693964)
(-0.00742032 0.538476 0.0244569)
(-0.0153698 0.521578 -0.00905479)
(-0.0221543 0.519691 -0.00607568)
(-0.0017299 0.530345 0.00569497)
(-0.0137146 0.546931 -0.0187204)
(-0.0344778 0.53754 0.0161083)
(0.00806098 0.560554 -0.0405656)
(0.00418699 0.55028 -0.000394568)
(0.0167459 0.544345 -0.0095315)
(0.00145078 0.560785 0.0236124)
(-0.0237622 0.564845 0.0322914)
(0.00114963 0.530302 -0.0190969)
(0.00109615 0.533109 -0.0277613)
(0.00232071 0.511824 -0.0490324)
(0.0195926 0.553028 -0.016821)
(-0.00590053 0.545893 -0.00561213)
(0.00346743 0.537678 -0.0234628)
(-0.0254891 0.542079 0.00530466)
(-0.273416 -2.98582 -0.320263)
(-0.468734 -2.23995 -0.607578)
(0.111058 -3.88307 0.241554)
(-0.160495 -2.41342 -0.652288)
(-0.0397492 -2.88047 -0.510931)
(0.00509993 -3.43021 -0.106949)
(0.104502 -3.01451 -0.10763)
(-0.0151481 0.270111 -0.631512)
(0.264666 -0.289238 -0.516904)
(-0.347635 0.402829 -0.454782)
(-0.534942 -0.994221 -0.583637)
(-0.169399 -1.14125 -0.463557)
(-0.556045 -0.795571 -0.444499)
(-1.07392 -0.368271 -0.415186)
(-0.132883 -0.344281 0.380121)
(-0.0483566 -0.3699 -0.0215875)
(0.0331371 -0.2717 0.0216977)
(-0.0982652 -0.24798 0.151991)
(-0.0554391 0.11739 0.41581)
(-0.254518 -0.505168 0.00782788)
(-0.256985 -0.323609 0.375392)
(-0.0454865 -0.000186778 -0.00312643)
(0.0133476 -0.0712184 -0.00181161)
(-0.0534993 -0.0375105 0.0303073)
(0.0163224 0.0122473 0.0107832)
(0.0741596 -0.00826895 -0.0816891)
(0.0335136 -0.00171507 -0.0511556)
(-0.0540338 -0.0196899 0.000171853)
(-0.00154865 -0.000123967 0.00932515)
(-0.00122954 -0.00111517 0.00979968)
(0.000134131 -0.00402809 0.0100672)
(-0.000447555 -0.00203195 0.00704884)
(-0.000633106 -0.00174808 0.00609388)
(0.00125737 -0.0024721 0.0073074)
(0.00181084 -0.00233747 0.00598795)
(0.00412271 0.00264494 0.0076995)
(1.3525e-05 0.00178364 0.00198131)
(-0.00538295 -0.000731904 0.00216876)
(-0.00179534 0.0166986 0.00387844)
(-0.0133133 0.00988763 0.00345607)
(-0.00816037 -0.00407301 0.00486614)
(0.0497869 -2.24296 0.000830738)
(0.000160243 -2.39054 -0.000835548)
(0.0415407 -2.37697 -0.00359809)
(-0.0136853 -2.41645 -0.0377782)
(-0.0263864 -2.45147 -0.00528308)
(0.0156011 -2.46492 -0.0191841)
(0.0252277 -2.41417 -0.00541909)
(-0.0518035 -2.36568 -0.0199737)
(0.0513767 -2.50356 0.0583492)
(-0.014203 -2.31861 -0.0280433)
(0.0153209 -2.51567 -0.0511466)
(-0.0661364 -2.49971 -0.0592445)
(0.119035 -2.65457 0.130651)
(-0.0703905 -2.48453 0.00703868)
(0.0391598 -6.38819 -0.0375175)
(0.0203947 -6.25082 -0.0383201)
(0.00938572 -6.20873 -0.028233)
(0.00515518 -6.14754 -0.126523)
(0.0170625 -6.33409 -0.137365)
(-0.0831044 -5.80245 -0.0618299)
(-0.0408538 -6.18145 -0.0657337)
(0.000894329 0.399963 0.182398)
(0.000678809 0.416796 0.175192)
(-0.00463013 0.406283 0.182124)
(-0.00224762 0.388697 0.185658)
(0.00547365 0.396601 0.173872)
(0.007196 0.407216 0.174604)
(-0.0012824 0.396984 0.185175)
(-0.0143615 0.382495 0.265092)
(0.00181184 0.399503 0.266157)
(0.0127757 0.391623 0.244336)
(-0.0189899 0.353688 0.278655)
(0.0171125 0.358331 0.257083)
(0.0202812 0.37205 0.247658)
(-0.0202814 0.350746 0.285233)
(-0.025096 0.474961 0.339684)
(-0.00631581 0.415844 0.253846)
(0.0085867 0.464445 0.320913)
(-0.0124399 0.418045 0.249657)
(0.0146504 0.395067 0.237868)
(0.0193155 0.452269 0.295056)
(-0.0387813 0.475036 0.313879)
(0.000689803 0.39106 0.326104)
(0.0119209 0.392681 0.337445)
(0.00484326 0.393474 0.347277)
(0.0181443 0.354552 0.327994)
(0.0108155 0.36095 0.353751)
(-0.015677 0.298648 0.359148)
(0.0261916 0.310165 0.352421)
(-0.00100874 0.317706 0.36094)
(0.0379445 0.324069 0.357078)
(-0.0112238 0.432101 0.408981)
(0.0070275 0.516092 0.497956)
(-0.0173224 0.497936 0.508164)
(-0.0102929 0.427915 0.354377)
(0.0131494 0.408502 0.359406)
(0.0201601 0.510488 0.463207)
(-0.033847 0.481978 0.465161)
(-0.00610014 0.389134 0.52631)
(-0.0454574 0.374885 0.535675)
(0.00847438 0.476981 0.559736)
(0.0384783 0.287059 0.508618)
(-0.0129971 0.300342 0.552681)
(0.0429983 0.310007 0.505793)
(0.00192826 0.280698 0.520785)
(0.00242162 0.297173 0.481989)
(0.0304916 0.324823 0.425785)
(0.20421 0.169971 1.52836)
(0.282001 0.0139722 1.72089)
(-0.0256676 0.12466 1.28907)
(0.22543 -0.203112 1.49724)
(0.169047 -0.513235 1.62545)
(-0.0280818 -0.626295 1.24542)
(0.0432786 -0.317659 1.24922)
(0.155309 -0.233911 1.30371)
(0.118594 -0.420838 1.28361)
(-0.198306 -0.051957 2.11319)
(-0.0327484 1.05698 1.44565)
(-0.259422 0.937318 1.63907)
(0.564676 0.643534 1.62889)
(0.601202 0.0154861 1.90545)
(0.47384 0.730802 1.70942)
(0.345987 -0.126439 1.89773)
(0.096423 -1.77308 1.7894)
(-0.318559 -2.19795 2.3243)
(-0.687189 -2.50441 2.34107)
(0.103613 -2.72326 1.61359)
(0.188615 -1.85862 1.535)
(-0.455011 -2.07839 2.15887)
(-0.691253 -2.80864 2.36843)
(0.00566627 -3.87785 2.28244)
(-0.0702244 -4.38606 2.15366)
(0.0175966 -5.06639 1.99008)
(-0.499039 -2.917 2.27792)
(-0.262618 -2.10816 2.26268)
(-0.191033 -2.4946 2.08654)
(-0.479865 -3.62228 2.15812)
(-0.121211 -6.15743 -0.197917)
(0.0362519 -6.13734 -0.163946)
(-0.0695142 -6.15564 0.0823316)
(0.10648 -6.04344 0.267108)
(0.202232 -5.84807 0.393374)
(-0.0617184 -6.16745 -0.090873)
(-0.00276329 -5.87831 -0.105176)
(-0.0333171 1.72571 -0.00924378)
(0.0955199 1.83904 0.0808333)
(0.0909317 1.84939 0.122246)
(-0.0952132 1.6856 0.36165)
(0.0204461 1.57457 0.193833)
(0.0409349 1.70229 0.257489)
(-0.026475 1.79281 0.345381)
(-0.192206 1.76265 0.689476)
(-0.097907 1.69558 0.511983)
(0.0287677 1.48286 0.801639)
(0.0190217 1.86545 0.479675)
(-0.0896328 1.83951 0.821363)
(0.14406 1.61523 1.21071)
(0.0198423 1.58028 0.900056)
(-0.000535979 1.15639 1.15509)
(-0.243541 0.850447 1.11134)
(-0.354167 1.00679 0.985808)
(0.0941206 1.08078 1.41937)
(0.332815 0.795678 1.59102)
(-0.231971 0.834792 1.53836)
(-0.324583 0.964913 1.25413)
(0.0152871 0.633667 0.613421)
(-0.01699 0.688039 0.655063)
(-0.0224352 0.578063 0.654974)
(-0.0277486 0.712838 0.879256)
(0.0132232 0.781951 0.805068)
(-0.0330779 0.557502 0.732703)
(0.0336499 0.707013 0.714955)
(-0.00386185 0.550352 0.479439)
(0.00344349 0.513525 0.498521)
(-0.00350468 0.549965 0.47322)
(0.00298669 0.591955 0.54311)
(-0.0159148 0.550662 0.579069)
(0.0111794 0.549362 0.534223)
(0.0120708 0.469641 0.565834)
(-0.00547426 0.457747 0.497012)
(-0.0113454 0.523408 0.469869)
(-0.00518677 0.435644 0.308627)
(-0.0102642 0.46777 0.320575)
(0.00164094 0.472278 0.305201)
(-0.0292192 0.404793 0.361847)
(-0.00374111 0.454189 0.367813)
(-0.0516352 0.428779 0.32795)
(-0.0187581 0.471289 0.335362)
(0.00154103 0.498759 0.071851)
(-0.011325 0.505226 0.110982)
(-0.027477 0.485785 0.127608)
(-0.0112708 0.507907 0.101152)
(0.00798334 0.517662 0.0822145)
(-0.00595407 0.50953 0.106249)
(-0.024338 0.488325 0.116787)
(0.00113182 0.00036475 0.00593956)
(-0.000392657 0.0037389 0.00274513)
(0.00163379 -0.00788413 0.00554743)
(-0.000674858 0.00217848 0.00712579)
(0.000534427 0.00707821 0.00406384)
(0.000660805 0.028839 0.0093316)
(0.00139323 -0.0013889 0.0111171)
(-0.00816821 0.00551639 0.00921502)
(-0.000518495 0.00561055 0.00877407)
(0.0201104 -0.0609634 -0.0149407)
(0.005012 -0.0968661 -0.0256695)
(0.0123432 -0.169754 -0.00936049)
(0.0406559 0.053937 0.0187352)
(0.0758113 0.050339 0.031467)
(0.0301132 -0.0460547 0.0919971)
(-0.0468648 0.022969 -0.0135111)
(0.00953837 -0.336956 -0.0148803)
(0.0161705 -0.420018 0.187393)
(0.00569164 -0.252762 -0.24036)
(-0.0119605 -0.084989 -0.243297)
(-0.0286572 -0.139819 -0.225334)
(0.00351574 -0.240648 0.196338)
(-0.0363566 -0.0850121 0.0248569)
(0.316719 0.267414 -0.158681)
(0.0410783 0.044693 0.14468)
(-0.0079149 -0.0433772 -0.0230536)
(0.0386531 0.0926509 -0.00827931)
(0.0552238 0.0551471 -0.000438225)
(0.386183 0.188401 0.0692977)
(-0.0805695 -0.177915 -0.0507291)
(0.0543565 0.201588 0.0444334)
(0.147325 0.100442 0.206256)
(-0.0194816 -0.117315 -0.177003)
(0.356304 0.355056 -0.146386)
(1.2843 0.665375 0.916676)
(0.0219145 0.617746 -0.130329)
(0.0278334 0.638707 -0.146511)
(-0.0069497 0.580838 -0.11901)
(-0.00601143 0.609222 -0.135713)
(-0.0108868 0.601161 -0.129309)
(-0.0186812 0.587163 -0.137784)
(-0.0138877 0.586366 -0.149566)
(-0.0456637 -3.16377 -0.0254345)
(-0.0958855 -3.00445 -0.0399689)
(-0.0992238 -2.22903 0.0664707)
(-0.217211 -2.92618 0.227118)
(-0.118117 -2.67163 0.261516)
(-0.106189 -1.68703 0.435272)
(0.0260067 -1.85146 0.121407)
(-0.343697 -1.65308 0.512647)
(-1.28713 -1.7421 1.20634)
(-0.00551721 0.833147 0.0131198)
(-0.0168998 0.982893 0.0736717)
(-0.00439982 0.982925 0.00551032)
(0.00481539 0.918432 0.0960816)
(0.0904012 0.916399 0.0347672)
(-0.0696905 1.0485 0.187717)
(0.0354366 1.01866 0.051563)
(-0.0343856 -0.202272 0.353185)
(0.0374007 -0.149236 -0.027453)
(-0.164037 -0.364717 0.304453)
(-0.0714164 0.266262 0.132475)
(-0.172062 0.314164 0.341151)
(-0.251039 -0.120788 0.368126)
(-0.165313 0.296314 0.273311)
(-0.225505 0.163054 0.414506)
(-0.104121 0.490133 -0.0653973)
(-0.207366 0.199853 0.483148)
(0.188671 0.612538 -0.183441)
(0.299344 0.487755 -0.526148)
(-0.102602 -0.0558952 0.447522)
(-0.102897 -0.139951 0.0882334)
(-0.34456 0.718776 0.841349)
(-0.22855 0.579064 0.701225)
(0.3613 -0.360372 0.311168)
(-0.243008 -0.0406897 -0.277689)
(-0.0777712 0.969703 -1.13796)
(-0.0672326 -0.970691 0.698344)
(-0.289521 -0.67591 -0.0401423)
(0.00655049 -0.595114 0.21778)
(-0.0883777 0.0475829 -0.531835)
(-0.340163 -0.749917 -0.204736)
(-0.213922 -1.41277 0.549196)
(0.00320554 -0.00148649 -0.00567457)
(0.000480094 0.00368324 0.00186005)
(0.00110166 0.000202752 -0.0065258)
(0.00158688 0.00662487 -0.00471286)
(0.000899336 0.00128918 -0.0104554)
(0.000892797 -0.000515435 -0.00749908)
(0.00161635 0.00048401 -0.00833665)
(-0.000552991 0.000392662 0.0101442)
(-0.00229526 -0.000512573 0.00750477)
(-0.00187804 -2.08949e-05 0.00718542)
(-0.000739129 0.00263606 0.00185378)
(-0.00118969 0.00220435 0.00259923)
(-0.000856036 0.00441477 0.00456418)
(0.00302445 0.00962152 0.00150574)
(0.000354356 0.00814572 0.00600435)
(0.000211699 0.00104048 0.0106516)
(-0.0134256 -0.0548503 0.0197374)
(-0.0306817 -0.0179745 0.0299019)
(-0.00673121 -0.0871793 0.0183024)
(0.0158805 -0.0256748 0.00118462)
(0.028164 -0.0457745 0.0134924)
(0.0151849 -0.0243757 -0.0698037)
(-0.0292904 -0.0662595 -0.0419312)
(0.590046 0.822957 0.352943)
(0.0795335 0.590581 0.124039)
(-0.190405 0.30449 0.116062)
(-0.120954 -0.204027 0.257832)
(-0.0711847 -0.0332864 0.388509)
(-0.181825 0.318246 0.496396)
(0.173248 0.152798 0.434014)
(0.0292166 0.95806 -0.471646)
(0.00398206 0.959286 -0.535497)
(0.0229999 0.927409 -0.484889)
(0.00594222 1.10054 -0.595067)
(0.0145775 0.996397 -0.644534)
(0.00910754 1.06123 -0.572561)
(0.0229412 0.95814 -0.587418)
(0.0327583 0.928757 -0.527153)
(0.031368 1.01187 -0.500959)
(0.22246 1.45019 -0.00104231)
(-0.012615 1.51928 0.209133)
(-0.00673476 1.32341 -0.0500631)
(-0.0943094 1.70887 0.112398)
(0.0597894 1.62871 -0.177794)
(-0.229293 1.92559 0.447098)
(0.178923 1.72791 -0.00595887)
(-0.043105 0.738109 0.814977)
(-0.312199 -0.0199425 0.693035)
(-0.0560186 1.20747 0.655894)
(0.399247 -1.05841 0.37934)
(0.0639751 -0.695738 0.4663)
(0.286491 -0.801157 0.521515)
(-0.0501399 -0.0791045 0.547189)
(-0.0566979 1.14028 0.570266)
(-0.06638 0.632867 0.70781)
(-0.00176264 -2.77021 -0.094673)
(-0.0181535 -2.82046 -0.0771785)
(-0.0203879 -2.84947 -0.0823386)
(-0.00593661 -2.7745 -0.103362)
(0.0254696 -2.74474 -0.10214)
(0.00597215 -2.77953 -0.0952843)
(-0.0256919 -2.78829 -0.109432)
(-0.000193093 -3.00107 -0.0391898)
(0.00473479 -2.97951 -0.0335873)
(-0.00133731 -2.98258 -0.0420097)
(0.000494941 -3.00621 -0.0544939)
(-0.00834803 -3.00989 -0.0528066)
(-0.0154865 -3.00281 -0.0562657)
(-0.00612371 -2.99114 -0.0533742)
(0.00304381 0.680506 0.286019)
(0.051353 0.723775 0.397267)
(0.0218999 0.723734 0.35342)
(0.00288672 0.700804 0.330367)
(-0.0136183 0.72371 0.294217)
(0.0510592 0.744679 0.410363)
(0.0154449 0.753676 0.362723)
(-0.00064015 0.706658 0.274432)
(-0.0161321 0.737997 0.294981)
(-0.00743908 0.721373 0.314439)
(-0.00287059 0.726852 0.244116)
(0.0205686 0.710854 0.22732)
(0.0406926 0.73744 0.226718)
(0.00910179 0.751484 0.243939)
(-0.00185799 0.668173 0.160217)
(0.0428037 0.724761 0.216875)
(0.0115646 0.718989 0.193766)
(-0.0118785 0.708384 0.160416)
(-0.00690289 0.688333 0.179252)
(0.0107252 0.722573 0.223337)
(-0.0145243 0.733182 0.201233)
(0.0287595 0.694278 0.116895)
(0.0064013 0.690537 0.111506)
(-0.00279897 0.66253 0.085553)
(0.0145928 0.680697 0.109957)
(0.00183773 0.687522 0.105225)
(-0.0178539 0.677895 0.10174)
(-0.00172168 0.672843 0.108556)
(-0.0119649 0.67995 0.104352)
(-0.00248472 0.67671 0.111069)
(0.0619272 0.706235 0.11317)
(0.0226087 0.707469 0.0782117)
(-0.00783986 0.680977 0.0236329)
(-0.00821928 0.728618 0.045494)
(0.00204315 0.704314 0.0743369)
(0.00425248 0.729676 0.0856591)
(0.0246191 0.7108 0.115382)
(0.016814 0.478488 0.00982883)
(0.00710187 0.72728 0.00801968)
(-0.0297762 0.712672 0.0398296)
(0.0033942 0.793695 -0.0316256)
(0.00456192 0.699213 0.00378737)
(0.0120084 0.796319 -0.00181182)
(-0.0284428 0.765844 0.0455505)
(0.00386549 0.719269 -0.0620464)
(0.0328999 0.773056 0.00727982)
(-0.0443269 0.773901 0.0244269)
(-0.022807 0.738747 0.0403779)
(0.00896261 0.738945 0.015887)
(0.00146491 0.766764 0.0501008)
(-0.101495 0.799156 0.119832)
(0.000639113 0.854827 0.0617001)
(0.0220307 0.78489 -0.00939922)
(-0.000933064 0.77268 0.00386639)
(-0.00921804 0.786456 0.0177707)
(0.00263625 0.842743 0.0402176)
(0.0235642 0.782458 -0.0245185)
(-0.00650867 0.764884 -0.00228055)
(-0.00912731 0.830886 0.00839915)
(0.00731415 0.832202 -0.0217774)
(0.00213361 0.845002 -0.0449613)
(-0.0195944 0.794924 0.0452953)
(0.0158877 0.732719 0.00117742)
(-0.00319046 0.778907 0.00399082)
(-0.0342141 0.797273 0.0473456)
(-0.00228287 0.789922 -0.00109247)
(-0.0504803 0.595976 1.74679e-05)
(0.0425766 0.76827 -0.0604037)
(-0.0257966 0.736512 0.046439)
(0.0215957 0.501542 0.00821066)
(-0.0159335 0.741606 0.0194575)
(0.0420558 0.829723 -0.00866896)
(0.121413 0.850603 -0.0826962)
(-0.032511 0.799952 0.0890403)
(0.0979449 0.868019 -0.0774675)
(0.0221809 0.857349 -0.032783)
(-0.041863 0.812879 0.0613843)
(0.00590826 0.825372 0.00994552)
(0.000260262 0.835206 0.100688)
(-0.0163001 0.837206 0.0403507)
(0.00953962 0.822818 0.0710374)
(-0.00628785 0.800909 0.0130939)
(0.00480205 0.799882 0.0225989)
(-0.0137033 0.816031 -0.00851496)
(0.0353742 0.804257 -0.0154228)
(-0.0329457 0.856072 0.0210544)
(0.0139947 0.838158 0.0168013)
(0.0116084 0.837013 -0.0181839)
(0.00526368 0.853453 0.003701)
(0.00820064 0.826759 0.0458735)
(0.0187469 0.833614 0.0305351)
(-0.00894546 0.845881 0.0057789)
(-0.0132837 0.841682 0.0387283)
(-0.00433546 0.819951 0.0444037)
(-0.00767538 0.81623 0.0588955)
(-0.0068158 0.824469 0.0581356)
(0.00704997 0.829141 0.0444295)
(0.00419518 0.848896 0.0453693)
(0.0226667 0.835791 0.0437908)
(0.0132049 0.846428 0.0763196)
(-0.0244043 0.858746 0.0559145)
(-0.00175171 0.838445 0.0580057)
(-0.00645234 0.85415 0.0844404)
(-0.0192046 0.835771 0.0628471)
(-0.00570588 0.848063 0.0650479)
(0.013441 0.843103 0.0453804)
(-0.0331791 0.88958 0.02738)
(0.000975488 0.873048 0.107231)
(-0.00869202 0.875623 0.0702518)
(-0.0712864 0.842212 0.126365)
(-0.0436715 0.863324 0.150575)
(-0.0100528 0.86243 0.0932482)
(-0.0469521 0.873149 0.0925449)
(-0.00287508 0.828376 0.139014)
(-0.00964106 0.836947 0.153079)
(0.00302689 0.824882 0.170011)
(0.0167302 0.891556 0.177484)
(0.000129607 0.873749 0.169747)
(0.00897298 0.860143 0.174113)
(-0.00360987 0.857702 0.164102)
(-0.0130922 0.836881 0.154663)
(-0.00841768 0.830857 0.165657)
(-0.0649657 0.82743 0.295569)
(-0.00623915 0.816059 0.296848)
(-0.00349793 0.823847 0.178128)
(0.0673453 0.919736 0.278419)
(0.0131462 0.904048 0.276908)
(0.0420241 0.896477 0.338141)
(-0.0795893 0.930936 0.391172)
(-0.0042278 0.878146 0.333579)
(-0.00566816 0.931384 0.288934)
(0.0153136 0.931224 0.264909)
(0.00476197 0.893823 0.33119)
(0.0382114 0.950102 0.346608)
(0.00732459 0.970103 0.300831)
(0.00841405 0.946192 0.285945)
(-0.00570962 0.809776 0.421821)
(0.00352147 0.819641 0.33437)
(-0.0177767 0.854077 0.356138)
(0.0563976 0.881745 0.507201)
(0.0261296 0.879994 0.436736)
(0.0164087 0.899462 0.457557)
(0.0526007 0.885809 0.54026)
(-0.00169244 0.561011 0.532776)
(0.00453959 0.446748 0.510676)
(-0.00135133 0.45518 0.567759)
(-0.000844318 0.597065 0.493919)
(-0.00806667 0.577695 0.457661)
(-0.0517467 0.424099 0.68859)
(0.0431274 0.323615 0.647428)
(0.0119304 0.377793 0.575583)
(0.0750244 0.343204 0.715539)
(-0.0140332 0.390597 0.673638)
(0.0903781 0.329714 0.694391)
(-0.0374475 0.457479 0.773979)
(0.0363853 0.276131 0.594118)
(0.0826075 0.299493 0.602651)
(0.00280413 0.167871 0.582322)
(-0.0273715 0.139073 0.629749)
(0.010588 0.100227 0.637456)
(0.105878 0.297439 0.710283)
(0.042453 0.304001 0.680107)
(-0.0675967 -0.475162 0.679123)
(-0.0618329 -0.43738 0.42128)
(-0.0227125 -0.429944 0.469996)
(0.0269034 -0.54874 0.345119)
(0.0313248 -0.646101 0.276493)
(-0.155138 -0.582791 0.286058)
(-0.0503508 -0.448172 0.727596)
(0.0472661 0.327318 0.279119)
(-0.0232946 0.443361 0.241516)
(0.0756955 0.282469 0.294425)
(0.00332121 0.383015 0.293503)
(0.0184534 0.320252 0.272827)
(0.0628118 0.239013 0.276051)
(0.0512012 0.288904 0.292331)
(0.00151934 0.425949 0.209299)
(0.00184851 0.425803 0.236963)
(-0.0118456 0.465852 0.267124)
(-0.00472262 0.459942 0.265711)
(0.0249257 0.444348 0.240229)
(0.0146499 0.469943 0.24791)
(0.0325277 0.438303 0.233886)
(0.0213102 0.417195 0.239664)
(-0.0108977 0.488384 0.297753)
(0.0205691 0.601448 0.382566)
(0.0184128 0.642721 0.324677)
(-0.00116191 0.520132 0.39615)
(0.00175565 0.591751 0.196271)
(0.00660067 0.579793 0.273129)
(-0.0107803 0.562773 0.21349)
(-0.0153004 0.516719 0.280532)
(0.0027598 0.486277 -0.160126)
(-0.00517544 0.497501 -0.133859)
(0.000560499 0.486651 -0.113198)
(0.00179958 0.485958 -0.132294)
(0.00391892 0.488191 -0.124703)
(0.00588674 0.499928 -0.129472)
(0.00661293 0.470046 -0.136033)
(0.021194 0.461525 -0.119191)
(-0.0223185 0.460881 -0.104266)
(-4.36379e-05 0.417845 -0.145258)
(0.0114886 0.478763 -0.093194)
(-0.0409482 0.49661 -0.0635126)
(0.00682682 0.442293 -0.126992)
(-0.0218353 0.456247 -0.0916243)
(0.00401947 0.397012 -0.108428)
(-0.0158743 0.40541 -0.079748)
(0.000668487 0.405706 -0.0629987)
(0.00389464 0.41823 -0.0963105)
(0.022428 0.411786 -0.124725)
(0.0111051 0.39742 -0.109634)
(-0.0124392 0.42626 -0.0923838)
(0.0107912 0.307819 -0.107805)
(-0.0131376 0.307386 -0.104046)
(-0.00178395 0.276188 -0.130078)
(-0.00406175 0.298049 -0.0832006)
(-0.0262024 0.315983 -0.0793504)
(-0.00571698 0.272349 -0.0943197)
(-0.00860632 0.290681 -0.105608)
(-0.00726309 0.235254 -0.155623)
(0.0108645 0.235956 -0.181833)
(-0.00201026 0.259591 -0.190888)
(0.0261335 0.248261 -0.0927059)
(-0.012243 0.273595 -0.08195)
(0.0180459 0.216581 -0.136951)
(-0.0147563 0.243762 -0.106245)
(0.0237526 0.241336 -0.0750113)
(-0.039897 0.290532 -0.0252061)
(0.0500147 0.24399 -0.0532163)
(0.074726 0.251698 -0.088148)
(-0.0136506 0.204419 0.0169973)
(-0.0201421 0.188507 -0.00365474)
(-0.0199964 0.188243 0.017552)
(0.00156652 0.194276 -0.0484412)
(-0.023441 0.185056 0.00157003)
(0.0529179 0.249348 -0.110107)
(0.0131535 0.238575 -0.0773062)
(0.0336513 0.0166686 -0.146329)
(-0.0287113 0.0152943 -0.11202)
(-0.00395914 0.109704 -0.0849791)
(0.0243968 0.117767 0.0374299)
(0.0070374 0.148899 0.00937538)
(0.020774 0.108629 -0.12747)
(-0.0496862 0.0314988 -0.15939)
(0.0290567 0.175256 -0.0338631)
(0.0336197 0.14842 -0.0100651)
(0.00914695 0.154278 0.00513409)
(-0.00582091 0.102066 -0.0025697)
(-0.00637585 0.0377065 -0.0435034)
(0.00643964 0.108299 -0.00287889)
(-0.0298877 0.0667088 -0.0898163)
(0.000261479 0.11935 -0.0253217)
(0.0379161 0.17002 -0.045266)
(0.0288623 -0.122939 0.0164273)
(0.0379588 -0.0178553 -0.00209428)
(0.0174622 -0.00162105 -0.000747622)
(-0.00414752 -0.0327839 0.0048779)
(-0.00216388 0.0194453 -0.0262735)
(-0.0220547 0.0274831 -0.0406817)
(0.126861 -0.0928312 -0.12815)
(0.0098392 -0.0335697 0.0536522)
(0.161562 0.102939 -0.0542647)
(0.172021 0.282513 -0.0272719)
(-0.102013 0.0418916 0.14278)
(-0.032592 -0.463758 0.468335)
(0.167141 -0.354579 0.344424)
(-0.0342649 -0.416486 0.50607)
(-0.16619 -0.563741 0.494758)
(0.045794 -0.444 0.247914)
(-0.0870533 -0.50798 0.475945)
(-0.11513 -0.581427 0.116571)
(-0.192321 0.0801409 -0.146905)
(0.0597104 0.0675342 -0.0418411)
(-0.0415366 -0.348061 0.400156)
(-0.0704149 -0.164482 0.439345)
(-0.225853 0.0925159 0.182964)
(0.00611549 -1.39764 0.0861076)
(-0.0967651 -0.0680315 0.0734629)
(0.613996 0.736032 1.00083)
(-0.0382807 0.473826 0.309562)
(0.116613 0.409692 0.436276)
(0.00276599 -0.165284 0.0335202)
(0.0199644 0.307732 0.024921)
(0.594807 -0.519508 0.307945)
(-0.111211 -0.0226576 0.21662)
(0.431237 0.614578 0.870485)
(-0.175709 -0.241089 0.255484)
(0.109669 -0.014564 0.421221)
(0.145749 0.755381 0.933266)
(-0.0756208 0.156393 0.727861)
(-0.334353 -0.403701 0.65454)
(-0.0631295 -0.0148872 -0.00825552)
(-0.072065 -0.0391353 -0.0511313)
(0.025146 -0.0703811 0.0434646)
(0.0341021 -0.0195776 0.0243668)
(0.0448633 0.0295265 0.0620785)
(-0.0758456 -0.0176392 -0.131595)
(-0.0364948 -0.0300627 -0.0958149)
(5.25873e-05 0.00904104 -0.0083805)
(-0.00149165 0.00945404 -0.00118809)
(-0.003699 0.00541565 0.00248512)
(-0.00193001 0.00346831 -0.0044581)
(0.0012626 0.000635665 -0.00442638)
(0.000102842 0.00230897 -0.00414262)
(0.00141988 -4.49007e-05 -0.00190134)
(0.000810877 -0.00016184 -0.0024953)
(0.00704971 -0.00321194 -0.00964039)
(0.00229573 -0.00107401 -0.00780605)
(0.00724106 -0.00366619 -0.0116502)
(0.0003881 0.00103461 -0.00204169)
(-0.00013123 0.00391298 0.0009711)
(0.00985679 0.00700062 -0.00269017)
(0.00221386 -2.0935e-05 -0.000420791)
(-0.00119744 0.00889507 -0.00178809)
(0.00795952 0.0168694 0.00434346)
(0.00911065 -0.00121733 0.00072572)
(0.0213254 0.0101397 -0.00541362)
(0.00462041 -0.002764 -0.00857227)
(0.00459167 -8.10045e-05 -0.0022461)
(0.0106747 0.00256883 -0.0058074)
(-0.00216356 0.000472744 0.00384639)
(-0.000651053 -0.00369588 -0.00180469)
(0.000139917 -0.000290155 0.00554668)
(-0.000976055 -0.00191018 0.00747492)
(-0.00212267 -0.00580559 0.00493245)
(-0.000309531 0.000381101 0.00892148)
(0.00376018 -0.00182311 0.00989077)
(0.00605427 -0.000204217 0.013828)
(0.0112249 0.00883021 0.0194694)
(0.000125716 0.00107821 0.00118068)
(-0.00161759 -0.00105444 -0.0021667)
(0.000764216 6.07553e-05 -0.00201663)
(0.000389099 0.000557464 -0.00498676)
(0.000754783 0.00183629 -0.00353051)
(0.00134766 -0.000539477 -0.00207094)
(0.00166159 -0.0034669 -0.00751506)
(0.00178585 0.00202053 0.00193127)
(-5.95274e-05 0.00377528 -0.00359619)
(0.00017426 0.00358351 -0.000234478)
(-0.000535586 0.000361228 0.00871465)
(-0.00104171 0.000472128 0.00808085)
(-0.000251839 0.000715835 0.00909383)
(-0.00101501 0.000547501 0.00918493)
(0.000272589 -0.00145571 0.0069343)
(0.0028949 0.000738399 0.0085975)
(-0.000846184 0.000797522 0.00826287)
(-0.00264093 -0.0195728 -0.00890691)
(0.0316217 -0.0148237 -0.0287714)
(-0.00362416 -0.0214209 0.0119855)
(-0.00167132 -0.00200154 0.00806446)
(0.00241222 0.000349871 0.0120028)
(0.0173098 0.000921822 0.0108886)
(0.00699596 -0.00168109 0.0100986)
(-0.0666739 -0.0504762 0.0765399)
(-0.01687 -0.0762559 -0.0188409)
(-0.0189641 -0.0244744 0.0145141)
(0.0508449 -0.043481 -0.0508445)
(0.0530492 -0.0372734 -0.02504)
(0.0191972 -0.00575827 0.0140196)
(-0.0410736 -0.00296627 0.0520911)
(-0.0222781 -0.0521119 -0.00228947)
(-0.065643 0.0166426 0.0242931)
(-0.0216377 -0.0977839 0.0549204)
(0.0427415 -0.0331823 0.0101975)
(0.0461205 -0.0339354 0.0346627)
(-0.0368381 0.0509052 -0.0202195)
(-0.0278903 -0.0151 -0.0223336)
(0.0651436 -0.078372 -0.556355)
(-0.0287984 0.0700365 -0.56948)
(-0.0135829 0.303267 -0.580564)
(0.137359 -0.189594 -0.749156)
(0.156823 -0.128758 -0.697615)
(0.152413 0.147373 -1.04425)
(0.0309525 0.231704 -0.842416)
(0.00288781 0.145387 -0.852149)
(-0.00811423 0.0996403 -0.733579)
(-0.0290428 0.164553 -0.805363)
(0.05516 0.0342994 -0.747527)
(0.0288371 0.0451203 -0.71853)
(-0.0273372 0.0751925 -0.752662)
(0.000890082 0.0270417 -0.754855)
(-0.0189545 0.339788 -0.946129)
(0.0298566 0.442931 -0.985024)
(0.0192089 0.392451 -0.970445)
(0.0263637 0.420155 -1.13809)
(-0.051782 0.271469 -1.03873)
(-0.0254958 0.276095 -1.18292)
(0.0296377 0.410493 -1.18334)
(0.0243507 0.609634 -0.994999)
(-0.00138448 0.516521 -1.12271)
(0.0313014 0.615626 -1.01147)
(0.0467391 0.383459 -1.25638)
(-0.00860066 0.438111 -1.2725)
(0.0700861 0.386597 -1.2085)
(0.020518 0.432323 -1.23237)
(0.0433747 0.5373 -1.09939)
(0.0342473 0.541469 -1.10435)
(-0.0449964 0.845965 -0.784294)
(-0.0607754 0.828061 -0.857803)
(-0.00208138 0.77824 -0.755687)
(0.0174759 0.653505 -0.891673)
(0.0188863 0.703909 -0.775612)
(0.009981 0.652865 -0.923764)
(-0.00255951 0.708443 -0.805314)
(-0.0995058 0.740782 -1.00073)
(-0.0878748 0.809022 -0.871663)
(0.0443476 -1.23916 -0.406522)
(-0.0101936 -0.0752014 -0.883582)
(-0.0632989 0.335544 -0.867535)
(0.0390259 -1.44265 -0.275433)
(0.360342 0.150612 -0.182923)
(0.0430671 -0.0808892 -0.159487)
(0.0700671 0.476054 -0.506817)
(0.0066238 0.288231 0.295852)
(0.00190522 0.337188 0.266384)
(-0.00357601 0.31233 0.263197)
(0.0145144 0.324198 0.288135)
(-0.0333785 0.353805 0.283198)
(-0.0226389 0.311929 0.292738)
(0.0207808 0.284076 0.326275)
(0.0069136 0.228514 0.271486)
(0.0265973 0.264678 0.245716)
(0.00434721 0.235637 0.315001)
(0.0150433 0.279247 0.343243)
(0.0565362 0.317819 0.335327)
(0.0234032 0.282958 0.373729)
(-0.0080081 0.276773 0.375966)
(0.00869283 0.332117 0.375366)
(-0.00331662 0.363096 0.372495)
(0.00197616 0.346463 0.328604)
(0.0233215 0.338859 0.317275)
(0.00302876 0.355988 0.306279)
(0.00298134 0.482835 0.19117)
(-0.00530292 0.564526 0.217299)
(-0.0150318 0.575043 0.202623)
(0.000401386 0.597808 0.191948)
(0.0100295 0.530503 0.193879)
(-0.0101356 0.546281 0.206065)
(0.00442748 0.618859 0.186474)
(0.015987 0.61133 0.148906)
(0.000564179 0.606029 0.109438)
(0.0405608 0.602162 0.170888)
(-0.0109251 0.650468 0.126879)
(0.00259825 0.62812 0.138315)
(0.0303095 0.622058 0.164343)
(0.00638166 0.638651 0.150385)
(-0.0129691 0.54654 0.0210518)
(-0.00371591 0.551148 0.0275298)
(-0.00517052 0.540611 -0.0131751)
(0.0086665 0.573097 0.0588405)
(-0.0516459 0.582028 0.0342327)
(-0.00817284 0.58439 0.0440795)
(0.0478957 0.594726 0.0983338)
(0.0232309 0.384226 0.0110468)
(-0.0113532 0.5701 0.0135035)
(-0.0309581 0.569761 0.0415004)
(0.00536328 0.626807 -0.0342262)
(0.0152291 0.558818 -0.000947544)
(-0.000186744 0.62966 -0.00161999)
(-0.0220228 0.608243 0.0380632)
(-0.00609926 0.583863 -0.0216841)
(0.0482654 0.620173 0.0371016)
(-0.0116708 0.631313 0.0457389)
(-0.0150862 0.579862 0.0333406)
(-0.0221391 0.582594 0.0424461)
(-0.00307334 0.600175 0.0504801)
(-0.0786354 0.639458 0.106598)
(0.0225736 0.651788 0.0247001)
(-0.0306373 0.489699 -0.00335334)
(-0.0246014 0.662094 -0.0350251)
(0.0191744 0.571213 0.00947531)
(-0.0150502 0.616579 0.00431289)
(-0.0221284 0.636157 0.0139236)
(0.0312171 0.644566 0.0440235)
(0.0717808 0.704593 0.0966053)
(-0.0065224 0.607204 0.0145218)
(0.00603151 0.602461 -0.0045731)
(0.0024155 0.650305 0.0472492)
(-0.0405638 0.640234 0.049043)
(-0.0219189 0.630892 0.045505)
(-0.0549093 0.526617 0.0119719)
(0.00620302 0.750915 0.0196632)
(0.00539931 0.813492 0.143468)
(0.0201079 0.663439 0.0804172)
(0.0020065 0.686695 0.0533502)
(0.069551 0.778426 -0.079336)
(-0.0160043 0.681743 0.0211456)
(0.0303453 0.718159 0.00352734)
(-0.0706855 0.781671 0.0755503)
(0.0101375 0.817615 -0.045278)
(-0.0320618 0.757908 0.0264771)
(0.0210601 0.692159 0.0457544)