/*--------------------------------*- C++ -*----------------------------------*\
| =========                 |                                                 |
| \\      /  F ield         | OpenFOAM: The Open Source CFD Toolbox           |
|  \\    /   O peration     | Version:  v2012                                 |
|   \\  /    A nd           | Website:  www.openfoam.com                      |
|    \\/     M anipulation  |                                                 |
\*---------------------------------------------------------------------------*/
FoamFile
{
    version     2.0;
    format      ascii;
    class       surfaceScalarField;
    location    "0.25";
    object      alphaPhi0.water;
}
// * * * * * * * * * * * * * * * * * * * * * * * * * * * * * * * * * * * * * //

dimensions      [0 3 -1 0 0 0 0];
oriented        oriented;


internalField   nonuniform List<scalar> 
13152
(
9.25697e-07
2.02317e-05
-1.52321e-06
-1.96342e-05
1.86436e-05
-1.71472e-05
-5.70708e-07
-3.48406e-06
4.23594e-05
-3.46665e-05
3.5393e-05
-2.24974e-06
2.12147e-05
-7.55154e-05
2.8515e-05
-2.44474e-05
6.04239e-05
-1.6134e-05
-2.95774e-05
-2.83975e-05
7.41088e-05
3.88332e-07
-1.6827e-05
3.04729e-07
-2.98998e-05
7.10767e-07
7.86726e-06
5.16601e-06
-2.98603e-05
7.84386e-06
3.28127e-07
-5.07283e-06
-1.54808e-05
-2.98066e-05
-8.64324e-06
-1.4643e-05
-5.14346e-06
2.84297e-05
-6.76671e-08
-8.65863e-06
8.30609e-08
-1.41665e-05
-5.4419e-07
5.65329e-06
-3.05658e-05
1.62539e-05
-2.93984e-05
2.99082e-05
2.93766e-05
-5.66005e-07
3.34371e-08
-1.51861e-05
-2.98876e-05
1.1442e-07
-7.4934e-05
3.31222e-07
1.60057e-05
3.02374e-05
1.98256e-09
7.46728e-05
3.58221e-05
1.26602e-05
2.53842e-05
-7.38665e-05
3.22224e-07
-6.62096e-07
3.61619e-05
1.24118e-05
2.74655e-07
-1.87783e-05
7.35494e-05
7.78075e-05
2.90693e-05
-7.25715e-07
-2.93448e-05
1.00122e-06
-1.63635e-05
-2.68778e-05
7.23106e-05
1.94708e-07
-1.7284e-05
-8.07517e-06
7.99619e-06
2.73689e-07
5.28306e-06
-3.06422e-05
-4.953e-06
-1.39286e-05
-2.90147e-05
-1.37985e-05
1.43568e-07
2.91088e-05
2.37627e-07
7.17437e-07
8.66101e-07
-1.83511e-07
-2.08305e-06
-6.35802e-08
1.91103e-08
5.1285e-07
8.32881e-08
1.00593e-07
-2.33412e-07
-4.72672e-08
3.09164e-07
6.48074e-08
-5.43138e-07
2.61092e-08
-1.06761e-08
7.9385e-08
2.76013e-08
1.06262e-07
-5.06694e-08
2.94962e-08
2.60386e-09
-5.0097e-24
2.26166e-23
-1.30658e-23
-2.24062e-23
8.77665e-23
-7.64152e-23
-7.67975e-23
-2.60927e-23
-1.55029e-22
5.02006e-23
2.13672e-23
-2.89963e-22
-6.71696e-25
6.69257e-25
-1.03354e-22
-2.1478e-26
-5.15224e-22
-7.56014e-24
-1.72818e-23
-2.77854e-24
1.54375e-23
8.64735e-25
-3.03394e-23
-9.68036e-25
-1.23994e-22
1.28038e-24
2.48285e-22
1.66908e-22
-1.16651e-21
5.60614e-23
1.08248e-23
-4.69269e-23
5.86288e-23
-3.49039e-24
1.02648e-20
8.04552e-21
6.13467e-21
-5.90806e-20
-1.96388e-22
2.16183e-21
1.2435e-21
1.10921e-21
-9.97964e-23
-6.59672e-22
4.97437e-22
2.91159e-22
2.10857e-21
-3.36663e-21
-7.71099e-22
9.0649e-22
-7.76172e-22
-2.78589e-08
-1.92368e-08
-5.64602e-09
5.55461e-08
-7.42796e-10
-1.45817e-08
-1.02278e-08
-1.64755e-10
-1.64118e-08
3.05828e-08
-4.8346e-09
-4.06309e-08
-2.05548e-08
4.54938e-08
-2.34197e-08
3.45983e-09
-4.50208e-08
1.06686e-08
-1.3107e-10
-9.92485e-09
1.66488e-09
-1.18322e-09
-7.69567e-10
1.3599e-08
-9.60332e-10
-8.63005e-11
1.75216e-08
1.54504e-09
-2.86646e-08
1.31582e-08
7.70183e-09
-2.37859e-09
1.56159e-08
-1.52464e-09
4.16228e-05
1.51945e-05
-1.0472e-05
-4.54875e-05
-1.77922e-05
5.7087e-06
5.34859e-05
1.27782e-05
-1.65538e-05
-3.31064e-05
1.01124e-05
3.64287e-05
-2.06345e-06
-4.67415e-05
-2.95736e-05
4.62313e-05
-3.99184e-05
-2.30515e-06
-3.73645e-06
-4.30191e-09
3.84001e-06
-1.19446e-06
1.09077e-06
-6.97581e-06
-2.24724e-06
-1.57152e-05
-8.83509e-06
1.28293e-06
2.95536e-06
-3.16776e-07
-3.43885e-05
4.71432e-06
-1.92833e-05
5.21502e-06
8.06339e-07
1.99678e-07
-1.26266e-06
2.63065e-07
-1.84152e-06
-8.30789e-08
2.73703e-06
1.20082e-06
-2.8032e-06
-1.36715e-06
-2.43943e-06
3.73447e-06
-5.50786e-06
2.89778e-06
-5.82361e-06
4.63216e-06
-1.40232e-05
1.30262e-07
1.03168e-06
1.84557e-06
-2.99325e-06
2.64479e-07
3.60319e-07
-4.93142e-07
7.51422e-07
5.46226e-07
-3.34676e-07
2.54587e-06
-1.45439e-06
1.86537e-06
-1.40695e-06
-1.28029e-78
1.23289e-11
8.18889e-13
-8.76974e-12
0
0
0
4.14669e-13
1.26173e-11
7.2061e-16
3.32183e-15
-3.59091e-15
2.2734e-16
5.21234e-16
-8.70141e-13
1.39097e-12
9.76724e-14
1.71667e-05
1.13637e-06
-1.85762e-05
-1.57101e-09
-2.23018e-05
-2.59275e-05
6.51741e-05
1.5508e-06
-2.28018e-05
-2.61666e-05
2.59634e-05
1.39266e-06
2.04879e-05
-7.06823e-05
-1.23971e-06
1.16168e-06
-1.27043e-08
-7.94323e-43
-2.08254e-102
0
1.49575e-42
-1.35071e-102
5.96425e-42
0
0
0
4.34745e-26
2.26704e-26
-3.39426e-26
1.4031e-27
5.30052e-26
2.75113e-26
9.11659e-27
3.8549e-26
-5.62863e-15
1.39372e-15
2.14288e-15
-4.95273e-15
1.10126e-14
7.15312e-16
-3.22119e-14
1.96449e-15
5.53566e-15
-1.52693e-14
-1.13414e-15
1.09783e-14
-1.06092e-14
-2.11418e-14
1.16032e-14
-3.68339e-14
6.55256e-15
-1.00304e-17
-7.33654e-17
7.82085e-18
3.49043e-17
-3.03968e-17
9.14284e-18
-4.13849e-17
-2.02892e-18
-2.52284e-16
-1.08384e-16
2.7311e-18
5.0706e-17
-8.49837e-17
-1.98803e-16
1.30435e-16
-4.61646e-16
6.48201e-17
-4.19461e-19
4.85601e-19
-1.56583e-18
8.99368e-19
1.00533e-18
-2.66919e-18
-8.40419e-19
-1.20402e-18
1.82975e-18
5.00676e-20
5.54674e-18
-2.01976e-17
2.20657e-18
-8.78418e-18
6.63619e-19
-2.04783e-18
1.94381e-18
5.13904e-18
9.50039e-19
-4.58212e-18
-1.10935e-18
-7.14276e-17
-1.57364e-18
8.6738e-17
1.53964e-17
-4.7287e-17
1.81527e-18
-1.37014e-18
-4.97466e-18
-1.24668e-17
1.33308e-17
-7.77513e-17
6.42088e-17
6.11545e-17
-3.67559e-18
-9.46979e-17
-3.89945e-18
6.04761e-17
-7.74126e-18
5.25115e-17
-1.65555e-17
-3.52827e-17
3.7112e-18
-1.38774e-16
-1.93186e-17
1.74143e-16
-5.35488e-17
-1.78731e-16
3.21419e-17
3.33012e-17
2.43361e-17
-1.24627e-20
-2.67716e-17
1.23986e-17
-8.65443e-17
4.20482e-17
-5.72634e-16
-1.31039e-15
9.14643e-16
-1.36029e-15
-2.73776e-15
2.84913e-15
-9.91169e-16
-1.52347e-15
-3.10648e-15
-7.43149e-16
1.54577e-15
-2.04573e-15
-5.04812e-15
2.54493e-16
1.15872e-15
-2.63023e-15
5.86613e-15
-1.71339e-14
-7.32519e-16
2.85283e-15
-6.59837e-16
-9.44388e-11
-1.34499e-10
-1.52506e-10
2.48088e-10
-3.7687e-11
-3.70008e-10
1.30931e-10
-3.07652e-10
-2.85116e-11
-8.25159e-11
-6.34293e-11
2.52348e-12
-1.17964e-10
-3.25244e-10
1.49689e-10
1.15737e-10
-4.99905e-10
1.04086e-10
4.20271e-12
-1.08005e-10
1.44884e-10
-1.01418e-10
6.22925e-11
4.19392e-11
1.93826e-11
-1.24274e-10
3.55176e-11
3.34904e-11
-5.09883e-11
2.42801e-11
5.57502e-11
-7.27223e-11
-1.23141e-12
8.50339e-11
-6.46201e-11
-8.68283e-11
1.02142e-10
-1.36631e-10
2.26131e-11
-2.71532e-12
-2.55167e-12
2.63686e-11
-1.1438e-11
5.50205e-12
3.79201e-11
8.07959e-13
-1.04053e-11
1.75864e-11
-3.10468e-12
-9.93153e-12
1.30293e-12
6.7918e-11
-6.68365e-12
2.57414e-11
-2.96346e-12
-3.19566e-13
-1.61916e-13
6.59768e-12
3.10392e-12
9.21009e-13
2.2968e-13
-1.28435e-12
2.53589e-12
-1.39641e-12
-1.49529e-12
-6.97797e-13
-6.3416e-13
3.98283e-12
8.29793e-13
-1.06754e-12
2.88287e-12
1.21482e-10
6.96325e-11
3.39735e-11
-2.18301e-10
-6.66082e-12
7.93876e-11
4.50426e-11
3.20103e-11
-1.98214e-12
-2.25842e-11
-3.26473e-11
8.08602e-11
-2.46172e-11
-2.67237e-13
1.00596e-11
-6.67823e-14
4.99662e-11
9.17537e-11
-2.52804e-11
-1.386e-10
5.71271e-11
-7.45272e-11
4.24912e-11
1.55268e-10
-2.19273e-12
-5.32118e-11
4.03345e-10
-3.51182e-11
-3.83677e-10
1.37964e-10
1.68084e-10
-2.58682e-10
4.15666e-10
-2.80351e-10
-2.10669e-12
-3.2901e-11
-6.53336e-11
1.08771e-10
-5.06421e-11
-2.63501e-10
-3.42153e-11
-3.95928e-11
1.68333e-10
-9.82107e-11
-3.17979e-10
-2.55483e-11
1.42825e-10
-1.04737e-11
-4.23417e-11
-1.29856e-10
-6.70542e-12
1.16544e-11
9.3875e-14
-2.53011e-11
1.51454e-11
-5.75368e-12
-2.57311e-11
7.19735e-12
1.0311e-11
-4.57527e-11
7.00414e-12
3.36203e-11
-4.9602e-12
4.94925e-11
-8.61751e-11
3.76669e-11
-2.6695e-14
-8.25557e-15
7.45826e-15
1.10005e-14
1.14408e-14
-3.07857e-13
7.29693e-14
-4.33126e-15
-1.58111e-14
8.26228e-13
-2.1159e-13
-1.97302e-12
-2.18432e-15
4.12919e-13
4.10204e-13
-1.40179e-12
1.87203e-13
-6.23254e-17
4.75553e-17
1.57354e-16
-5.68661e-16
1.10239e-16
-2.56305e-17
7.31663e-17
4.70863e-17
-2.68666e-15
1.46885e-16
1.57865e-15
-6.05619e-16
-5.58313e-15
-3.01301e-16
-1.6084e-17
3.02327e-16
-2.10454e-17
-1.16337e-15
5.92613e-17
-1.3596e-16
1.03422e-16
-5.39644e-19
-6.51539e-20
6.47991e-20
6.6974e-19
7.02698e-19
3.86967e-19
6.92724e-19
-1.70239e-19
2.4515e-18
-2.21439e-18
-5.40324e-19
3.75159e-18
3.00342e-18
-4.82136e-18
3.19799e-18
5.20357e-15
2.2477e-15
-1.47708e-14
-3.41461e-15
-6.46487e-15
-7.88835e-15
1.4203e-14
-2.33178e-14
9.12027e-15
1.67464e-14
1.42309e-14
-5.967e-14
1.79689e-14
-1.90213e-14
-2.2875e-14
2.45173e-14
-4.38796e-14
-1.46571e-07
-9.19238e-07
-9.2555e-08
1.16514e-06
-1.02515e-07
6.81407e-08
-1.11669e-07
-2.30017e-07
-7.55138e-07
2.45385e-07
3.85103e-08
-3.75715e-07
2.51013e-07
6.0157e-08
-2.26456e-07
-4.92787e-07
2.78696e-07
-1.01465e-06
2.15858e-08
-2.14362e-07
-5.97343e-08
-1.18584e-06
-1.51316e-08
-8.82665e-08
2.71088e-08
8.15041e-08
-2.24428e-08
3.4089e-11
-6.74925e-09
-1.2064e-07
3.37254e-08
1.7482e-09
1.84087e-07
-1.87079e-07
-4.32617e-09
3.13521e-08
3.56382e-08
-4.18073e-09
4.08462e-08
-1.23623e-07
-2.27985e-08
-4.73627e-08
1.48406e-07
2.43932e-08
-1.51263e-07
-3.34423e-08
-3.49754e-08
1.85379e-08
1.22841e-08
-5.31561e-10
-4.21103e-08
2.55571e-08
1.41562e-08
3.05366e-07
-4.56506e-08
-3.5637e-07
-1.18236e-07
1.85862e-07
5.67456e-09
-2.64729e-08
-4.36275e-08
-9.69282e-08
4.33803e-08
4.33088e-09
1.39148e-08
-1.74212e-07
-2.58425e-08
6.55557e-08
-1.55567e-09
-6.8536e-08
1.98721e-08
-3.12777e-08
-1.56192e-08
-9.23902e-08
1.7672e-07
8.65085e-09
3.89461e-09
-4.4161e-08
7.36588e-09
-1.45875e-08
-1.6468e-08
-6.89033e-08
-1.67252e-08
-2.94563e-09
-1.12965e-09
2.00314e-09
4.53113e-09
1.13916e-09
9.47619e-10
-3.9757e-09
5.20172e-09
-3.68173e-10
8.97965e-10
2.02166e-09
-1.52828e-09
1.26585e-09
4.10677e-09
-5.65375e-09
1.42804e-08
-3.46726e-09
4.36647e-06
1.14593e-07
-3.86634e-06
-5.37019e-07
-9.27529e-07
-7.96647e-07
6.16546e-06
-6.52641e-07
4.76559e-09
5.70618e-07
-5.46535e-07
-3.82546e-06
-5.70562e-07
3.56693e-07
1.14963e-06
4.12644e-07
-2.09891e-06
1.21012e-06
-2.02492e-10
-1.76648e-07
8.31614e-07
-2.79171e-07
-2.57099e-09
2.07022e-09
-4.03775e-09
3.79501e-09
2.87597e-09
-1.43955e-09
-4.3983e-09
1.39384e-09
2.97769e-09
1.10184e-08
-1.03701e-09
-1.58474e-08
1.78828e-09
1.26538e-08
2.72224e-09
-5.86709e-09
5.62912e-09
-1.75449e-07
-3.70459e-07
-2.76518e-08
7.38283e-07
-1.28479e-07
8.26239e-08
-1.82362e-07
-5.58043e-08
-2.10013e-07
-3.98263e-07
1.92344e-07
2.49144e-07
-1.71973e-08
-5.89812e-07
2.20462e-07
-2.15071e-07
6.28895e-07
1.92892e-08
-1.24093e-07
1.5255e-07
-7.63257e-08
-1.38641e-07
7.7533e-08
3.79009e-08
3.92937e-07
-4.69447e-08
-8.41271e-08
1.62763e-07
-1.86401e-07
1.1465e-07
-1.42628e-07
-1.38913e-07
1.33605e-07
-1.55174e-07
-2.46535e-07
-1.06917e-07
2.78464e-07
-7.70392e-08
4.37813e-08
4.11746e-08
4.88792e-08
-1.44199e-07
3.92513e-08
3.22851e-07
-3.13891e-07
2.2907e-08
1.12676e-07
1.19398e-08
2.87233e-08
5.32325e-09
9.09245e-08
2.46048e-07
5.42004e-08
-9.8815e-08
5.14497e-08
-1.03282e-07
2.73059e-07
-9.31735e-09
-4.29795e-10
-8.23977e-08
2.08766e-07
2.94476e-07
-5.92271e-07
9.02129e-08
-7.86386e-07
1.08353e-07
8.90309e-07
2.71535e-07
-7.66523e-07
-5.23231e-07
-1.18994e-06
1.82901e-06
-1.7464e-06
6.41262e-07
-2.73263e-06
1.72498e-06
-5.27154e-06
3.95445e-08
-3.96867e-07
-1.66837e-08
-3.89618e-07
3.42722e-07
8.10713e-08
3.85853e-07
3.31706e-07
-5.73833e-08
7.31835e-07
-1.20527e-06
7.41172e-08
6.37504e-07
6.72974e-07
-1.12746e-06
8.31154e-07
-3.43605e-07
-2.58038e-07
-5.72674e-07
-5.23311e-07
7.89553e-07
-5.5298e-07
-1.04293e-06
5.72473e-07
-6.26222e-07
-1.72001e-06
4.80271e-07
2.9703e-07
-2.89719e-06
2.07454e-06
-9.52675e-06
4.68956e-07
-2.18602e-06
8.24107e-07
-6.26831e-07
-1.00215e-06
-9.12649e-07
1.7332e-06
-9.84289e-07
-3.93279e-06
2.77105e-06
-2.18364e-06
-1.42884e-06
4.53007e-07
3.98498e-06
-7.63977e-06
1.39496e-06
-4.72785e-06
2.79041e-06
-5.68832e-06
2.23951e-06
2.03584e-11
1.97509e-11
-1.79133e-11
-3.95847e-11
3.48863e-12
-4.0779e-12
7.38803e-12
1.51757e-12
2.79211e-11
1.15096e-11
-7.11756e-12
-9.46266e-12
2.6469e-12
1.95972e-11
3.71401e-12
-1.17635e-12
-9.93566e-12
-7.31948e-13
7.52802e-12
-1.07968e-11
1.32034e-11
-3.26925e-11
-2.17192e-09
-3.75762e-10
1.04293e-09
1.30105e-09
1.2763e-09
6.55095e-10
-4.16347e-09
-3.54574e-10
7.35739e-10
4.23608e-10
-7.74785e-10
-2.86037e-10
-3.22225e-10
1.08883e-09
1.09476e-09
-1.27483e-09
1.74731e-09
2.7393e-09
6.04672e-09
8.41722e-10
-8.25662e-09
8.75975e-10
-7.94514e-10
4.80102e-09
6.65413e-09
3.96097e-09
5.82613e-09
-7.2439e-09
-1.33726e-09
-1.46223e-10
1.23035e-08
3.51687e-09
-3.46919e-09
-6.64344e-09
-1.79114e-09
4.89189e-09
-1.84552e-09
7.71178e-09
-2.00348e-09
9.69716e-07
1.01587e-07
-9.93558e-07
-3.65932e-08
-1.7574e-06
-7.17183e-07
3.60824e-06
-2.68952e-06
1.37503e-06
8.14826e-07
3.8712e-06
-5.63749e-06
7.9422e-07
-2.66125e-09
9.53861e-08
-1.17797e-09
1.39213e-06
1.3649e-06
-3.78379e-05
-1.59914e-06
3.81232e-05
-3.9611e-05
3.70198e-05
3.98177e-06
3.53617e-05
-0.000112772
4.07578e-05
-3.67225e-05
-5.4996e-06
-3.68461e-05
0.000115776
-3.30468e-06
3.54081e-06
-4.63948e-06
-1.02918e-19
3.06159e-20
-9.20722e-21
1.70354e-21
1.98949e-18
-1.17841e-19
-4.70933e-18
-1.58254e-20
1.37904e-18
1.49881e-20
3.61413e-21
-3.73753e-20
8.71179e-21
1.15677e-21
1.94812e-19
-4.03421e-19
1.43517e-19
2.16717e-21
1.54827e-21
9.01165e-22
-8.42042e-21
1.32104e-21
1.06283e-20
-2.31361e-20
8.03386e-23
6.46461e-22
-1.91796e-21
1.43208e-21
7.50298e-21
1.46669e-21
-4.87068e-21
4.64872e-22
2.29272e-23
1.69357e-21
9.43569e-23
2.75173e-21
-1.98217e-22
-1.70153e-20
4.13206e-21
-1.46935e-20
1.34356e-24
-2.40673e-21
4.95519e-21
-2.54053e-20
8.2343e-21
-3.3371e-21
9.08557e-21
-9.42389e-20
2.03614e-20
-5.08918e-20
1.42895e-20
6.36472e-19
-1.01236e-19
-1.95671e-18
6.79894e-20
-1.50682e-18
-3.25028e-19
1.23471e-18
-1.38369e-19
-7.16559e-18
5.30794e-19
-1.29034e-18
-2.27856e-18
-7.61577e-19
3.25828e-19
-9.17232e-18
3.44575e-18
-7.48775e-19
2.86117e-18
-3.56846e-17
-1.15316e-18
2.47179e-18
-1.81034e-18
1.10044e-19
-2.32979e-21
-3.31507e-19
-2.24736e-22
-5.84545e-20
-5.4361e-20
1.31284e-19
-2.72597e-21
-2.99385e-19
-4.55058e-19
1.51698e-19
-3.78968e-22
1.49592e-19
-1.48511e-18
-4.64574e-19
3.39442e-19
-1.09355e-18
-2.44166e-21
-4.16473e-23
1.90725e-23
3.46516e-22
5.22308e-21
5.10055e-21
-2.61199e-20
1.45416e-21
2.53348e-23
2.1236e-22
-7.42319e-22
2.69474e-23
-1.68474e-22
3.73611e-22
5.31884e-22
1.52504e-21
9.85382e-22
6.29786e-23
8.542e-22
-8.00555e-23
-4.97583e-21
4.97411e-22
-1.67545e-21
4.17899e-23
-4.65192e-22
8.24036e-22
-4.98405e-21
1.42852e-21
5.18379e-21
-3.2286e-20
7.56426e-23
-4.2855e-22
-1.51381e-23
-9.59987e-27
-6.02442e-25
2.41715e-27
9.00618e-26
-9.9668e-25
2.8341e-25
-1.50855e-25
8.94462e-25
-5.72559e-24
2.83981e-26
-1.17545e-25
2.28103e-27
-3.10275e-26
7.52515e-26
-8.22628e-26
1.64578e-25
2.19779e-25
1.21661e-23
2.83347e-23
8.1483e-24
-9.0491e-23
3.40123e-25
3.20022e-24
-1.84268e-25
4.47256e-24
2.25915e-25
2.49525e-24
1.41092e-23
-2.19161e-23
4.68273e-24
-4.32693e-24
-3.84991e-24
-2.87813e-25
-2.6413e-26
-4.03536e-26
6.23448e-26
3.62292e-27
1.78046e-27
6.90688e-25
-8.29654e-23
-1.76884e-24
-3.34937e-23
-4.36366e-22
-1.07001e-25
-1.1454e-25
-4.54726e-26
1.69128e-25
-1.18833e-26
-3.66414e-25
1.11493e-27
-2.13018e-26
-6.91776e-25
5.72705e-25
-8.2701e-25
-6.98838e-25
-3.25178e-25
5.96037e-25
-1.18796e-24
-2.35881e-27
-5.21786e-24
7.88567e-26
1.23138e-24
-7.33395e-24
-1.36387e-25
4.82642e-25
-1.81679e-24
1.08917e-25
-6.55559e-25
1.18654e-24
1.01569e-23
1.14817e-23
-6.07083e-23
2.8731e-24
-1.39016e-25
-2.48426e-25
5.44921e-24
4.59159e-25
-1.56479e-24
3.5249e-26
-1.05765e-27
-1.05031e-25
-6.3529e-29
1.6094e-26
-2.00649e-28
1.56484e-25
8.2745e-26
-7.84388e-25
3.95599e-26
2.35006e-27
-1.54654e-26
-1.98997e-27
1.66226e-26
-5.22742e-26
-4.52429e-27
-2.02044e-26
-2.57569e-26
2.14559e-26
-1.83867e-25
1.92981e-26
1.81155e-25
-7.54079e-25
9.61713e-26
-2.55884e-26
-2.67137e-25
-3.75553e-25
3.19263e-27
-2.79744e-26
-2.29481e-25
-2.41181e-25
-6.26326e-25
-4.00181e-25
-1.47495e-24
-1.42329e-24
-5.80559e-26
1.42844e-26
2.01012e-24
-9.53544e-24
-2.20908e-24
-3.54291e-25
1.34632e-23
-1.6305e-23
-1.93886e-24
7.06125e-24
-4.47725e-24
-5.3317e-24
-9.16445e-22
-1.94215e-21
-2.55295e-24
-3.59859e-23
-1.03907e-25
8.17697e-25
-1.17662e-23
5.73353e-22
-2.14835e-21
-3.63116e-21
2.83376e-19
-2.90704e-20
-9.62196e-18
3.91467e-18
-4.26445e-20
1.61487e-19
2.75851e-20
5.28088e-21
-1.24729e-19
1.39085e-16
-2.11221e-18
-2.22332e-16
-9.87011e-20
1.07861e-16
7.09403e-19
-1.25603e-19
-3.43851e-18
-5.17984e-20
3.71466e-19
-1.56256e-19
2.06075e-19
-4.50133e-19
-1.53426e-18
-6.92859e-18
3.15522e-18
1.47611e-18
1.09507e-18
8.62077e-19
-6.19098e-18
-2.92816e-16
1.02544e-16
3.34718e-15
-1.37087e-15
-4.27088e-15
-2.88679e-16
2.63853e-15
8.15649e-16
-3.30795e-15
2.32763e-16
1.91392e-14
4.92035e-15
-3.43905e-14
-1.49534e-14
-9.59988e-15
-1.62867e-14
3.66073e-14
-1.65812e-14
4.96742e-14
2.75075e-14
-1.36387e-13
8.92226e-14
-1.06401e-13
-2.20684e-14
8.14543e-14
-1.70725e-14
2.76417e-17
5.12035e-17
6.10365e-18
-1.28331e-16
4.69965e-17
-8.50873e-16
2.92779e-16
3.33351e-17
1.52685e-17
7.46055e-15
-2.96673e-16
-1.29422e-14
-2.36743e-17
6.1032e-15
-5.76572e-16
4.06202e-16
-1.25907e-15
-1.26648e-16
-3.63069e-16
1.47197e-16
5.24861e-17
8.31985e-17
-5.19101e-16
-2.84239e-15
-5.91419e-17
3.33414e-16
4.86655e-17
-1.46529e-14
-1.09744e-14
1.33839e-15
1.10393e-14
3.77357e-15
-4.97966e-14
-5.14038e-15
-1.53841e-13
2.42468e-14
4.16199e-13
3.19477e-14
-1.16177e-12
2.21382e-14
1.97458e-13
9.47225e-14
-2.93477e-13
5.79577e-14
-1.30744e-14
-2.64424e-14
-7.54855e-15
2.01785e-14
-2.16857e-15
-2.51214e-14
-6.91632e-15
-3.17965e-15
-2.12982e-13
-3.47104e-13
5.40257e-14
2.28975e-14
2.26418e-13
-2.34515e-12
6.32683e-14
-2.27797e-14
4.52722e-14
8.41654e-12
-3.35969e-11
-1.45019e-10
8.05236e-11
-2.89765e-11
-5.4922e-11
4.85757e-11
-1.444e-10
-5.05858e-11
1.15764e-10
1.9799e-10
-4.31037e-10
1.50901e-10
-2.95445e-10
-8.37607e-11
1.00623e-10
-2.82955e-10
-2.41748e-09
-1.11516e-08
5.89691e-09
4.60846e-09
-9.04983e-09
7.86541e-09
-7.51235e-09
4.79382e-10
-3.01061e-08
-1.72342e-08
-4.33723e-09
2.29631e-08
-6.44362e-09
-2.69437e-08
5.45457e-09
-1.6035e-08
4.36145e-09
6.91458e-09
5.64301e-08
1.79223e-09
-1.16473e-07
6.6459e-08
-6.29169e-08
6.4585e-08
-1.74261e-08
1.1208e-07
-3.24463e-08
6.46209e-08
-6.48303e-08
1.65867e-09
-1.8425e-07
-2.04559e-08
3.79772e-08
4.9822e-08
5.75101e-09
1.97225e-08
1.0926e-08
-2.9126e-08
2.79242e-08
3.36279e-08
-2.17092e-08
-3.18482e-08
7.67398e-09
-2.13059e-08
-5.36518e-08
8.93843e-08
-4.22998e-08
-1.19008e-08
-4.33136e-08
-6.55009e-08
7.54451e-08
-3.83042e-08
-3.73202e-08
5.24433e-08
-1.17618e-07
-2.18177e-09
3.36946e-09
7.63811e-10
-1.57349e-09
-3.16324e-09
-2.294e-09
-3.09207e-10
5.89582e-09
-4.1309e-09
2.3964e-09
5.3686e-09
7.06666e-10
-9.71442e-09
2.42553e-09
5.17677e-09
-4.79045e-09
6.84434e-09
-5.64744e-09
6.00249e-10
-7.01954e-09
-4.05742e-09
1.281e-08
-6.71186e-09
-4.06449e-09
1.2643e-08
-2.35607e-09
-1.94253e-09
-3.06128e-09
-1.26202e-08
1.13984e-08
-2.57611e-09
-4.6121e-09
-4.03707e-09
-1.28097e-08
-8.72896e-09
6.6737e-08
5.02422e-08
-2.27361e-08
-6.29895e-08
-1.64449e-08
2.75754e-08
3.71529e-08
4.22856e-08
-3.01753e-08
-8.42311e-08
-3.80023e-08
1.83939e-07
-3.07425e-08
-5.83873e-08
5.84785e-08
-8.83507e-08
6.80654e-08
-2.46687e-08
-2.40644e-07
-2.51974e-07
3.21994e-07
-2.81457e-07
-6.63289e-07
6.74259e-07
-3.44661e-07
-5.72704e-07
-4.33423e-07
-4.91009e-07
4.89476e-07
-6.21857e-07
-7.58736e-07
-2.0462e-07
-1.05122e-06
-1.71954e-06
3.32502e-07
4.09742e-07
6.7015e-07
-2.13934e-06
2.02928e-07
6.79237e-07
-1.11146e-06
2.15915e-07
2.40725e-07
3.96362e-07
-3.78364e-07
8.41399e-08
-3.0474e-07
7.64207e-07
2.46209e-07
6.69867e-07
-6.94802e-07
2.86392e-07
3.36548e-07
-6.31358e-08
1.66702e-07
-2.64189e-07
-2.2323e-07
-1.84265e-07
-3.78734e-08
4.37938e-07
-3.00184e-09
-1.45392e-07
-1.23245e-07
-4.67829e-09
4.36542e-08
-2.69276e-08
-1.42141e-07
5.22978e-08
-3.36152e-09
4.45836e-08
8.68523e-08
-1.4951e-07
1.57058e-07
-6.65015e-08
2.86717e-07
-3.70046e-07
3.97197e-07
-5.43593e-08
9.83105e-08
1.76873e-07
-3.20027e-07
9.7677e-08
5.06782e-08
-2.36489e-07
1.84535e-08
9.58083e-08
7.73822e-08
-9.82118e-08
2.09911e-08
-8.1276e-08
1.94798e-07
2.4351e-07
2.9358e-07
-5.17873e-07
1.93615e-07
5.96254e-08
-1.70601e-07
3.37971e-07
-7.54196e-08
-4.43336e-08
-1.18701e-07
3.43927e-07
-3.98494e-08
6.23482e-09
3.01301e-08
4.97507e-09
-7.2238e-08
4.24117e-08
-2.78087e-09
2.90384e-08
-9.90538e-08
1.27211e-07
-5.58123e-08
2.64183e-07
-1.74869e-08
1.30792e-08
3.33804e-08
-4.46231e-08
4.11368e-08
4.68276e-08
-7.93731e-10
4.09862e-08
3.70211e-08
-2.36021e-08
-9.45192e-08
1.71713e-07
-8.58818e-08
2.05669e-08
2.49634e-08
6.70403e-09
-5.50567e-08
-2.54409e-08
1.89385e-08
1.81761e-08
-2.83832e-08
8.5014e-09
-7.96395e-08
-1.06634e-08
1.04678e-08
2.27841e-08
-2.92062e-08
4.38875e-08
3.84203e-08
2.28191e-08
1.78617e-08
1.95565e-08
4.54227e-08
2.10278e-08
2.27335e-08
2.95171e-09
6.42062e-08
3.54635e-08
1.13367e-07
9.97829e-09
1.38458e-07
-5.50016e-09
-1.2831e-07
1.23245e-09
-1.19283e-07
-3.56655e-08
-4.88665e-08
-4.78098e-08
-1.23363e-07
5.24215e-08
-3.91711e-08
-1.36902e-07
-6.73741e-08
-4.9621e-08
1.50373e-07
-1.60919e-08
-2.01039e-07
5.2365e-08
-6.00333e-08
-1.62642e-07
-1.7342e-07
-1.77831e-07
-1.2229e-07
-5.20752e-07
-2.06344e-07
-5.85166e-08
2.9651e-07
7.37809e-08
-4.03985e-08
-3.09877e-08
4.18237e-08
8.75332e-08
-4.87152e-09
-7.80817e-08
1.88965e-07
-1.52634e-07
1.26105e-07
1.67142e-08
-2.86819e-07
4.63224e-08
1.09301e-07
8.87244e-08
-4.86225e-07
1.06931e-07
2.14952e-07
-1.658e-08
4.64819e-07
7.2198e-07
1.16864e-08
-8.46033e-07
3.40902e-06
6.38179e-06
-2.8724e-06
-2.18294e-05
1.83607e-05
-4.35093e-06
-1.09242e-05
2.16005e-05
8.46923e-07
-8.22876e-06
-8.13234e-06
6.80823e-06
2.15055e-06
2.1137e-06
-1.84741e-05
-1.45035e-05
1.03926e-05
-3.42205e-05
-7.38228e-07
-2.89085e-06
4.37247e-07
3.15e-06
5.60671e-07
-1.66368e-06
3.60953e-07
-4.83193e-06
2.1313e-06
-2.86437e-06
-1.57993e-06
4.87196e-06
-6.35348e-06
1.80434e-06
1.28683e-05
-3.45431e-07
-1.74698e-05
1.803e-06
1.28347e-05
1.15785e-05
-1.84019e-05
1.14626e-05
-1.14541e-06
-7.75693e-07
1.04179e-06
5.15996e-06
5.2384e-06
-3.37711e-06
-3.94073e-06
2.08817e-06
-1.26201e-05
3.03893e-07
1.75653e-05
-2.50746e-06
-1.34312e-05
9.20561e-06
-2.00379e-05
6.94823e-06
-1.40276e-05
2.35547e-05
-1.21311e-05
1.12925e-05
-1.63513e-06
4.2172e-07
-2.592e-05
1.96673e-05
-3.91635e-05
1.6958e-05
-3.3843e-06
-4.66415e-06
-1.17218e-06
9.22926e-06
-2.11201e-06
-2.83391e-06
1.56228e-06
-4.6333e-06
5.92267e-06
-1.47333e-05
5.97462e-06
1.51479e-05
1.34247e-05
-3.65335e-05
-3.55312e-05
-4.37927e-06
-4.81392e-06
3.16139e-06
1.34967e-05
4.77299e-06
5.00575e-07
-5.08498e-06
-2.34769e-08
-9.46487e-06
-2.92235e-06
1.76117e-05
6.05289e-07
-8.37559e-06
2.91273e-06
-1.56196e-05
8.10452e-06
-1.64852e-05
1.68821e-05
-1.73188e-05
4.39462e-06
-2.76552e-05
-9.77855e-06
-5.46026e-06
-2.02786e-05
-6.9985e-07
-2.5886e-05
1.69039e-05
-7.68234e-06
1.1513e-05
-4.45858e-05
3.02232e-05
-5.71044e-05
-1.03987e-05
1.49962e-05
-1.37004e-05
1.50138e-05
3.40837e-05
-1.90893e-07
-4.89312e-05
1.16579e-05
-9.57816e-06
9.66074e-06
1.13736e-05
3.43826e-05
2.44779e-05
-1.71137e-05
1.84544e-06
3.16994e-05
-3.18128e-05
4.51154e-05
-4.90561e-05
-1.63168e-05
-1.6322e-05
-1.96896e-05
5.22288e-05
-7.30705e-06
-4.34107e-05
3.39594e-05
-1.93459e-05
-4.34319e-06
2.67776e-05
2.0763e-05
-6.62939e-05
3.85129e-05
-1.51697e-05
4.04819e-05
-6.2136e-05
5.97658e-05
2.34806e-07
3.67743e-08
-8.38655e-08
-1.43992e-07
-1.93384e-07
-6.6596e-09
4.71452e-07
-7.97159e-08
9.41572e-08
1.26941e-07
-6.52445e-09
-1.89436e-07
-1.1912e-07
2.99679e-07
3.02342e-07
-3.57599e-07
4.41584e-07
8.14409e-08
4.64275e-07
-1.75975e-07
-3.51484e-07
7.01329e-07
-2.6687e-07
5.49922e-07
-5.95793e-08
1.58278e-06
5.46032e-07
2.55782e-08
-8.3517e-07
2.00219e-07
1.01688e-06
-2.87412e-07
3.8697e-07
-4.00575e-07
4.49866e-07
-4.07701e-07
-4.74159e-07
4.69699e-07
-5.58694e-07
-4.70037e-07
1.68827e-06
-3.70085e-07
-2.42182e-07
-3.98388e-07
-6.66616e-07
6.73049e-07
-4.22431e-07
-4.38389e-07
1.11801e-07
-8.73796e-07
-5.25197e-07
-2.65068e-08
8.70171e-08
-1.53812e-07
1.00473e-07
5.94329e-08
-9.19472e-09
-2.70276e-09
-6.1386e-08
2.34658e-07
1.43532e-08
-7.4846e-09
-9.69823e-09
2.69464e-08
1.75313e-09
6.76931e-09
3.00738e-10
-1.63518e-08
6.32907e-09
3.42127e-08
-2.74922e-08
-1.97462e-08
-1.78868e-07
1.44962e-09
7.07245e-10
-1.84016e-09
-5.63305e-11
-1.4757e-08
1.06457e-08
5.97789e-09
-1.68542e-08
2.54431e-08
9.24794e-08
-1.6911e-09
-6.74636e-09
1.37184e-07
-1.28867e-08
-1.31471e-09
1.1042e-08
-5.56926e-10
-2.2027e-08
-2.7253e-09
1.24371e-08
-4.67701e-09
6.12508e-09
6.93219e-10
-6.70499e-09
-3.00984e-09
-2.92849e-09
-1.88706e-09
8.89017e-09
-5.68647e-09
6.34654e-10
1.06996e-09
-5.48792e-09
-3.54002e-09
-1.77958e-09
4.45901e-10
2.33492e-09
-1.51674e-08
5.15084e-10
-9.95899e-18
-2.5652e-17
9.95873e-19
3.5564e-17
-9.46705e-18
8.77294e-18
-2.45601e-18
-9.26849e-18
-4.0644e-17
-5.6276e-18
1.85498e-18
1.32405e-17
-3.91936e-18
-9.36953e-18
1.58622e-17
1.3406e-17
5.30297e-17
1.97865e-17
2.11631e-17
-7.07439e-17
-1.17159e-16
2.15543e-16
1.04741e-16
8.57419e-17
-2.90559e-18
7.20716e-17
5.36631e-17
-8.22999e-17
4.52316e-17
3.19754e-16
1.90919e-18
1.66805e-16
1.66736e-16
6.63369e-17
-1.87083e-18
1.10528e-17
-8.514e-18
8.76253e-17
-5.20532e-18
-6.62096e-19
3.96258e-18
-1.93856e-18
6.82583e-19
3.18807e-18
-1.1409e-18
-1.69002e-17
2.09343e-18
-9.14274e-18
1.34478e-18
-3.00095e-18
3.84958e-18
-8.59513e-18
3.5865e-18
-3.39771e-18
1.04237e-17
-7.17287e-17
1.20453e-18
-1.43367e-17
-3.23515e-18
-2.00655e-17
-1.69196e-17
-1.56304e-17
3.23487e-17
3.64448e-18
-5.63475e-18
-8.97553e-17
-5.51458e-17
6.45113e-18
-1.22659e-16
6.21723e-17
-4.01545e-17
6.09981e-17
-4.17777e-16
6.79884e-17
-1.20547e-16
7.22709e-17
-1.14109e-15
5.54598e-17
5.63407e-16
-1.23252e-16
1.29813e-15
1.53833e-15
-6.14062e-15
3.71869e-16
5.17055e-17
-2.96557e-17
6.46295e-16
1.76476e-16
2.66435e-16
-3.73688e-17
-2.50381e-16
5.35164e-16
8.43379e-17
-8.45932e-18
-1.13561e-19
4.92189e-20
1.48628e-18
1.79232e-17
1.69609e-17
-7.86325e-17
5.71975e-18
3.41402e-19
9.51042e-19
-2.85115e-18
1.05782e-19
-7.03313e-19
1.79592e-18
2.00631e-18
5.37051e-18
4.18184e-18
2.21335e-18
2.42309e-17
-1.03533e-16
-2.63038e-18
1.49685e-17
-4.08831e-17
1.83955e-18
-1.38248e-17
2.83701e-17
9.97425e-17
1.11325e-16
-5.48636e-16
3.67218e-17
-4.03549e-20
4.10675e-18
-5.84692e-20
-1.52992e-20
-9.00114e-19
-5.39833e-19
7.00468e-19
1.8509e-21
-6.54223e-22
-1.08252e-19
-4.44781e-18
6.44715e-20
-1.49306e-19
4.24381e-20
5.36105e-22
7.93272e-20
-6.29185e-19
3.22694e-18
-1.08131e-17
1.58006e-18
7.205e-19
3.09248e-20
4.19926e-19
2.28864e-19
-2.23963e-18
7.17654e-20
1.51431e-21
-2.76377e-18
2.13611e-18
-8.14465e-18
1.17485e-19
2.47202e-20
-1.22359e-21
1.8833e-21
-1.50335e-19
-1.72889e-20
-1.70974e-20
-2.06702e-21
-8.50256e-20
-1.8892e-19
6.20901e-20
-1.42396e-20
8.78668e-20
-7.13079e-19
-5.47835e-20
1.36274e-21
2.86886e-19
1.73927e-19
-2.4342e-23
2.74542e-22
2.61818e-22
7.45616e-23
-4.6951e-21
1.52756e-21
-7.19445e-22
-4.86961e-21
8.28592e-22
4.48604e-23
4.85693e-21
-3.15934e-20
-4.34771e-22
-4.69668e-22
7.73537e-22
-1.44007e-21
1.73166e-24
8.27236e-23
-2.01458e-22
1.2225e-25
-5.89413e-25
-8.3375e-25
-4.22359e-25
-1.37674e-26
-1.74012e-24
-3.00566e-25
-1.65195e-26
-5.35149e-24
-5.52312e-24
1.43784e-24
8.02299e-26
5.07154e-24
-3.69968e-23
2.15573e-25
-1.62342e-24
4.79646e-26
1.02786e-26
1.03904e-25
-4.05325e-26
-6.35825e-25
6.12582e-26
-2.2209e-25
1.07986e-26
-2.16328e-24
1.32411e-24
-5.84911e-25
4.22544e-25
-7.7756e-25
7.01063e-25
-4.50571e-24
-8.73389e-26
2.24974e-26
-4.58176e-24
-1.33135e-25
-7.04934e-24
-1.36757e-23
-4.92657e-23
-4.61368e-24
-9.28128e-23
3.71753e-23
6.25988e-24
-8.55457e-23
1.92667e-22
-6.05971e-22
7.62282e-23
-4.18065e-22
-2.98858e-20
-1.60011e-21
2.06661e-20
-1.87919e-20
-3.83908e-20
3.64251e-21
-4.01117e-20
3.36386e-22
2.51236e-21
5.92156e-20
-3.81507e-20
-1.43648e-19
2.88872e-20
-6.05938e-20
-7.53143e-18
-1.75116e-18
1.58873e-20
-1.50427e-19
-1.2139e-18
-1.21236e-17
-3.66482e-18
1.61117e-16
1.25245e-16
-2.3664e-16
-9.95165e-17
-7.6914e-17
-8.37989e-16
-1.84386e-16
-1.84967e-17
5.63026e-17
-5.63886e-16
-7.91529e-16
-3.90943e-16
-1.41988e-15
-1.38814e-16
7.2784e-15
-6.41059e-15
-1.37979e-15
5.02098e-15
-2.63005e-15
-3.0518e-15
-5.47919e-14
-8.20671e-14
-7.97466e-16
-8.1653e-15
1.69016e-16
-7.36519e-17
-4.22264e-15
3.62334e-14
-1.02817e-13
-8.31465e-14
-3.15936e-13
-3.98108e-13
-9.97249e-14
7.26656e-13
-1.82444e-13
-4.83086e-13
1.6117e-13
-8.43291e-13
-1.34197e-13
-6.25693e-13
-6.64917e-13
1.10226e-12
-6.9041e-13
-5.66648e-13
9.21178e-13
-3.01097e-12
-3.67109e-13
-6.25417e-14
-1.57126e-14
4.89492e-14
1.68113e-14
-2.51018e-14
4.22231e-14
-1.0385e-13
-1.98569e-13
1.3297e-13
3.3237e-12
-1.21535e-12
-2.82556e-12
-2.88491e-13
3.61714e-12
-9.03362e-14
9.96934e-14
2.43892e-14
2.81906e-13
-3.6611e-13
2.36836e-12
-3.40305e-12
2.08075e-12
3.8082e-13
-5.17105e-14
1.24998e-12
-1.92302e-12
-2.24378e-14
2.21184e-13
5.42202e-14
-1.09644e-13
-5.46534e-14
-1.12906e-13
-1.53219e-12
1.47126e-12
-2.51516e-13
-7.80681e-13
2.54276e-13
-1.8154e-12
8.11642e-12
2.2361e-11
-2.55058e-12
7.15979e-12
-1.72795e-11
1.31481e-11
9.63976e-12
1.11987e-11
7.71106e-11
-1.57388e-12
6.90192e-12
8.43763e-11
2.78897e-11
9.92921e-11
-2.49277e-11
4.74347e-11
-2.52337e-10
-1.2482e-10
1.87501e-10
-1.77999e-11
-2.48765e-10
1.81293e-12
-2.49785e-10
2.93665e-11
-8.07819e-11
-4.14769e-11
-1.97542e-10
-1.73608e-11
3.49472e-10
-2.88505e-12
-7.63191e-12
-1.44893e-11
3.69641e-11
-1.24485e-11
9.022e-12
-2.2899e-11
-5.34816e-11
8.88631e-11
8.69437e-11
-1.39221e-10
-1.6605e-10
1.05152e-10
-5.55096e-10
2.44722e-10
-2.18326e-10
-2.72088e-10
4.60261e-10
-2.23092e-10
-3.26848e-10
1.71005e-11
2.86475e-10
1.35415e-10
2.76228e-11
-3.8328e-10
-3.51391e-12
1.67477e-10
-1.12984e-10
3.59351e-10
-2.18122e-10
3.2955e-12
-1.07562e-11
-2.21806e-11
3.55207e-11