/*--------------------------------*- C++ -*----------------------------------*\
| =========                 |                                                 |
| \\      /  F ield         | OpenFOAM: The Open Source CFD Toolbox           |
|  \\    /   O peration     | Version:  v2012                                 |
|   \\  /    A nd           | Website:  www.openfoam.com                      |
|    \\/     M anipulation  |                                                 |
\*---------------------------------------------------------------------------*/
FoamFile
{
    version     2.0;
    format      ascii;
    class       volScalarField;
    location    "0.25";
    object      p_rgh;
}
// * * * * * * * * * * * * * * * * * * * * * * * * * * * * * * * * * * * * * //

dimensions      [1 -1 -2 0 0 0 0];


internalField   nonuniform List<scalar> 
6576
(
2786.3
2763.01
2770.62
2776.59
2791.56
2799.3
2775.14
2775.49
2793.77
2783.81
2822.72
2807.73
2795.2
2805.14
2767.34
2775.9
2741.17
2770.27
2771.08
2816.94
2753.02
2811.49
2815.01
2769.73
2798.13
2826.89
2874.84
2795.44
2760.26
2762.03
2782.59
2743.36
2781.47
2804.18
2798.71
2819.08
2795.06
2820.5
2781.54
2801.07
2768.66
2758.07
2785.16
212.149
205.926
209.341
205.814
203.761
205.591
206.686
205.247
205.138
-0.0142844
-0.0125828
-0.00398084
-0.0291165
-0.0291011
-0.0243868
-0.0247314
-0.0113282
-0.0283079
-0.0293278
-0.036898
-0.0242445
-0.00972055
-0.0282925
-0.119971
-0.102625
-0.0945925
-0.0856263
-0.102559
-0.0691372
-0.0883736
0.363099
0.58281
0.890186
0.213172
0.121513
0.290164
0.333531
0.462793
0.112392
-0.060869
0.512592
0.526705
0.199951
-0.0103454
464.526
466.144
455.185
452.511
411.343
432.261
405.66
266.713
288.155
319.595
240.029
372.783
312.868
231.098
439.123
412.28
438.685
429.613
486.556
429.317
516.938
316.254
301.773
302.726
302.744
299.607
295.357
0.1677
0.0787133
0.142121
0.00707781
-0.402639
0.0520546
0.0235652
514.171
2187.36
2477.66
2635.04
2675.8
2684.01
2611.61
0.0867032
-0.178773
-0.251816
-1.25175
-0.0061972
-1.94514
-0.0160171
0.953471
0.956738
0.961526
0.948971
0.918242
0.918499
0.947495
1.02968
1.03287
1.02669
1.05377
1.0197
1.00855
1.03083
1.03781
1.03293
1.01477
1.03161
1.02329
1.02116
1.03403
1.07038
1.0757
1.09062
1.0764
1.08913
1.12095
1.09655
1.11139
1.09168
1.05222
1.01245
1.05695
1.0664
1.04204
1.02876
1.05873
1.10128
1.08964
1.13855
1.11322
1.11659
1.16375
1.19008
1.15293
1.13717
0.891125
0.785212
0.933774
0.943557
0.857252
1.00384
1.10465
1.05737
0.952211
0.565056
0.610257
0.485559
0.639256
0.698847
0.570777
0.665357
0.487644
0.511696
0.590384
0.555919
0.649982
0.599997
0.538825
0.273723
0.186502
0.175049
0.501981
0.22272
0.177875
0.349931
-0.470493
-0.580205
-1.65602
-0.139498
-0.785217
-0.680647
-0.628534
0.178689
0.1574
0.164845
0.298147
0.276808
0.259701
0.293849
0.394004
0.318471
0.408248
0.373851
0.439677
0.473347
0.408923
0.652973
0.74042
0.700042
0.600724
0.654763
0.707353
0.665252
0.879903
0.855319
0.925916
0.849844
0.779995
0.893128
0.841281
0.964743
0.990058
0.957525
0.913029
0.981931
0.925319
0.981439
0.98722
0.946027
1.00547
1.00663
0.992775
1.03265
1.0025
1.01927
0.998995
1.08306
1.07446
1.05536
1.09385
1.10028
1.08554
1.08063
187.004
192.639
185.491
185.232
188.145
156.055
179.197
175.749
181.155
77.5835
79.401
79.7216
77.7869
75.8621
79.5937
77.6573
69.5056
71.7165
71.6202
72.0654
71.8181
73.3529
71.4453
71.785
70.8875
79.8907
78.4289
78.5638
74.2862
74.8171
73.2908
74.8815
74.3098
73.15
73.3595
-7.6348
-7.43194
-7.25027
-7.52325
-7.65395
-7.06207
-7.14244
228.605
90.7423
28.088
62.4405
52.1593
31.4071
39.3397
36.7174
29.8551
-8.60151
-8.10898
-7.58742
-8.9214
-9.47938
-8.7416
-8.69272
76.8918
73.3513
77.5365
73.6018
73.1928
76.3091
74.7833
73.5379
72.1719
75.4897
71.3523
71.1047
72.7311
73.3967
75.3902
73.5497
73.2323
76.0076
73.9412
72.9377
76.2307
72.7158
74.5553
76.4609
72.3064
229.806
220.02
236.62
229.655
258.844
243.263
281.599
183.771
185.297
189.256
199.423
192.507
158.449
189.888
183.437
181.915
94.5591
92.5496
113.111
133.874
195.423
114.453
119.175
93.5209
99.9324
98.7592
116.373
116.528
139.274
102.019
-5.17764
-5.12158
-5.13434
-5.10475
-5.01652
-5.13825
-5.00713
-5.08039
-5.18169
-6.12892
-5.96508
-6.00961
-5.90905
-5.71556
-5.97098
-5.93056
-5.9776
-6.05093
-6.04333
-5.95353
-5.76491
-5.84206
-5.79678
-5.90971
-5.89096
28.9497
64.0499
177.955
90.2787
27.0571
17.3259
127.148
1436.38
1448.33
1466.16
1304.67
1391.35
1364.86
1472.07
0.751381
0.75904
0.713986
0.763287
0.738034
0.744738
0.708327
0.667792
0.641379
0.617865
0.637619
0.661063
0.629878
0.601735
0.717791
0.718129
0.67838
0.700624
0.727096
0.710483
0.676344
0.704321
0.669662
0.71188
0.714854
0.686249
0.720912
0.756996
0.713048
0.741234
0.574038
0.544707
0.582287
0.576808
0.597026
0.546887
0.575545
0.4727
0.539129
0.488917
0.475464
0.440777
0.501305
0.472755
0.468549
0.455557
0.41985
0.489407
0.522221
0.487325
0.463385
0.197149
0.217361
0.260651
0.197024
0.158426
0.20074
0.250199
0.364008
0.330988
0.326145
0.327083
0.295405
0.286498
0.317223
0.134058
0.203187
0.179952
0.346208
0.330403
0.413501
0.0318812
0.0637701
0.0569293
0.0601581
0.0311931
0.050138
0.07197
0.063131
0.0520514
0.0249343
0.118253
0.0832755
0.0849621
0.0621713
0.0379501
0.00888198
0.0680739
0.0658312
0.117994
0.0830397
0.0271104
0.0564035
0.0430253
0.0744938
0.101827
0.0662529
0.00839849
0.0275618
0.0361056
0.0406362
0.0587117
0.0742452
0.12084
0.0847114
0.0467822
0.0302338
0.0237605
0.0075239
0.0564389
0.0613882
0.0441494
0.0437232
0.340614
0.356112
0.392567
0.338951
0.28625
0.350558
0.305646
0.340548
0.377915
0.507833
0.546384
0.487135
0.476801
0.423268
0.513249
0.475204
0.474468
0.430327
0.480115
0.491682
0.469571
0.428891
0.469224
0.654051
0.639083
0.624808
0.638078
0.584241
0.580683
0.623227
0.956795
1.00545
1.01357
0.897064
0.925591
1.05156
1.09099
1.02794
1.05192
0.971742
1.08856
1.03139
1.19714
1.24114
1.24842
1.23845
1.32589
1.26094
1.19948
1.59884
1.68482
1.71417
1.78812
1.79206
1.78444
1.71518
-4.34462
-5.03487
-4.48404
-5.23939
-4.48636
-4.13495
-4.40296
-1.69268
0.74155
-1.28755
-0.599328
1.75845
-1.77925
1.92539
2.67061
1.18562
-5.93967
-6.56079
-4.22613
-7.07466
-6.16175
-6.34411
-3.78201
-6.54883
-6.3527
-6.69459
-6.5406
-6.78916
-6.32881
-6.44248
-5.56196
-6.21503
-5.68537
-5.59616
-6.00882
-5.81181
-6.0071
-2.33976
-2.69483
-2.67088
-2.96747
-1.93711
-1.86872
-1.59713
24.6662
19.2461
22.9579
31.1845
35.2666
38.7779
34.4202
54.0959
57.1342
41.5107
43.9019
31.7887
57.4618
50.0918
50.2864
44.3717
37.41
43.9782
42.0098
44.0812
43.657
42.6437
39.2288
42.2584
37.0471
60.8309
60.8018
59.3479
60.4685
53.376
56.06
58.0142
50.6779
55.414
50.0866
58.2858
60.9565
58.7132
56.7174
53.1009
49.1523
67.6091
68.4432
66.7518
66.2683
62.61
65.8827
73.2906
72.4869
71.8622
72.1843
73.2531
71.5294
71.8851
71.0573
71.7201
71.1512
71.3206
70.7603
74.7219
74.3351
73.6871
72.0196
75.1923
73.5534
76.2672
75.3493
73.5946
74.7371
76.5854
73.9725
73.7154
75.9494
75.3759
75.3706
75.3992
72.8227
73.8441
72.0193
79.5042
78.029
82.2697
73.4896
73.5435
81.6463
78.1064
232.738
213.936
209.483
447.166
510.947
504.702
488.385
564.671
525.985
523.969
327.968
339.624
345.389
349.584
407.587
415.739
286.316
446.784
356.155
311.823
356.954
331.364
465.086
539.936
505.064
582.963
555.334
519.345
523.424
622.98
564.54
484.891
486.991
512.605
572.438
520.736
588.787
561.367
507.278
535.262
487.448
477.509
512.517
495.889
520.271
502.48
488.15
540.838
623.152
587.768
574.425
529.613
691.604
545.987
586.179
587.875
575.661
453.615
573.653
582.68
534.879
608.196
599.387
441.561
514.192
556.152
548.113
614.913
670.301
-3.87909
-3.59309
-1.83837
-4.00745
-2.63301
-3.7229
-1.92813
-1.77836
12.7994
6.18108
0.97028
5.4754
1.75887
-0.0318004
4.36836
12.9782
11.994
-0.920786
-1.8683
5.72139
0.765779
0.689572
-2.15992
-4.00507
-6.86417
-6.44998
-6.59326
-6.48445
-4.08418
-0.227114
-4.99909
-5.29658
-2.33651
1.01832
-1.48531
-4.54654
-4.48122
-5.45308
-5.10517
-4.95062
-5.0327
-5.08309
-5.12763
-5.18837
-5.08937
-5.21837
1.07375
1.07329
1.04772
1.07367
1.06134
1.06131
1.0751
1.10474
1.09567
1.12661
1.11749
1.11784
1.14531
1.13447
1.1233
1.09485
1.09321
1.08075
1.07151
0.924657
0.922321
0.892967
0.929025
0.951673
0.934074
0.919334
0.893155
0.919019
0.912921
0.913225
0.932947
0.918731
0.899083
0.967989
1.01529
0.948874
0.970083
0.941686
0.908161
0.93576
0.84637
0.92513
0.856758
0.836662
0.810119
0.859592
0.834342
0.8453
0.826942
0.794179
0.896103
0.857517
0.847127
0.826345
0.669902
0.721652
0.720878
0.708982
0.77525
0.759029
0.725997
0.70661
0.784911
0.719484
0.712476
0.732704
0.766931
0.584722
0.547271
0.59816
0.604732
0.642393
0.570198
0.65109
0.610601
0.465743
0.473442
0.4428
0.486908
0.466823
0.524318
0.417662
0.452233
0.486967
0.45868
0.149768
0.184569
0.197991
0.220393
0.257254
0.218655
0.190606
0.201648
0.183506
0.147933
0.217163
0.254652
0.2147
0.18656
0.0626801
0.0505439
0.0798441
0.219909
0.196523
0.257039
0.147722
0.185017
0.220306
0.191294
0.0602008
0.0439019
0.00983063
0.0726163
0.050332
0.0498921
0.0521031
0.0110339
0.0513788
0.0482049
0.0555503
0.0691852
0.0260756
0.0252586
0.00543231
0.0585191
0.0629229
0.0422501
0.0486206
0.0290096
0.0732656
0.0540008
0.0269609
0.0599137
0.0602157
0.0379704
0.216476
0.243185
0.194342
0.187976
0.145596
0.190488
0.215472
0.174626
0.143581
0.512005
0.497423
0.551457
0.420995
0.473636
0.507796
0.470063
0.642126
0.600605
0.622265
0.563513
0.518396
0.571811
0.513428
0.967156
0.98392
1.08905
0.844278
0.90845
0.863585
1.09884
1.04194
1.03497
0.91736
0.995981
0.735123
1.35267
1.75293
1.59526
1.36848
1.29884
1.35566
1.40393
1.6337
1.47526
-0.815593
-1.2387
-0.802665
-0.768246
-1.07558
-0.617985
-0.622551
-0.772169
-0.651357
-1.58831
-2.06216
-3.18077
-2.78911
-3.97551
-4.28614
-4.50792
-4.62418
-3.27851
-2.84677
-4.20034
-5.36874
-5.22655
-4.08817
-5.3782
-5.45555
-4.54174
-5.45272
-6.44355
-5.79763
-6.31809
-6.32131
-6.21369
-5.04547
-6.42686
-5.74266
-5.90533
-6.36422
-6.32896
-5.14772
13.2595
8.06044
10.2687
7.03934
12.3074
12.2543
12.4603
18.634
19.757
24.9709
18.5626
18.7533
18.3657
21.7023
17.4576
22.0549
19.4645
19.8971
24.7983
20.2152
22.1297
18.8577
18.0277
26.3413
32.3734
29.8417
31.6987
35.6337
31.6901
35.0493
26.163
34.9483
31.951
43.3995
46.7782
45.9673
58.159
60.6878
58.8334
87.2375
76.8013
76.7994
77.5773
78.8474
84.2181
76.0759
635.206
517.011
587.459
501.886
514.901
687.544
562.171
477.867
558.895
497.564
512.35
520.115
509.154
452.674
371.432
392.446
403.977
404.549
410.29
484.403
525.092
386.308
402.896
188.802
233.377
165.373
229.689
201.193
220.551
252.033
348.266
232.25
336.149
415.508
293.016
241.069
99.2978
107.641
163.171
163.685
182.928
158.337
172.245
67.7509
-1.90845
77.6894
29.1536
53.6102
27.1009
76.2199
-3.8066
-4.29322
-2.11101
-4.37454
-0.489088
-4.95619
-4.13082
-5.23577
-4.5026
-4.37941
-4.54229
-4.34701
-4.81541
-5.45308
288.72
14.64
317.882
37.4326
536.266
53.4712
73.407
488.023
627.023
782.719
685.627
785.444
788.638
727.556
1.05936
5.11582
4.45839
16.1264
10.3182
3.39807
9.65774
1.07572
0.194221
0.209244
0.819621
0.168165
0.0574006
0.181801
0.0457048
-0.0132045
0.0707328
0.191662
0.237259
0.103872
0.108242
0.96616
0.957865
0.9754
0.982099
0.983565
0.96762
0.983016
1.02905
1.02147
1.02455
1.03859
1.02787
1.01687
1.03237
1.04573
1.06057
1.06797
1.06572
1.0772
1.06543
1.07098
1.09926
1.12346
1.08041
1.12059
1.14154
1.12253
1.11574
1.14757
1.16636
1.13477
1.19039
1.20022
1.16155
1.17562
1.04416
1.06945
1.07663
1.05264
1.08187
1.06615
1.12658
1.10735
1.06469
1.17711
1.33438
1.21596
1.18011
1.16322
1.25106
1.19914
1.22176
1.20025
1.17705
1.2236
1.27999
1.20787
1.19993
1.08906
1.18014
1.12058
1.09836
1.06278
1.04959
1.08265
0.918427
0.947881
0.931915
1.03396
0.960049
1.00209
0.952278
1.08756
1.18391
1.1069
0.945171
0.972454
0.955215
0.807021
0.82597
0.82541
0.663833
0.698857
0.709985
0.722494
0.696651
0.762951
0.725465
0.708716
0.70078
0.670654
0.723808
0.757752
0.549021
0.573447
0.584114
0.60212
0.641028
0.603434
0.575087
0.727902
0.761007
0.727613
0.71389
0.73937
0.760422
0.734115
0.544032
0.58102
0.574189
0.5777
0.596747
0.572912
0.544081
0.34311
0.323783
0.282885
0.372686
0.396653
0.146322
0.185066
0.185515
0.146388
0.177255
0.17725
0.200923
0.403155
0.378766
0.34945
0.337745
0.378627
0.371408
0.397857
0.185612
0.147237
0.18683
0.17992
0.145514
0.182723
0.204958
0.0602648
0.0791108
0.0565533
0.061601
0.0174469
0.0579202
0.103173
0.0641171
0.0808224
0.117417
0.0524324
0.00462303
0.0913408
0.00978692
0.0416535
0.0350062
0.046137
0.0614167
0.094947
0.0656835
0.012538
0.00788234
0.00320107
0.0408929
0.0414595
0.0460699
0.046975
0.0413521
0.0403625
0.0559161
0.00779885
0.0380932
-0.000916262
0.0185166
0.0319966
0.00334602
0.0250115
0.051934
0.0675827
0.03757
0.0556999
0.0307062
0.0145155
0.0167333
-0.0139206
-0.0647672
-0.0496428
-0.0938407
-0.0666006
-0.0576337
-0.0831985
-0.0904508
-0.0245893
0.00584731
0.0428787
0.0335245
-0.0596996
-0.0570798
0.314824
0.421344
0.295554
0.214853
0.195052
0.405026
0.304916
0.146809
0.137722
0.112688
0.282845
0.109139
0.151166
0.117622
0.190907
0.148688
0.117971
0.121669
0.14064
0.227408
0.13341
-0.0361331
0.015213
-0.00380129
0.0824559
0.054787
0.0784192
0.0641322
-0.00650133
-0.0142884
-0.0993403
-0.296309
-0.0768679
-0.0644309
-0.0986714
-0.177495
-0.0791757
-0.0596799
0.0679603
0.0342875
0.220634
0.163308
0.156622
0.116811
20.7226
20.1631
9.4615
18.3055
10.519
22.781
14.577
20.4091
20.6245
5.94123
12.7641
21.981
13.5764
5.23414
19.9324
4.2239
5.33476
21.4484
-4.34943
0.0132437
-1.34757
-1.82394
-0.832089
-2.48166
-1.71004
-2.81829
-2.99044
-2.63358
-2.41561
-2.22056
-2.54767
-2.59296
-1.92604
-1.84864
-1.5403
-1.94904
-1.92059
-1.85614
-2.03567
-1.90235
-2.36344
-1.96822
-1.96642
-1.44777
-1.88509
-1.9969
-1.31505
-2.03303
-1.64173
-1.22719
-1.24389
-1.42121
-1.72397
-1.71414
-1.60025
-2.51899
-2.49232
-1.59274
-1.59836
-1.90865
3.70373
3.96608
2.33681
7.48994
4.88455
3.95785
5.51892
0.014309
-1.21653
-1.3161
-0.850316
-1.38743
-0.397579
-0.764935
7.7795
3.76289
5.92367
5.06451
9.19424
1.68712
17.8676
12.2725
7.28786
12.4779
15.1855
9.96485
7.86468
10.5693
10.5154
11.7075
26.315
22.7999
21.3627
190.492
244.431
235.885
187.906
151.324
137.495
188.493
238.595
277.555
193.103
219.329
103.075
93.8676
213.013
258.268
249.917
307.777
138.832
125.728
146.825
81.9953
67.1285
90.4938
161.082
228.041
94.9543
117.344
12.372
23.0913
1.95751
9.18377
25.9207
23.7118
2.39636
7.50742
0.592359
-1.05431
1.21058
2.02301
-0.673949
-2.52688
1.25686
0.836848
1.16446
0.670422
0.57296
0.525946
0.632344
150.323
44.2518
157.385
105.132
22.7707
12.7651
36.7451
11.1341
30.8667
1.50483
-1.41249
-3.48337
71.0751
26.4154
301.285
137.799
-1.00969
-0.136269
0.186351
0.023342
-0.267001
0.706757
0.282111
0.846706
0.864887
-0.0205809
-0.208395
-0.179706
-0.0479629
-0.173595
-0.170271
-0.128671
-0.174894
-0.132951
-0.221598
-0.267341
-0.314524
-0.270324
-0.295198
-0.325147
-0.298315
1.03467
1.11133
1.08864
1.13171
1.09711
1.1108
1.08515
1.14849
1.23229
1.23199
1.26822
1.23558
1.26144
1.25212
1.49899
1.5141
1.47272
1.4611
1.60637
1.49802
1.43399
1.34898
1.33156
1.34789
1.4304
1.37859
1.37298
1.48305
1.40745
1.62548
1.49024
1.49421
1.61912
1.34286
1.36289
1.35567
1.38612
1.34975
1.65013
1.41414
1.60191
1.37502
1.45023
1.37398
1.40241
1.40509
1.31513
1.32015
1.2019
1.20202
1.204
1.0724
1.03441
1.04666
1.12968
1.08548
1.18079
1.15668
1.12912
1.12765
1.11861
1.15331
1.16651
0.930732
0.943496
0.938402
0.985192
0.956512
0.978571
0.9564
0.984706
0.993191
1.01068
1.00344
0.984723
1.00327
1.01971
0.783477
0.812969
0.822712
0.876994
0.842125
0.842586
0.815277
0.615741
0.574947
0.634671
0.642594
0.615743
0.681549
0.651346
0.330211
0.283268
0.340428
0.274362
0.253133
0.298674
0.310492
0.057537
0.0211198
0.0332871
-0.0210872
-0.00474272
-0.00538565
-0.0324893
-0.0678503
-0.041077
-0.0465115
-0.0053761
-0.0278452
-0.0237916
-0.0452961
-0.00450585
-0.00841947
-0.0198398
-0.022265
-0.0173402
-0.0169825
-0.0728307
-0.0203618
-0.0262812
0.0581975
-0.164242
0.0710661
0.0117294
0.0161035
0.0191554
-0.459199
0.000571368
0.0421729
-1.115
-2.89608
-0.82586
-2.03459
-0.513059
-3.28849
-2.69114
1320.94
2221.91
2645.91
2700.87
2709.08
2640.96
2683.51
3.57595
5.76484
0.596503
36.2758
6.41007
-1.45922
3.75321
2.37369
38.4622
7.09463
21.0714
-0.838479
135.771
12.0293
-0.208072
1.11875
0.158699
0.233424
0.368158
0.498217
0.337855
0.100575
0.719505
-0.984676
1.81824
2.98318
0.823822
0.574259
0.0822547
0.0972445
0.0736362
0.0889453
0.0868088
0.0609812
0.0786284
0.0258472
0.029282
0.0355124
0.0483631
0.0345231
0.0273021
0.0320678
0.0392488
0.0291043
0.141513
0.125749
0.127614
0.121498
0.106743
0.119333
0.130284
0.119376
0.134825
0.0731936
0.11584
0.11751
0.0705233
0.0510431
-0.0761476
0.00842877
-0.00946158
-0.0269151
-0.0738825
0.0296449
0.0901175
-1.14392
-1.14666
-1.28637
-1.23663
-1.16126
-1.24099
-1.26514
-1.19594
-1.10251
-1.29263
-1.31002
-1.16175
-1.22579
-1.207
-1.27157
-1.35141
-1.20681
-1.29813
-1.29024
-1.03861
-1.18673
-1.5508
-1.45322
-1.51779
-1.4647
-1.37885
-1.40167
-1.27092
-1.20651
-1.09827
-1.20838
-1.3663
-1.17438
-1.34542
-1.03894
-1.22858
-1.20763
-1.39539
-1.46068
-1.49246
-1.26399
-1.2378
-1.26898
-1.36976
-1.35653
-1.21089
-1.21368
-1.27119
-1.53473
-1.49627
-1.45779
-1.40843
-1.44816
-1.54014
-2.02751
-2.42286
-1.60773
-2.5947
-2.12016
-2.60262
-2.51786
-1.46671
-1.0442
-1.19916
-0.726634
2.14332
0.570744
-2.00464
-2.00003
-2.33665
-2.437
-1.75323
-2.16471
-2.72047
-4.96572
-1.45181
-3.06683
-3.08232
-1.85147
-0.770092
-2.4739
-4.88643
-5.04922
-5.69917
-5.10368
-5.73488
-4.86849
-4.77493
-0.485206
2.31434
13.4298
1.28901
-4.01997
-6.25359
0.906044
-15.9089
-4.70335
1.4573
1.64706
-11.4815
-1.40768
21.4604
639.874
335.433
600.052
366.403
488.492
447.783
637.735
60.837
-21.886
-14.9596
227.663
162.977
141.383
0.494561
0.744268
0.633033
0.62377
0.782744
0.597713
0.738294
0.843137
1.12635
1.10144
1.05136
1.20929
1.09285
1.13462
1.42107
1.3843
1.18592
1.59056
1.47982
1.41159
1.51649
1.89806
1.69765
1.81337
1.79824
1.98573
1.62014
1.74922
1.58372
1.60944
1.60045
1.95233
1.68591
1.79647
1.63953
1.67813
1.6868
1.64713
1.43531
1.43584
1.27988
1.46668
1.4741
1.48172
1.43517
1.19061
1.23056
1.06079
1.21806
1.22888
1.2874
1.21963
1.01978
0.867022
0.967638
0.940568
0.999379
0.962805
1.04677
0.698094
0.617547
0.556402
0.803297
0.743952
0.708785
0.635872
1.37792
1.37783
1.33546
1.42946
1.36529
1.34259
1.39111
1.41499
1.3747
1.45687
1.44734
1.41365
1.46964
1.53364
1.37313
1.45424
1.33713
1.66514
1.43527
1.75412
1.64686
1.64174
1.67088
1.96463
1.52485
1.74149
2356.57
1406.03
2396.49
1994.1
765.674
195.007
2215.24
0.325283
1.30347
-1.0662
-0.0290521
2.22623
7.01376
0.131711
-0.44572
-0.872733
-0.216143
-0.641292
-0.641493
-0.592007
-0.770113
0.117008
-0.493318
-0.0932862
0.106573
0.0200405
0.0792837
0.0103458
0.0759625
0.0586918
0.0924352
0.128728
0.00465433
0.0663718
-0.000730567
0.0155557
0.0010617
0.012512
0.0346099
0.0621916
-0.00329395
0.00110493
0.00531882
0.00235473
0.00155389
0.00503781
0.0010569
-0.00525844
0.00187671
0.000315406
-0.005317
-0.00218992
-0.000773363
-0.000940483
-0.104567
-0.114371
-0.0778208
-0.160207
-0.123593
-0.104233
-0.135194
-0.300167
-0.262695
-0.329935
-0.355401
-0.302814
-0.301615
-0.363375
-0.544255
-0.569456
-0.652048
-0.538109
-0.481622
-0.512844
-0.580606
-0.836184
-0.876641
-0.797475
-0.745136
-0.692492
-0.776649
-0.720255
-0.838728
-0.789202
-0.610469
-0.670892
-0.649651
-0.606663
-0.641465
-0.658182
-0.636157
-0.858801
-0.93782
-0.861985
-0.897696
-0.900332
-0.937957
-0.912527
-0.917871
-1.17107
-1.09044
-0.978127
-0.957956
-1.0029
-0.852511
-0.911974
-0.837479
-0.907787
-1.05444
-1.03379
-1.11347
-0.958012
-0.957641
-1.03696
-1.34387
-1.41656
-1.20568
-1.20325
-1.07109
-1.2479
-1.31009
-1.29704
-1.29313
-1.21303
-1.10589
-1.25736
-1.11574
-1.82215
-1.37164
-1.64033
-1.49734
-1.43545
-1.37645
-1.24172
-3.13213
-2.77233
-2.9666
-2.93303
-3.35255
-2.78086
-3.66372
-4.53631
-3.73747
-4.64955
-5.30327
-4.79727
-1.21367
-1.41945
3.04647
5.4976
4.17496
-3.80693
7.96929
-6.0067
-6.19324
-6.09547
-5.48905
-5.50299
-5.71763
-5.61207
0.456116
-2.48577
-3.38582
-6.25289
-2.141
-4.83261
-4.83664
-4.75886
-4.49849
-4.6232
-4.52339
-4.62498
-4.20499
-4.29765
-4.11198
-4.51641
-4.71922
-4.54356
-4.54771
-2.95763
-3.13933
-1.54092
-3.30957
-3.71844
-4.05121
-2.91073
366.765
317.41
379.066
3717.94
1675.08
2431.59
2355.32
1478.85
3680.26
2550.51
2072.26
367.286
2198.98
1484.5
2204.17
2370.56
1341.9
758.854
718.217
593.616
659.597
-244.71
440.92
1352.31
4649.35
3130.18
0.491631
2.71945
2.74498
2.05642
2.82964
0.696971
1.15095
-0.422132
0.678571
2.90426
0.537877
0.789376
0.490982
0.597584
0.304061
0.535626
-0.129869
-1.96789
-2.30907
-2.60238
-1.96137
-2.39841
-2.62606
-2.25478
-1.50726
-1.31069
-1.29169
-1.87589
-1.77374
-1.71601
-1.79314
1.33595
1.4915
1.36805
1.92962
1.62596
1.50642
1.46791
1.52929
1.55104
1.64479
1.48269
1.56878
1.51701
1.64094
1.44687
0.76212
1.48954
0.225385
0.929605
0.995945
1.2243
1.45218
1.28329
2.67791
1.28942
1.36847
2.22899
0.583554
0.0787687
0.468452
0.0981115
1.16791
2.68559
0.900816
0.320685
-7.4901e-05
-0.209346
-0.0359429
0.0302384
-0.139155
0.0895631
0.133873
0.277601
0.201911
-0.330293
-0.0977947
-0.302248
-0.452652
-0.393797
-0.215576
-0.261585
-0.00544119
-0.0103486
-0.017508
-0.0113952
-0.0108659
-0.015318
-0.010827
0.00756896
0.00351494
-0.00371774
-0.000150691
-0.000496674
0.000548022
0.00345522
0.000555813
0.00186621
0.00118245
0.00109791
0.000169852
0.00141908
-0.00151328
5.75647e-05
0.000237886
-0.000505453
0.00165619
0.00187474
-0.00274322
-0.000938109
-0.00265675
-0.00331236
-0.00464309
-0.0036238
-0.00465061
-0.100932
-0.1101
-0.129302
-0.112969
-0.121923
-0.157828
-0.149147
-0.145801
-0.13695
-0.479864
-0.449002
-0.463547
-0.457227
-0.431113
-0.454283
-0.47522
-0.575003
-0.563352
-0.542983
-0.547763
-0.543261
-0.547525
-0.525749
-0.603496
-0.609833
-0.60235
-0.578524
-0.605042
-0.563593
-0.592473
-0.69
-0.720658
-0.711092
-0.692104
-0.705453
-0.712862
-0.723175
-0.676376
-0.709112
-0.700367
-0.812516
-0.799918
-0.846861
-0.842632
-0.831817
-0.780949
-0.916562
-0.898771
-0.966927
-1.25573
-1.30506
-1.37951
-1.34809
-1.29828
-1.4348
-1.61598
-7.23978
-7.90731
-7.36307
-8.21081
-7.84112
-8.12541
-7.48344
-6.81013
-7.35696
-6.91323
-7.25047
-7.77566
-7.75522
-6.88264
-9.32232
-9.13094
-8.59285
-8.52808
-9.28133
-8.99257
-8.45087
-6.58065
-7.3501
-7.02761
-7.42475
-7.85273
-6.93835
-7.30184
-5.0212
-5.1208
-4.90122
-5.17233
-5.21075
-5.12439
-5.0122
-5.21978
-5.16591
-5.2399
-5.17082
-5.21562
-5.23729
-5.1965
-5.02664
-4.92447
-5.09959
-5.20048
-5.20717
-5.18316
-5.18919
-5.20804
-5.21536
-5.14973
-5.18642
-5.23059
-5.35704
-5.42218
-5.86372
-5.55652
-5.48848
-6.03126
-5.66011
-5.26448
-5.34622
-5.2952
-5.17689
-5.23251
-5.2678
-5.20126
2107.61
1023.94
922.869
430.073
363.571
902.087
-53.8551
193.78
-47.9169
78.165
-682.92
85.7289
702.639
240.17
238.571
-315.418
-87.6382
202.398
79.186
-251.536
83.4144
-99.9176
70.5852
-124.77
-24.4001
7.48259
12.139
11.1091
12.9645
15.7224
20.793
16.7143
18.2265
7.86738
8.85345
9.19457
4.45185
3.63868
6.75092
3.66318
-0.563928
-3.1064
0.0326949
2.6169
0.483422
3.12073
1.18681
5.41015
8.85514
17.9807
3.59165
3.02791
3.33657
-0.758178
-2.24207
-1.27701
-0.765257
0.219755
-1.1121
-0.102725
-2.662
-1.34513
-3.37452
-2.44519
-1.3166
-2.5213
-1.52344
0.295067
-2.00641
-0.16915
-0.292224
-0.172134
-0.0795222
0.403919
-0.325095
0.0951649
-0.0344492
0.216666
-0.0966487
-0.0164321
0.217858
-0.100358
-0.0197213
0.00418265
1.58074e-05
0.014243
0.0219807
0.0235143
0.0104073
0.0071744
-0.00381529
-0.00332064
-0.00187481
-0.036128
-0.0375751
-0.032181
-0.0351074
-0.0460885
-0.0440027
-0.035342
-0.00414765
-0.0024639
-0.00601475
-0.0172781
-0.0166684
-0.00638593
-0.00305507
-0.0121719
-0.0131074
-0.00260148
-0.000299275
-0.00300147
-0.00234345
-0.00689439
-0.00671611
-0.0125609
-0.0138615
-0.014868
-0.0140158
-0.0120668
-0.0139765
-0.0174741
-0.0137099
-0.00427512
-0.0183881
-0.0231808
-0.0140855
-0.017624
-0.00883389
-0.0184217
-0.0222604
-0.00959687
-0.0213526
-0.0318612
-0.0246725
-0.244167
-0.21827
-0.241735
-0.241772
-0.25188
-0.240991
-0.220513
-0.422721
-0.436174
-0.4305
-0.433802
-0.412326
-0.38911
-0.521016
-0.518829
-0.505528
-0.530031
-0.485596
-0.527057
-0.497
-0.474234
-0.619663
-0.601633
-0.640628
-0.881663
-0.812847
-0.846569
-0.903484
-0.905148
-0.834252
-0.861359
-0.821077
-0.735391
-0.767799
-0.744627
-0.766123
-0.718367
-0.767854
-0.925118
-0.946114
-0.908132
-0.845416
-0.861134
-0.861575
-0.872347
-1.0299
-0.975694
-1.01604
-1.13119
-0.989604
-0.94797
-1.02276
-1.11881
-1.17181
-1.27532
-1.23498
-1.32914
-1.22624
-1.23487
-1.8362
-1.82716
-2.14701
-1.95349
-1.91866
-2.22065
-2.35507
-3.77898
-4.25857
-4.41848
-3.46705
-3.69341
-4.18306
-4.08841
-6.03448
-5.47163
-3.97554
-3.79571
-3.73548
-5.43902
-5.37278
-6.54494
-6.45146
-5.99937
-6.50878
-6.37639
-5.35463
-5.93342
-6.41677
-6.50693
-6.63223
-6.43019
-6.29641
-8.74023
-8.6638
-6.68703
-8.18199
-7.55805
-6.9715
-6.36379
-6.80298
-7.31235
-7.73014
-9.29567
-8.64527
-8.71842
-7.75254
-6.77246
-8.21366
-6.77795
-6.46793
-9.84016
-10.4816
-9.85737
-9.03329
-8.98105
-9.0567
-8.82908
-7.14908
-6.8129
-6.86761
-6.44854
-6.70344
-6.92516
-6.87024
-6.19161
-6.35609
-5.85846
-6.61548
-6.64159
-6.25318
-6.46218
-5.45112
-5.42299
-5.29175
-5.54737
-5.55063
-5.41791
-5.50223
-5.46908
-5.32477
-5.40962
-5.37942
-5.39977
-5.3292
-5.38495
135.479
80.1383
73.596
285.522
307.525
344.263
68.1934
-276.508
26.7124
-63.9431
133.146
-5.80029
68.5257
98.5069
48.582
196.143
128.18
254.338
123.72
54.3501
122.72
-103.128
31.4224
-74.7296
136.074
78.9126
190.198
229.252
343.703
246.885
561.313
122.947
234.206
-8.42482
-58.8365
-9.26989
105.772
-16.8531
-108.91
-30.5524
72.8426
3.81756
5.66846
8.5241
1.73089
4.23134
4.28062
8.25164
81.5378
66.0687
53.9052
118.821
198.51
210.051
98.1748
18.3913
38.7238
200.899
22.2719
38.6949
99.4829
244.492
175.027
51.6137
224.271
330.095
302.327
66.0276
340.718
153.889
57.5968
232.883
320.189
536.599
522.24
584.02
514.168
483.901
505.45
556.347
488.582
296.804
318.352
410.251
501.224
524.387
504.879
43.2047
41.4991
51.1221
49.0394
45.2792
40.4144
52.0592
65.3223
65.3125
67.6982
52.8909
55.5168
66.9379
62.8703
40.7826
46.1759
48.2595
47.4438
52.4202
61.5506
62.1614
45.2772
66.389
70.3012
70.2772
65.7024
58.9527
67.2915
69.8341
46.885
70.0892
67.8485
79.1611
24.2491
39.8317
42.9763
34.0014
27.7347
39.532
39.9085
19.1167
40.1448
33.0337
34.1286
24.6225
54.4308
59.1179
52.1129
69.1083
65.6328
63.7674
65.5552
69.231
64.8199
68.5627
71.2841
76.061
65.8
64.4783
116.89
77.5287
130.944
79.0604
70.0732
89.1843
105.963
182.339
177.309
176.082
161.659
170.952
175.794
169.06
207.154
205.097
206.339
193.939
204.582
204.036
203.105
205.842
206.109
208.463
202.66
190.806
198.428
207.73
207.837
216.889
215.933
217.59
211.441
216.961
155.795
144.526
170.53
162.891
183.902
184.31
234.974
230.323
211.555
436.725
427.366
504.968
379.016
549.309
188.302
509.665
535.78
213.737
139.821
172.633
302.066
0.00735956
-0.00956215
-0.097786
-0.141219
-0.189341
-0.06749
-0.042286
-0.283322
-0.266007
-0.201244
-0.236388
-0.224429
-0.156467
-0.181713
0.388432
0.375856
0.299193
0.165657
0.236512
0.343197
0.316501
0.214277
0.160825
1.29966
0.765517
1.05882
1.24793
0.918273
0.526102
1.25637
1500.53
1457.55
1273.32
266.968
1070.66
1534.49
1444.36
1488.77
1308.13
772.046
743.538
1010.91
1517.88
1522.43
1096.9
919.663
1504.66
1625.82
859.935
1650.9
696.038
16.7022
122.906
39.4677
12.1564
19.4683
75.5276
148.206
2.91137
30.0102
15.8396
2.26964
-0.80466
-0.882652
-0.680895
-0.690419
-1.24949
-0.969118
-0.727788
-0.829995
-0.851884
-0.6458
-0.627629
-0.783498
-1.25418
0.141672
0.0959877
0.187522
0.0893169
0.135943
0.129956
0.0930375
0.030255
0.00707853
0.0265867
-0.0618373
-0.0214826
0.00462534
-0.0155501
0.00216793
-0.00856723
-0.0235878
-0.00678338
-0.0211238
-0.0524236
-0.026512
-0.131649
-0.159042
-0.137863
-0.140024
-0.118871
-0.123391
-0.146213
-0.130061
-0.148831
-0.125346
-0.13288
-0.107749
-0.0901104
-0.108196
-0.089753
-0.0848638
-0.101466
-0.110929
-0.0939538
-0.0340936
-0.0224774
-0.0276707
-0.0498909
-0.0373631
-0.0359458
-0.0475723
-0.00240733
-0.0125474
-0.0158227
-0.0312536
-0.0536733
-0.037114
-0.0134497
-0.0284238
-0.0214156
-0.0362204
-0.0473729
-0.0320243
-0.0152182
-0.0136246
-0.00314626
-0.0223389
-0.0301984
-0.0560011
-0.0419741
-0.0317073
-0.0255853
-0.00261069
-0.0235741
-0.0230593
-0.125261
-0.102311
-0.109177
-0.114687
-0.0959829
-0.109162
-0.125915
-0.0926632
-0.0758616
-0.079158
-0.0934077
-0.101909
-0.100336
-0.12104
-0.0997117
-0.0775915
-0.087387
-0.179096
-0.187408
-0.156595
-0.176616
-0.154771
-0.149921
-0.227012
-0.247876
-0.252753
-0.280814
-0.26594
-0.22366
-0.243184
-0.266802
-0.248132
-0.290443
-0.292491
-0.269856
-0.251093
-0.227306
-0.27292
-0.26551
-0.643557
-0.600946
-0.576129
-0.516965
-0.560327
-0.595681
-0.554813
-0.561026
-0.549411
-0.538585
-0.510224
-0.558174
-0.507685
-0.538359
-0.712055
-0.768724
-0.784349
-0.822065
-0.746242
-0.775909
-0.707017
-0.858511
-0.769439
-0.796963
-0.691318
-0.759737
-0.996985
-1.04403
-1.03395
-0.907749
-0.937686
-0.959658
-0.932291
-1.10297
-1.05852
-1.13868
-1.09966
-1.0018
-0.998248
-1.08274
-1.38223
-1.45477
-1.56856
-1.69477
-1.6407
-1.56313
-1.52317
10.7976
5.57864
-0.101471
20.6055
18.9243
-0.874495
-1.91158
-1.11231
-1.36671
-1.18773
-1.81223
-1.49268
-2.47081
-2.17822
-2.98259
-1.56078
-2.43404
-1.45504
-1.54995
16.6904
18.7705
10.2462
-1.39283
7.25461
10.7255
-0.540155
-0.543786
1.42589
-0.572517
-1.21661
0.872854
12.3906
12.191
12.8781
9.51134
-3.29867
-2.71151
0.498301
-1.50135
-2.32264
-3.09301
-3.40335
-1.56347
4.53224
-1.92299
-1.87107
-4.11966
-3.45912
-3.53849
-3.23933
-3.28081
-3.4803
-2.84838
-0.307857
-6.50443
-5.86655
-6.05457
-7.1287
-6.57973
-7.52808
-7.14443
-6.9756
-7.22012
-7.82079
-8.04472
-8.53529
-7.22562
-7.28096
-6.34788
-6.28432
-6.17594
-5.96439
-6.01333
-5.97225
-6.06867
-6.01746
-6.14966
-6.41912
-6.44747
-6.58006
-6.1349
-6.01321
-5.60953
-5.83259
-5.76017
-5.86988
-5.21726
-5.29715
-4.45678
-5.63152
-5.97537
-5.51502
-5.81476
-5.91437