/*--------------------------------*- C++ -*----------------------------------*\
| =========                 |                                                 |
| \\      /  F ield         | OpenFOAM: The Open Source CFD Toolbox           |
|  \\    /   O peration     | Version:  v2012                                 |
|   \\  /    A nd           | Website:  www.openfoam.com                      |
|    \\/     M anipulation  |                                                 |
\*---------------------------------------------------------------------------*/
FoamFile
{
    version     2.0;
    format      ascii;
    class       surfaceScalarField;
    location    "0.25";
    object      phi;
}
// * * * * * * * * * * * * * * * * * * * * * * * * * * * * * * * * * * * * * //

dimensions      [0 3 -1 0 0 0 0];
oriented        oriented;


internalField   nonuniform List<scalar> 
13152
(
9.25999e-07
2.0232e-05
-1.52373e-06
-1.96342e-05
1.86439e-05
-1.7147e-05
-5.70883e-07
-3.48397e-06
4.23598e-05
-3.46664e-05
3.5393e-05
-2.25036e-06
2.12148e-05
-7.55154e-05
2.85151e-05
-2.44473e-05
6.04241e-05
-1.61339e-05
-2.95773e-05
-2.83977e-05
7.4109e-05
3.88356e-07
-1.68269e-05
3.04594e-07
-2.98999e-05
7.10898e-07
7.86722e-06
5.16596e-06
-2.986e-05
7.84378e-06
3.28029e-07
-5.07289e-06
-1.5481e-05
-2.98068e-05
-8.64335e-06
-1.46429e-05
-5.14354e-06
2.84298e-05
-6.78366e-08
-8.65865e-06
8.31371e-08
-1.41664e-05
-5.44358e-07
5.65342e-06
-3.0566e-05
1.62539e-05
-2.93982e-05
2.99081e-05
2.93766e-05
-5.65998e-07
3.33759e-08
-1.51864e-05
-2.98877e-05
1.14274e-07
-7.49341e-05
3.3111e-07
1.6006e-05
3.02382e-05
9.95361e-10
7.4674e-05
3.58217e-05
1.26601e-05
2.53846e-05
-7.38663e-05
3.22422e-07
-6.62467e-07
3.61617e-05
1.24116e-05
2.74806e-07
-1.8778e-05
7.35494e-05
7.78078e-05
2.90688e-05
-7.25973e-07
-2.93447e-05
1.00191e-06
-1.63634e-05
-2.68773e-05
7.23095e-05
1.946e-07
-1.7284e-05
-8.07514e-06
7.99609e-06
2.7365e-07
5.28313e-06
-3.06423e-05
-4.95293e-06
-1.39282e-05
-2.90145e-05
-1.37983e-05
1.43689e-07
2.91089e-05
2.38054e-07
2.3204e-05
1.14548e-05
-3.36759e-06
-3.12912e-05
-3.70201e-06
2.11251e-06
2.47935e-05
3.49801e-06
4.25477e-06
-4.58988e-06
-1.86167e-06
8.56406e-06
2.47207e-06
-1.04295e-05
8.3314e-07
-3.92784e-07
3.05766e-06
1.04895e-06
4.03896e-06
-1.96795e-06
1.15523e-06
1.11339e-07
-9.63213e-07
1.12081e-05
-4.14215e-06
-6.1027e-06
1.68763e-05
-6.11787e-06
-1.17217e-05
-1.29693e-05
-1.89773e-05
4.02052e-06
1.71289e-06
-1.18513e-05
-3.37366e-07
2.15741e-07
-1.26511e-05
-6.55554e-07
-2.99156e-05
-4.14696e-06
-6.93844e-06
-8.25444e-07
1.19108e-05
4.78892e-07
-3.94175e-06
-6.84099e-07
-6.97823e-06
5.18685e-07
1.39784e-05
9.39747e-06
-3.03541e-05
1.21454e-05
2.35173e-06
-6.09267e-06
1.74126e-05
-6.36945e-07
1.24129e-05
9.72568e-06
7.41217e-06
-2.95508e-05
-1.69342e-06
8.94892e-06
5.15741e-06
9.52999e-06
-1.49774e-06
-2.83154e-06
7.42538e-06
4.35508e-06
9.04734e-06
-4.46674e-06
-1.15251e-05
2.84805e-05
-3.97554e-06
-5.35363e-05
-4.4316e-05
-1.3173e-05
0.000111025
-1.69802e-06
-3.25856e-05
-1.92527e-05
-1.31025e-06
-4.47038e-05
6.76494e-05
-1.40824e-05
-8.61527e-05
-5.98415e-05
0.000114318
-6.61589e-05
5.00716e-06
-0.000124945
1.92042e-05
-4.43824e-06
-1.78731e-05
3.10719e-06
-3.42193e-05
-4.00373e-06
5.74272e-05
-1.90799e-05
-1.95777e-05
3.26806e-05
3.19269e-06
-5.37464e-05
2.39887e-05
1.17992e-05
-3.62327e-05
5.62177e-05
-5.21199e-05
4.46454e-05
1.60015e-05
-1.15718e-05
-4.9075e-05
-1.97489e-05
5.75029e-06
5.86439e-05
1.43585e-05
-1.81059e-05
-3.61183e-05
1.1017e-05
3.94598e-05
-2.16488e-06
-5.20593e-05
-3.0561e-05
4.73283e-05
-4.42977e-05
-1.47651e-05
-2.27886e-05
7.19024e-08
3.74818e-05
-4.73182e-06
5.46019e-06
-1.54935e-05
-8.4685e-06
-1.90519e-05
-2.83758e-05
1.62714e-05
1.75647e-05
-7.8391e-07
-4.30854e-05
2.6523e-05
-3.57754e-05
4.28662e-05
8.21359e-07
2.01075e-07
-1.29087e-06
2.68439e-07
-1.87835e-06
-8.17818e-08
2.78149e-06
1.22423e-06
-2.90151e-06
-1.39794e-06
-2.48907e-06
3.80523e-06
-5.64726e-06
2.95845e-06
-5.98961e-06
4.72477e-06
-1.45384e-05
1.37956e-07
1.04353e-06
1.87796e-06
-3.05944e-06
2.6468e-07
3.66247e-07
-4.92971e-07
7.55762e-07
5.52445e-07
-3.31515e-07
2.57572e-06
-1.47945e-06
1.9037e-06
-1.41998e-06
-5.33029e-05
5.18807e-05
3.34183e-06
-1.91964e-06
8.37335e-05
5.10096e-05
8.19693e-05
1.2133e-05
0.000123481
5.58549e-06
1.82932e-05
2.71308e-05
2.78522e-05
5.97026e-05
-1.84184e-05
5.84036e-05
3.21667e-06
2.96955e-05
2.98251e-06
-2.62423e-05
-6.43569e-06
-2.47806e-05
-2.70369e-05
8.1513e-05
1.65799e-06
-2.34561e-05
-2.67815e-05
2.69203e-05
1.51915e-06
2.30506e-05
-7.32881e-05
-1.33108e-06
1.21443e-06
-4.52277e-06
-7.80753e-06
-0.00013033
4.61244e-05
9.20134e-05
-8.45265e-05
3.17964e-05
4.49226e-05
0.000100036
0.000141505
2.69854e-05
1.05017e-05
-5.69077e-06
-9.36779e-06
8.24776e-05
7.99977e-05
3.05399e-05
0.000212135
-8.23338e-06
5.1261e-06
7.67801e-06
-4.57072e-06
1.67241e-05
9.54452e-07
-2.59119e-05
5.51879e-06
1.63314e-05
-1.49283e-05
-1.88171e-06
2.4488e-05
-7.36962e-06
-1.21294e-05
9.06045e-06
-1.54756e-05
1.26975e-05
-4.09494e-06
-1.10061e-05
2.77053e-06
1.23305e-05
-4.56005e-06
3.73247e-06
-3.26736e-06
-7.33542e-08
-1.54928e-05
-8.5661e-06
6.20592e-07
1.1678e-05
-3.88554e-06
-7.94793e-06
5.93928e-06
-9.89818e-06
9.33041e-06
-2.07216e-06
2.97351e-06
-6.37353e-06
5.47218e-06
4.9744e-06
-4.50706e-06
-2.53951e-06
-8.91927e-06
1.68672e-05
8.42675e-08
9.36293e-06
-1.39543e-05
6.67177e-06
-9.12701e-06
4.91019e-06
-7.15769e-06
7.89959e-06
7.37911e-06
1.35102e-06
-4.99213e-06
-3.738e-06
-3.54512e-06
-3.12684e-07
1.12369e-05
7.45702e-07
-2.9398e-06
1.97146e-06
-6.0946e-07
-6.35413e-06
-7.9246e-07
2.45123e-06
-4.8037e-06
2.88402e-06
2.66538e-06
-1.6016e-06
-6.14189e-06
-1.71339e-06
3.80495e-06
-3.92446e-06
4.62588e-06
-1.01767e-06
-3.9425e-06
3.34283e-07
-8.46039e-06
-3.68789e-06
1.67742e-05
-4.2137e-06
-5.26436e-06
3.60185e-06
3.69257e-06
3.95863e-06
-2.24917e-08
-2.13358e-06
2.40432e-06
-2.65471e-06
2.76263e-07
-1.17695e-06
-5.9279e-06
6.82859e-06
-2.75448e-06
-6.96468e-06
9.99542e-06
-2.35278e-06
-1.57865e-06
-7.88651e-06
-5.04156e-06
7.00016e-06
-4.66311e-06
-1.01881e-05
5.23313e-07
2.84972e-06
-5.72581e-06
6.09096e-06
-7.1463e-06
-4.87888e-06
6.30673e-06
-7.07072e-06
-9.76865e-06
-1.29981e-05
-9.84513e-06
3.26119e-05
-3.57025e-06
-1.80204e-05
1.1822e-05
-1.46827e-05
-1.88568e-06
-3.93745e-06
-6.37951e-06
4.71834e-07
-5.6444e-06
-1.63134e-05
2.20787e-05
5.47047e-06
-4.22318e-05
1.98107e-05
3.82341e-07
-5.31159e-06
1.87427e-05
-5.48552e-06
7.11566e-06
1.18797e-05
1.54506e-06
-2.05404e-05
4.75153e-06
7.45861e-06
-5.09448e-06
6.79147e-06
9.83976e-06
-1.85785e-05
-2.557e-07
2.62928e-05
-1.1851e-05
-1.75696e-05
2.41053e-05
-2.78755e-05
7.00348e-06
-1.03447e-05
-6.83681e-06
1.0178e-05
-2.31927e-05
8.39475e-06
2.18014e-05
7.85209e-06
-4.13894e-05
2.52245e-05
-7.88853e-06
-2.41728e-05
5.47224e-07
3.48553e-05
-1.08342e-05
1.97762e-05
-1.08707e-05
-2.18825e-05
-4.08922e-06
1.7687e-05
8.28468e-06
3.4265e-05
1.71631e-05
-7.33106e-05
4.2764e-05
-1.25882e-05
-1.04694e-05
-1.32331e-05
-2.48403e-05
2.26557e-05
3.23974e-05
-4.00746e-05
6.19283e-05
8.33199e-05
6.54859e-05
7.63223e-05
-0.000225128
-5.39395e-06
7.11453e-05
1.75685e-05
6.66056e-05
-6.5137e-06
-7.94186e-05
-5.60548e-05
0.000202079
-6.78469e-05
-1.80854e-05
1.38674e-05
-5.39205e-06
2.89579e-05
9.56384e-06
-5.463e-06
-9.86196e-06
5.76112e-06
-1.79195e-05
4.12909e-06
2.33542e-05
-1.87543e-07
-2.31949e-05
2.29921e-05
-1.85777e-06
-3.09963e-05
8.51507e-06
2.02382e-05
-1.78312e-05
3.04754e-05
-1.98765e-05
-7.59893e-07
-8.5193e-06
-1.50562e-05
2.43354e-05
-1.11077e-05
-2.06486e-05
-1.14791e-05
-8.14785e-06
1.53348e-05
-1.30836e-05
-2.28998e-05
-2.31312e-05
2.34098e-05
-3.13527e-06
-3.1475e-05
-2.43667e-05
-7.75155e-06
6.57762e-06
8.9081e-06
-7.73417e-06
1.94692e-05
-3.26285e-06
-2.39579e-05
7.48717e-06
1.85596e-05
-1.98574e-05
4.27585e-06
2.44896e-05
-1.29875e-06
1.71578e-05
-2.17194e-05
2.89208e-05
-3.74466e-06
-1.27055e-05
4.7198e-06
1.17304e-05
-6.52706e-06
-5.03336e-06
7.81576e-06
-1.02106e-07
-1.91305e-05
1.67113e-05
-3.9201e-06
-1.78246e-05
-1.10181e-07
2.46373e-05
1.01301e-05
-1.41523e-05
1.47398e-05
-6.61768e-06
2.21738e-06
7.29911e-06
-2.89881e-06
1.16227e-05
-1.46619e-06
8.39965e-06
5.44038e-06
-1.37593e-05
1.84662e-06
1.92118e-05
-6.98055e-06
-9.67752e-06
-3.54028e-06
-1.5699e-06
6.95679e-06
-1.16839e-06
-9.35244e-06
3.35165e-06
-5.98622e-06
1.01814e-05
-5.58903e-06
-9.22969e-07
5.70857e-07
5.94114e-06
7.27745e-06
4.0007e-06
9.82305e-06
-3.46857e-06
9.19649e-06
-8.64813e-06
-3.11106e-06
1.82487e-05
1.17428e-05
-1.63903e-05
1.84548e-05
1.26237e-05
5.37999e-06
-1.32761e-05
-4.72762e-06
-1.30571e-05
-1.21582e-05
3.7839e-05
-2.63256e-05
1.86485e-05
1.51311e-05
1.29288e-05
-4.1336e-05
2.59674e-05
-1.55639e-05
-2.66174e-05
4.04266e-05
-4.00142e-05
-1.53699e-07
-9.37158e-07
-9.19794e-08
1.18284e-06
-9.81112e-08
7.02839e-08
-1.25871e-07
-2.68139e-07
-7.6713e-07
2.44871e-07
4.06849e-08
-3.77536e-07
2.59679e-07
5.54762e-08
-2.39997e-07
-5.57467e-07
5.29325e-07
-1.03531e-06
2.81865e-08
-2.20605e-07
-7.71828e-08
-1.21523e-06
-2.61501e-06
-5.43894e-06
1.63561e-06
6.41834e-06
-1.11954e-06
1.47134e-08
-1.51018e-06
-8.43793e-06
1.87945e-06
2.27426e-07
1.23716e-05
-1.25843e-05
-6.17381e-07
2.48042e-06
4.38519e-06
-4.51498e-07
5.64726e-06
-3.95369e-05
-8.00118e-06
-9.43714e-06
5.69752e-05
7.4186e-06
-1.77532e-05
-2.92022e-05
-7.02782e-06
6.44525e-06
4.46386e-06
-5.68126e-07
-1.09235e-05
4.45311e-06
6.45602e-06
3.60433e-05
-1.01038e-05
-4.36928e-05
-1.53911e-05
4.19973e-05
2.88468e-06
-1.35565e-05
-8.05333e-06
-7.87876e-06
6.30988e-06
5.86998e-08
1.02001e-06
-5.25442e-06
-4.4952e-06
1.01732e-05
-2.21787e-07
-5.4562e-06
3.51181e-06
-5.20721e-06
-2.79979e-06
-1.32663e-05
2.69513e-05
2.05682e-06
4.84312e-07
-7.74833e-06
1.17968e-06
-1.92265e-06
-3.53212e-06
-8.55445e-06
-3.26958e-06
-4.79394e-05
-7.43204e-06
3.2345e-05
2.30264e-05
3.47561e-05
3.59889e-05
-0.000118684
3.36229e-05
-6.29876e-06
1.42052e-05
3.65441e-05
-1.47604e-05
2.14149e-05
2.51353e-05
-5.17693e-05
0.000106807
-2.1524e-05
5.80629e-05
9.30784e-07
-5.58606e-05
-3.1331e-06
-4.2829e-05
-1.23802e-05
0.000113272
-4.2161e-05
2.62822e-07
1.65654e-05
-1.54942e-05
-5.69318e-05
-1.60895e-05
2.02748e-05
5.80005e-05
1.28748e-05
-0.000113036
5.86961e-05
-4.32724e-07
-1.67883e-05
5.93949e-05
-1.94077e-05
-3.28713e-05
2.4494e-05
-2.83645e-05
3.67418e-05
7.96193e-05
-1.72006e-05
-9.529e-05
2.58581e-05
7.82552e-05
8.26962e-05
-7.2944e-06
-0.000103766
1.57638e-05
0.000103674
7.06594e-05
-9.51544e-05
0.000112281
-1.76649e-05
-3.20438e-05
-1.72894e-06
5.14376e-05
-7.95643e-06
8.49734e-06
-1.82058e-05
-1.69683e-05
-2.30319e-05
-3.80363e-05
1.99462e-05
2.65874e-05
-1.27168e-06
-5.49704e-05
3.50976e-05
-5.33375e-05
5.33148e-05
7.00148e-06
-1.48609e-05
2.75685e-05
-1.97091e-05
-1.44374e-05
1.49225e-05
6.51632e-06
2.21393e-05
-2.00281e-05
-2.55362e-05
6.04868e-05
-3.4787e-05
2.12753e-05
-3.9545e-05
-3.34425e-05
4.74513e-05
-2.10762e-05
-5.32557e-05
-1.35114e-05
1.45745e-05
-1.93853e-05
9.17088e-06
1.03626e-05
1.47403e-05
-3.42738e-05
3.91859e-06
1.44222e-05
-9.16992e-06
5.51411e-06
8.76709e-06
3.22438e-06
8.49802e-06
3.01789e-06
5.78498e-06
1.18616e-05
4.96968e-06
-1.95439e-05
2.00883e-05
-8.24383e-06
2.19806e-05
-2.1041e-06
-3.54752e-07
-1.31499e-05
2.14391e-07
2.94706e-07
-6.03663e-07
9.45661e-08
-8.10207e-07
1.09121e-07
9.15477e-07
2.75635e-07
-7.91136e-07
-5.35465e-07
-1.24495e-06
1.88953e-06
-1.80768e-06
6.68556e-07
-2.84841e-06
1.87909e-06
-5.44723e-06
3.81148e-08
-4.03773e-07
-1.18771e-08
-3.95492e-07
3.46461e-07
8.71454e-08
3.83572e-07
3.45638e-07
-8.7938e-08
7.47576e-07
-1.38535e-06
8.49824e-08
1.22319e-06
7.16316e-07
-1.35409e-06
8.88444e-07
-3.38666e-07
-4.53147e-06
-5.03449e-06
-7.03165e-06
1.65976e-05
-5.12205e-06
-1.65996e-05
1.71902e-05
-5.63663e-06
-4.5199e-06
1.23352e-06
4.92751e-06
-1.17977e-05
7.87823e-06
-1.11646e-05
9.18631e-06
-2.08584e-05
1.00329e-05
-1.3404e-05
-1.56572e-05
-2.02086e-05
4.92698e-05
-1.3302e-05
-4.15574e-05
4.14555e-05
-1.77648e-05
-1.11944e-05
1.03226e-05
2.30477e-05
-5.11351e-05
3.1235e-05
-3.21069e-05
3.44199e-05
-5.29297e-05
4.54463e-05
1.4706e-05
4.01906e-05
-1.49381e-05
-3.99585e-05
1.24098e-05
-9.9478e-06
1.22441e-05
1.46649e-05
3.79354e-05
3.17792e-05
-2.06791e-05
-2.10479e-05
5.36896e-06
3.86544e-05
1.04292e-05
-2.1039e-06
-2.90045e-05
-1.53679e-06
1.7335e-05
-1.24304e-05
2.55585e-05
-2.94723e-05
-4.9944e-05
-1.35076e-05
2.30422e-05
4.04094e-05
2.84906e-05
1.45649e-05
-9.29995e-05
-1.10636e-05
2.60466e-05
4.21367e-05
-2.09035e-05
-3.22968e-05
-7.35434e-06
7.55376e-05
2.44076e-05
-3.07462e-05
4.00954e-05
4.11874e-05
6.60401e-05
6.32266e-06
-0.00011355
8.57344e-06
-6.49139e-06
3.91053e-05
5.24361e-05
2.21774e-05
6.41605e-05
-5.72407e-05
-1.34112e-05
-4.60706e-06
0.000107873
1.88131e-05
-1.41392e-05
-6.19146e-05
-1.3013e-05
2.72191e-05
-1.88824e-05
5.83054e-05
-2.66989e-05
2.80294e-05
1.95389e-06
-2.79699e-05
-2.01341e-06
-2.90809e-05
-3.33383e-05
9.04486e-05
-3.10071e-05
3.88007e-06
2.3359e-05
3.40929e-05
-8.54218e-05
3.13211e-05
-9.97555e-06
3.44506e-06
-5.46218e-06
6.5309e-06
1.44845e-06
-3.99705e-05
-1.84509e-06
4.03672e-05
-4.19466e-05
3.91741e-05
4.22102e-06
3.74456e-05
-0.000119363
4.35691e-05
-3.96727e-05
-5.74151e-06
-3.81972e-05
0.000122134
-3.58056e-06
4.5574e-06
-5.80766e-06
-8.3532e-07
9.69476e-06
-9.39733e-06
5.3789e-07
1.61647e-05
-1.17882e-05
-5.21179e-06
-3.32249e-06
2.9182e-05
1.52955e-05
3.68733e-06
-2.83802e-05
1.39794e-05
1.85399e-06
1.94866e-05
-2.75875e-05
3.01435e-05
1.43977e-05
1.02835e-05
5.98341e-06
-3.06646e-05
2.00993e-06
1.61815e-05
-3.79374e-06
1.35835e-06
1.09351e-05
-2.14607e-05
6.03155e-06
3.16106e-05
1.6408e-05
-3.18853e-05
1.69347e-05
8.31694e-07
3.39013e-05
3.90589e-07
1.13546e-05
-4.32959e-07
-1.13122e-05
1.72167e-05
-1.68364e-05
1.02756e-08
-5.94654e-06
3.45179e-05
-1.68862e-05
1.79242e-05
-1.47091e-06
6.04157e-06
-3.424e-05
2.33252e-05
-3.41201e-05
3.53029e-05
1.76937e-05
-9.45262e-07
-1.86443e-05
1.89588e-06
-1.40372e-05
-5.32429e-06
3.70551e-05
-7.51451e-07
-1.4231e-05
5.05678e-06
-5.71571e-06
-1.79854e-05
-5.60113e-06
5.33362e-06
-1.82145e-05
1.86711e-05
-1.20801e-06
5.68472e-06
-3.81302e-05
-5.10678e-06
1.81767e-05
-5.13778e-06
1.8471e-05
-4.90573e-07
-1.78436e-05
-1.36843e-07
-1.22859e-05
-6.07569e-06
3.68326e-05
-3.42393e-07
-1.2434e-05
-1.88989e-05
1.90048e-05
-4.48275e-07
6.21261e-06
-3.75456e-05
-2.50035e-05
3.79327e-05
-3.66345e-05
-6.91031e-06
-4.04767e-07
3.80977e-07
6.9341e-06
1.47798e-05
1.44331e-05
-3.61232e-05
1.41297e-05
2.45394e-07
3.73548e-06
-3.82794e-06
4.73434e-07
-2.46413e-06
1.31337e-05
2.74202e-06
7.86313e-06
1.44076e-05
9.06662e-07
1.22894e-05
-6.78233e-07
-1.25178e-05
1.25621e-05
-1.27125e-05
1.05706e-06
-1.34703e-05
3.83218e-05
-1.25395e-05
1.21066e-05
1.30432e-05
-3.81005e-05
5.73279e-07
-2.42629e-07
-7.90338e-07
-4.815e-07
-8.64987e-06
2.38813e-07
8.89255e-06
-1.4312e-05
1.42404e-05
-4.09848e-07
1.28445e-05
-3.58063e-05
3.5516e-06
-3.59817e-06
2.85385e-07
-2.65821e-06
1.51024e-05
-2.51862e-06
1.41008e-05
6.72767e-06
3.83671e-06
8.93409e-06
2.56993e-06
-1.53407e-05
3.92293e-07
3.6942e-06
-2.49783e-07
8.87832e-06
4.48073e-07
2.50654e-06
1.41693e-05
-1.41059e-05
1.2074e-05
-5.87329e-06
-1.4854e-05
-2.36576e-07
-6.16762e-06
-1.43153e-05
3.55852e-05
8.45437e-07
6.30938e-07
4.43724e-07
-1.40674e-05
-4.8225e-07
-5.67934e-06
-3.50875e-05
-7.90621e-06
-9.97152e-06
-2.00346e-06
1.98812e-05
-1.03529e-06
-6.95407e-06
8.3147e-08
-1.14081e-06
-9.866e-06
1.0868e-05
-1.17945e-05
-6.02757e-06
-1.73911e-05
2.62557e-05
-1.69414e-05
-1.59052e-06
-3.86019e-05
6.24105e-07
9.74635e-06
-9.71436e-06
-6.56089e-07
4.04864e-06
-4.3383e-06
9.13767e-07
-5.65505e-06
1.945e-05
1.34544e-05
1.52059e-05
-3.83746e-05
1.38259e-05
-1.02758e-06
-2.14332e-06
1.30109e-05
1.31131e-05
-1.32068e-05
1.00743e-06
-1.12743e-07
-1.19013e-05
-2.64312e-08
1.19917e-05
-6.39229e-08
1.77314e-05
9.37605e-06
-3.90088e-05
1.67122e-05
9.92732e-07
-4.85882e-06
-5.99929e-07
1.74504e-05
-4.71939e-06
-2.03351e-07
-1.82453e-06
-5.25433e-06
6.47894e-06
-8.28594e-06
1.74201e-06
8.16411e-06
-7.074e-06
1.9622e-05
-2.24947e-05
-2.19368e-05
-1.67253e-05
2.80635e-06
-1.88221e-05
-5.7881e-06
-1.33423e-05
-1.57949e-05
-1.1337e-06
-1.9841e-05
-1.33517e-05
-7.81249e-07
7.90609e-07
1.88563e-05
-3.9282e-05
-1.76599e-06
-1.10758e-06
1.4993e-05
-5.42324e-06
-8.46222e-06
2.20809e-05
-8.13121e-06
-1.50572e-05
-2.52325e-05
-1.79451e-05
-4.63591e-06
-3.33963e-07
-4.5337e-07
1.48371e-06
-1.42508e-05
1.57854e-05
-3.95342e-05
-2.4937e-06
1.01938e-06
-1.36648e-05
-1.45784e-06
1.41032e-05
-1.96886e-05
1.76911e-05
3.01688e-06
2.44217e-06
-3.57955e-05
2.1112e-05
-1.71679e-05
-5.40192e-06
-2.19446e-06
3.74097e-05
5.77014e-06
-4.4724e-06
-1.84656e-05
-4.67143e-06
8.2471e-06
-5.56321e-06
1.85829e-05
-7.59343e-06
-1.29835e-05
-7.70241e-07
9.36429e-06
4.38947e-06
1.08576e-05
7.27008e-06
-3.11112e-05
-1.33903e-06
1.14264e-05
1.56005e-05
-9.41353e-06
-7.52602e-06
-8.33515e-06
3.53621e-05
5.80295e-06
-7.9464e-06
6.83209e-06
1.16076e-05
3.13699e-06
-1.11414e-05
-3.60317e-06
-1.5191e-05
-8.77732e-06
3.55759e-05
-1.958e-05
1.33609e-05
8.59406e-06
-3.30964e-05
2.10018e-05
-1.12441e-05
-2.3661e-05
3.58855e-05
-3.4647e-05
1.01756e-05
1.79741e-05
2.13181e-06
-3.02815e-05
1.9781e-06
-2.56428e-06
1.07618e-05
1.35961e-05
6.35604e-06
1.94118e-05
-1.0814e-05
-1.11621e-05
-1.855e-06
3.20286e-05
-2.11996e-05
3.29407e-05
-2.98818e-05
-5.54027e-06
-2.9593e-06
6.25448e-06
2.24509e-06
3.55436e-06
-1.50809e-05
-8.75737e-06
-6.79105e-06
2.00023e-05
5.63543e-06
-9.73109e-06
-2.92441e-06
1.08145e-06
1.1574e-05
3.00634e-06
-5.09311e-06
-7.64432e-06
-4.21824e-06
4.30017e-06
1.20687e-05
9.33353e-07
-1.72203e-05
3.19735e-06
1.31715e-05
1.17171e-05
-1.58769e-05
1.59959e-05
-5.43541e-06
-4.33507e-06
-1.75519e-06
1.15257e-05
-3.08663e-07
-2.66108e-06
-2.46567e-06
-2.62174e-07
-4.38157e-06
-5.30043e-06
4.13245e-06
9.05805e-07
5.01337e-06
-1.46954e-05
3.72366e-06
-1.37138e-06
6.10091e-06
3.51348e-06
-7.56046e-06
-2.21527e-05
2.61996e-05
-8.46199e-06
-1.21008e-05
2.40762e-05
-1.03645e-05
-5.65792e-06
8.70718e-06
1.46934e-05
-3.37651e-05
2.29531e-05
-1.99038e-05
-1.60039e-05
2.68562e-05
-2.34631e-05
-1.59801e-05
-6.4043e-05
2.78008e-05
5.22223e-05
-3.58468e-05
3.71591e-05
-1.72924e-05
3.97364e-07
-0.000100287
-5.7167e-05
-1.72415e-05
0.000111568
-1.96026e-05
-5.48569e-05
3.17945e-05
-5.09997e-05
4.23538e-05
2.89616e-06
2.13537e-05
3.52661e-07
-2.46025e-05
2.78881e-05
-4.03882e-05
1.53963e-05
-4.4769e-06
5.37187e-05
-2.19415e-05
3.74724e-05
-1.51783e-05
2.88492e-05
-7.53933e-05
-5.59101e-06
1.03529e-05
3.27105e-05
1.63961e-05
6.86213e-06
6.5682e-06
-3.05603e-05
1.24442e-05
2.13785e-05
-1.30605e-05
-3.37829e-05
2.54649e-05
-1.49163e-05
-2.41044e-05
6.03992e-05
-2.19616e-05
-6.01514e-06
-2.31141e-05
-3.21313e-05
3.1141e-05
-2.13996e-05
-3.54974e-05
2.28796e-05
-7.69725e-05
-4.53516e-06
4.4647e-05
1.32853e-05
-3.55131e-05
-2.24193e-05
-2.12234e-05
-4.22344e-06
7.00939e-05
-2.70083e-05
1.90702e-05
6.0201e-05
4.20584e-06
-9.14151e-05
2.65039e-05
5.27672e-05
-5.1705e-05
7.39855e-05
-8.30123e-05
5.55748e-06
-1.42233e-05
-2.68204e-05
3.54862e-05
-2.02273e-05
-4.4572e-05
7.03568e-05
-1.44531e-05
-1.99975e-05
-3.38348e-05
-4.70647e-05
5.40792e-05
-2.62771e-05
-5.21297e-05
-2.14234e-05
-4.00944e-05
-6.7698e-05
3.56394e-05
1.89316e-05
-6.16447e-06
-4.84065e-05
-1.0135e-05
1.28094e-05
3.29651e-05
1.92847e-05
-1.04881e-05
-3.14707e-05
-8.32833e-06
5.90838e-05
-1.50195e-05
-2.69393e-05
1.98574e-05
-4.10414e-05
2.43385e-05
-3.38788e-06
-1.99689e-05
-2.90505e-05
5.24072e-05
-1.96119e-05
-4.87448e-05
6.49688e-05
-1.52418e-05
-2.4339e-05
-3.95269e-05
-4.60645e-05
5.65409e-05
-2.29032e-05
-6.53685e-05
-2.5654e-05
-3.56523e-05
-7.28962e-05
1.1994e-05
1.78289e-05
4.40877e-05
-7.39106e-05
1.07151e-05
4.18789e-05
-4.05999e-05
1.4366e-05
1.4178e-05
4.65431e-05
-5.65581e-05
2.4381e-05
-6.94755e-05
0.000130197
5.05621e-05
6.28626e-05
-7.15457e-05
3.95905e-05
5.50593e-05
-2.00888e-05
2.63932e-05
-4.99739e-05
-0.000111487
-6.76262e-05
-1.74844e-05
0.000196597
-7.34929e-07
-8.63706e-05
-6.66839e-05
-1.67722e-06
2.2488e-05
-1.13426e-05
-7.78293e-05
2.27039e-05
-1.89312e-06
2.82287e-05
3.39833e-05
-7.35546e-05
8.91887e-05
-3.82561e-05
0.000125555
-0.000177942
0.000197259
-1.23946e-05
1.11567e-05
6.52095e-05
-6.39715e-05
2.6226e-05
6.62444e-05
-0.000104865
6.11825e-06
3.12645e-05
4.28347e-05
-4.29286e-05
6.21223e-06
-1.77309e-05
9.18301e-05
4.87189e-05
8.25771e-05
-6.60866e-05
6.59898e-05
4.89736e-05
-7.50602e-05
0.000139906
-5.19989e-05
-2.56074e-05
-6.19904e-05
0.000179428
-2.28766e-05
3.48148e-06
1.71962e-05
2.8493e-06
-4.2922e-05
2.282e-05
-2.14235e-06
2.0705e-05
-6.98547e-05
8.57382e-05
-4.22132e-05
0.000163654
-7.45812e-06
5.3576e-06
2.31879e-05
-2.10874e-05
1.62215e-05
1.83178e-05
-6.58581e-07
2.22378e-05
3.07925e-05
-1.31333e-05
-5.51282e-05
0.000108158
-4.50735e-05
6.60157e-06
6.23357e-06
2.17185e-06
-1.5007e-05
-4.63628e-06
8.68642e-06
2.55144e-06
-6.31544e-06
1.44533e-06
-1.50671e-05
-3.64972e-06
7.70435e-06
1.60307e-05
-2.00853e-05
1.83142e-05
2.54874e-05
1.41846e-05
1.1834e-05
1.45198e-05
2.15992e-05
1.57297e-05
2.42775e-05
6.54592e-06
2.92379e-05
3.41096e-05
1.06315e-05
1.31285e-06
1.4735e-05
-1.55207e-06
-2.75125e-05
1.73356e-07
-1.35809e-05
-4.04256e-06
-6.43452e-06
-6.14362e-06
-1.58477e-05
1.29588e-05
-3.40448e-06
-2.89397e-05
-1.1269e-05
-9.22209e-06
3.34499e-05
-1.39742e-06
-1.3276e-05
2.49475e-05
-1.17755e-05
-4.21117e-05
-1.85483e-05
-1.26606e-05
-7.28509e-06
-3.77121e-05
-1.21833e-05
-7.63918e-06
1.94677e-05
4.40656e-06
-4.72821e-06
-1.09033e-05
7.67065e-06
2.55645e-05
-2.52129e-07
-3.94947e-06
4.73092e-06
-7.63368e-06
6.55522e-06
8.26336e-07
-1.40456e-05
2.46244e-06
5.6011e-06
2.02072e-06
-2.16674e-05
3.33534e-06
1.43099e-05
-4.41937e-06
2.10616e-05
7.36125e-07
2.69983e-08
-8.54538e-07
3.4802e-06
6.51689e-06
-2.95045e-06
-2.20416e-05
1.84751e-05
-4.57174e-06
-1.10605e-05
2.21491e-05
8.54801e-07
-8.37699e-06
-8.26911e-06
6.94451e-06
2.1794e-06
2.11293e-06
-1.8759e-05
-1.46587e-05
1.05427e-05
-3.45873e-05
-7.75637e-07
-3.14598e-06
4.7472e-07
3.44689e-06
5.81658e-07
-1.73466e-06
3.77361e-07
-4.96266e-06
2.39834e-06
-2.89986e-06
-1.66115e-06
5.03573e-06
-6.51016e-06
1.87565e-06
1.32214e-05
-3.47289e-07
-1.78368e-05
1.9166e-06
1.37032e-05
1.18401e-05
-1.86976e-05
1.20956e-05
-1.17741e-06
-8.22923e-07
1.0756e-06
5.2884e-06
5.30459e-06
-3.37464e-06
-4.02159e-06
2.09164e-06
-1.27038e-05
2.84607e-07
1.77238e-05
-2.51904e-06
-1.35594e-05
9.28923e-06
-2.03355e-05
7.02464e-06
-1.41479e-05
2.37217e-05
-1.22324e-05
1.1371e-05
-1.6576e-06
4.01871e-07
-2.61937e-05
1.98947e-05
-3.98283e-05
1.71178e-05
-3.42678e-06
-4.72854e-06
-1.2008e-06
9.35612e-06
-2.1313e-06
-2.86747e-06
1.572e-06
-4.68044e-06
5.94733e-06
-1.48371e-05
6.02227e-06
1.52892e-05
1.34793e-05
-3.69188e-05
-3.5945e-05
-4.42511e-06
-4.91633e-06
3.16915e-06
1.35421e-05
5.12045e-06
5.0929e-07
-5.6115e-06
-1.82377e-08
-1.05529e-05
-3.19273e-06
1.88661e-05
7.17898e-07
-1.07616e-05
3.38615e-06
-1.82168e-05
9.21914e-06
-1.7718e-05
1.79114e-05
-2.17186e-05
4.71855e-06
-5.0697e-05
-1.00207e-05
-5.52586e-06
-2.03985e-05
-6.86371e-07
-2.62398e-05
1.69055e-05
-7.86983e-06
1.17301e-05
-4.57937e-05
3.09909e-05
-5.90891e-05
-1.03623e-05
1.51135e-05
-1.3643e-05
1.55243e-05
3.61499e-05
-9.2675e-08
-5.15815e-05
1.3672e-05
-9.60677e-06
1.14591e-05
1.23525e-05
3.74695e-05
2.48717e-05
-1.7573e-05
1.81723e-06
3.45135e-05
-3.28477e-05
4.70174e-05
-5.05134e-05
-1.70493e-05
-1.69856e-05
-2.09158e-05
5.49506e-05
-8.68479e-06
-4.90385e-05
4.0674e-05
-2.08764e-05
-4.79401e-06
2.8308e-05
2.3068e-05
-7.22524e-05
3.90091e-05
-1.54951e-05
4.5452e-05
-7.14225e-05
6.35453e-05
5.19467e-05
1.20127e-05
-3.03893e-05
-3.35701e-05
-2.26158e-05
-1.52041e-06
7.60829e-05
-2.15247e-05
1.09216e-05
4.48566e-05
-2.10815e-06
-7.31377e-05
-1.90172e-05
6.23534e-05
4.11143e-05
-6.47471e-05
3.30186e-05
1.23003e-05
3.57795e-05
-1.88547e-05
-2.92251e-05
2.04428e-05
-2.41563e-05
1.60138e-05
-5.14564e-06
6.13679e-05
4.86852e-05
4.13575e-06
-7.69772e-05
1.91745e-05
4.55244e-05
-2.262e-05
3.66489e-05
-3.73389e-05
1.22111e-05
-1.18651e-05
-3.16911e-05
3.13451e-05
-1.51182e-05
-1.7616e-05
4.49453e-05
-1.30567e-05
-1.39266e-05
-2.41544e-05
-2.88045e-05
3.53428e-05
-1.96941e-05
-3.61513e-05
2.41519e-06
-3.5166e-05
-4.03159e-05
-2.7476e-06
7.4192e-06
-1.28197e-05
8.14808e-06
9.33203e-06
-1.08111e-05
-1.2685e-06
-8.27876e-06
2.503e-05
3.10974e-05
-7.51386e-06
-3.43947e-05
1.43312e-05
1.54977e-05
4.33998e-06
1.76795e-08
-1.18715e-05
3.14621e-06
1.5525e-05
-2.67796e-06
-2.4546e-06
-1.548e-05
3.36941e-05
9.41636e-06
-6.15245e-06
-3.6958e-05
-3.39078e-06
1.96132e-05
1.74717e-05
-1.28467e-06
7.31024e-06
7.45191e-06
-5.88495e-07
-2.0863e-06
1.68485e-05
-8.5531e-06
-2.48438e-06
1.0449e-05
-1.02363e-06
-9.61577e-06
-8.62128e-06
2.57501e-05
-1.57974e-05
3.13094e-05
3.27365e-06
-2.56401e-05
-8.94292e-06
-2.52882e-05
-1.94199e-05
7.60175e-05
-2.69433e-05
4.92866e-06
9.15148e-06
-2.20895e-05
-1.27021e-05
-2.43118e-05
1.40434e-05
3.64824e-05
-8.55151e-05
1.70993e-05
-2.88779e-06
-6.12859e-06
2.42335e-07
8.77405e-06
-2.26574e-06
2.54974e-06
-3.17179e-06
-3.73469e-06
-4.65964e-06
-7.26888e-06
1.19944e-06
8.61918e-06
-1.57321e-06
-8.86746e-06
6.37008e-06
7.81186e-06
4.03202e-06
1.50376e-06
1.6028e-06
-7.13859e-06
-9.26171e-07
3.27479e-06
1.6834e-06
6.41943e-07
-6.43528e-08
3.91953e-06
2.95168e-06
-5.26841e-06
9.06497e-07
6.28781e-06
4.76586e-08
1.50077e-06
2.93498e-06
3.84262e-06
-6.18656e-07
5.80988e-07
-2.87731e-06
9.17117e-06
-2.65984e-06
-8.36125e-07
2.03489e-06
-5.15536e-06
1.61148e-06
7.5232e-06
-1.75939e-06
-7.37529e-06
9.64002e-06
-1.42266e-05
6.19808e-06
-1.41343e-05
3.12975e-05
-3.74938e-06
5.52412e-06
-3.53413e-06
4.55097e-06
-1.56756e-05
1.87169e-06
-1.15473e-05
-6.7385e-06
-1.2041e-05
-1.59381e-05
-8.00823e-06
3.59873e-05
2.18981e-06
-1.86832e-06
-1.23624e-05
-1.98348e-05
6.08647e-06
-1.68929e-05
2.05777e-05
-5.55316e-06
8.40307e-06
-3.76584e-05
2.44536e-05
-3.58853e-05
3.70231e-05
-1.19908e-05
1.4024e-06
1.42452e-05
-3.65681e-06
1.363e-05
1.61558e-05
-4.17766e-05
1.31973e-05
1.83514e-06
-1.70252e-06
1.4024e-05
3.83432e-06
1.52676e-05
-2.72492e-06
-1.18606e-05
4.03255e-05
3.9985e-06
-7.42492e-06
-2.88906e-07
2.46846e-07
7.46698e-06
1.57253e-05
1.48852e-05
-3.80354e-05
1.45658e-05
8.70614e-07
3.95671e-06
-4.14972e-06
4.39858e-07
-2.51766e-06
1.39413e-05
2.9202e-06
7.81523e-06
1.49683e-05
1.18167e-06
1.29145e-05
-1.3188e-05
-9.08128e-07
1.25552e-05
-1.29221e-05
1.54855e-06
-1.32801e-05
3.87498e-05
1.27072e-05
1.41829e-05
-4.00781e-05
1.26697e-05
-4.16929e-08
1.30253e-06
-6.52147e-07
-5.26096e-06
-1.68521e-05
-1.43862e-05
3.64993e-05
6.3651e-07
-1.19736e-07
-5.77774e-06
-1.74224e-05
1.20679e-06
-7.96765e-06
7.74975e-06
9.81684e-08
4.23244e-06
-1.79778e-05
1.2641e-05
-2.5831e-05
1.40045e-05
6.38625e-06
8.25095e-07
1.19973e-05
6.53746e-06
-3.65126e-05
1.18444e-05
2.51006e-07
-1.8901e-05
3.71317e-05
-1.94562e-05
8.06197e-07
1.51829e-05
-6.30703e-07
1.15771e-06
-1.57099e-05
-8.90378e-06
-1.20366e-05
-6.47968e-07
-8.88651e-06
-1.97435e-05
1.94553e-05
-3.59741e-07
9.18292e-06
-3.7813e-05
-1.184e-05
9.61173e-07
2.99723e-05
3.75876e-05
-7.08964e-07
1.43262e-05
7.6276e-06
5.82047e-07
-1.18408e-05
1.19021e-05
-6.43353e-07
-1.22829e-05
1.22032e-05
6.61689e-07
1.2252e-05
-3.63757e-05
-1.27225e-05
-1.25959e-05
3.75217e-05
-1.21152e-05
5.44079e-08
6.93101e-07
-5.56368e-07
-6.95553e-10
-1.38519e-05
-1.26937e-05
-1.24632e-05
-2.0984e-07
-1.24053e-05
-1.23676e-06
-1.42629e-07
-1.27609e-05
-1.31679e-05
1.23404e-05
6.84915e-07
1.2094e-05
-3.80228e-05
1.53347e-06
-1.84477e-06
1.41067e-06
1.25002e-06
1.26364e-05
-1.24391e-06
-1.26425e-05
1.22659e-05
-1.31778e-05
2.16191e-06
-1.4193e-05
3.90953e-05
-1.16304e-05
1.29694e-05
-2.583e-06
1.39386e-05
-3.82114e-05
-5.72874e-07
1.33368e-06
-1.79641e-06
-3.76124e-07
-8.53947e-06
-1.65671e-05
-3.93574e-05
-3.1143e-07
-1.40845e-05
1.23208e-05
2.07515e-06
-1.29817e-05
1.29719e-05
-3.01625e-07
1.15673e-05
-3.86336e-05
-1.48242e-05
-1.21707e-05
3.99667e-05
-1.24371e-05
-2.68865e-06
2.40977e-06
-3.27955e-06
2.55987e-06
5.74949e-07
1.35207e-05
-1.36809e-05
-4.14739e-07
1.98099e-05
-2.17287e-05
-2.16536e-05
-2.73642e-05
5.6959e-06
-4.11054e-05
-1.89662e-05
-3.10206e-06
-4.06346e-05
2.74942e-05
2.13807e-05
-8.05803e-06
-4.08169e-05
-1.96292e-05
-2.20809e-05
-1.34521e-05
-1.35057e-06
1.48616e-06
-1.9121e-05
-4.44608e-06
-1.33165e-05
-4.04955e-05
-7.35809e-07
1.6257e-05
-6.39643e-06
-9.12478e-06
2.27423e-05
-8.85897e-06
-1.46192e-05
-2.7237e-05
-2.08474e-05
-4.43245e-06
-2.12633e-06
1.62357e-07
-4.30629e-08
-1.32484e-05
1.48443e-05
-4.21244e-05
-8.12936e-06
-8.03921e-06
-1.08412e-05
-3.08042e-06
2.19608e-05
-2.84562e-06
-8.78368e-06
3.59009e-06
-1.06419e-05
-3.04495e-06
-1.25475e-05
-2.24843e-05
3.19514e-05
-1.60672e-05
-5.26401e-06
1.58676e-05
-4.25767e-05
-9.66165e-06
-2.25988e-05
-1.16773e-06
1.53185e-05
8.44802e-06
8.82245e-06
7.16687e-06
-3.85881e-05
-1.42009e-06
9.0748e-06
2.7161e-05
-1.74074e-05
-1.11737e-05
-5.57351e-06
4.18093e-05
-7.33614e-06
1.45435e-05
8.11109e-06
9.67348e-06
-9.84275e-06
3.21936e-05
-3.99274e-05
4.11636e-05
4.51554e-06
-3.52613e-06
1.19538e-05
-1.29432e-05
-1.04724e-05
1.08012e-05
4.18674e-06
1.57209e-05
-2.97194e-05
-5.34629e-06
-1.65946e-05
3.27421e-05
-1.24037e-05
-7.40328e-06
1.07205e-05
-1.20441e-05
9.95209e-06
2.30025e-05
-4.03373e-06
6.31844e-06
-5.93986e-06
9.57351e-06
7.70186e-06
2.16191e-05
1.96474e-05
-1.48198e-06
4.79924e-06
2.44217e-05
1.89739e-05
9.82536e-06
-3.07573e-06
2.91966e-06
-9.66928e-06
-2.24051e-05
3.27023e-05
-6.73805e-06
-1.3468e-05
7.42412e-08
-2.86228e-05
4.36966e-06
-9.57884e-06
-2.34136e-05
-1.43849e-05
-1.62058e-05
3.49603e-05
-6.11218e-06
-1.78516e-05
-2.65978e-05
4.3742e-05
-2.32563e-05
1.80527e-05
-6.2502e-05
-2.94943e-05
5.70305e-05
8.36591e-06
-1.0327e-05
-8.1081e-06
1.00692e-05
-3.79129e-05
1.25137e-05
-2.26001e-05
-2.56399e-05
2.80751e-05
-1.20965e-05
-2.40868e-05
5.19067e-06
3.29537e-05
9.32092e-06
2.44405e-06
-2.38615e-05
-1.91418e-07
1.4703e-05
-1.09853e-05
2.33076e-05
-3.11413e-05
1.05837e-05
-1.4347e-05
-3.01725e-05