/*--------------------------------*- C++ -*----------------------------------*\
| =========                 |                                                 |
| \\      /  F ield         | OpenFOAM: The Open Source CFD Toolbox           |
|  \\    /   O peration     | Version:  v2012                                 |
|   \\  /    A nd           | Website:  www.openfoam.com                      |
|    \\/     M anipulation  |                                                 |
\*---------------------------------------------------------------------------*/
FoamFile
{
    version     2.0;
    format      ascii;
    class       volVectorField;
    location    "0.25";
    object      U;
}
// * * * * * * * * * * * * * * * * * * * * * * * * * * * * * * * * * * * * * //

dimensions      [0 1 -1 0 0 0 0];


internalField   nonuniform List<vector> 
6576
(
(0.0317132 -1.48267 -0.0597101)
(-0.0863443 -1.53091 0.0723765)
(-0.029926 -1.56526 0.012108)
(0.0417215 -1.45265 -0.0577884)
(-0.00363252 -1.50617 0.0052753)
(-0.0746223 -1.59406 0.074637)
(-0.0149881 -1.54489 0.0304986)
(0.0137119 -1.49752 0.000119975)
(0.0156511 -1.24898 -0.0102227)
(0.0152714 -1.45988 -0.000949864)
(-0.0112179 -1.51693 -0.0162866)
(-0.0158601 -1.56073 -0.0127524)
(-0.00211556 -1.54935 0.0039749)
(0.00645232 -1.4879 -0.00122976)
(0.0568831 -1.4556 0.0230552)
(0.00938523 -1.82119 -0.0327272)
(0.0609469 -0.861233 0.0330044)
(0.0159469 -1.71746 -0.0173574)
(0.0525857 -1.56071 0.0607166)
(0.0156238 -1.48087 0.00196604)
(0.0449076 -1.37619 0.04697)
(0.00162534 -1.51861 0.0117852)
(0.00930428 -1.46503 0.00724585)
(-0.00485879 -1.49977 -0.0124725)
(0.00200884 -1.60223 0.0127938)
(0.0507107 -1.53 0.0527717)
(0.0605338 -1.49541 0.0627629)
(-2.13359e-05 -1.45743 0.0141807)
(-0.00582179 -1.58085 -0.0308317)
(0.00299248 -0.961444 -0.00706924)
(-0.0504362 -1.57321 0.0600114)
(-0.0257396 -1.45452 -0.00934892)
(-0.00999644 -1.55391 -0.000391849)
(0.0103615 -1.45373 0.0301096)
(0.014932 -1.46395 0.0341063)
(-0.0178902 -1.25311 0.0100934)
(0.00373719 -1.63786 0.0120401)
(-0.0122655 -1.56592 0.0103365)
(0.0173692 -1.47872 0.0247777)
(0.00973908 -1.47483 0.0179177)
(0.00166509 -1.31406 0.0322454)
(-0.0158225 -1.47503 0.00634304)
(-0.00151118 -1.40536 0.00581164)
(-0.0637752 0.453162 0.524487)
(-0.111248 0.431131 0.484051)
(-0.0590553 0.107823 0.45089)
(0.0286076 0.167631 0.0150033)
(-0.0706169 0.103726 0.185799)
(0.101653 -0.0573356 0.325383)
(-0.000412708 -0.140014 0.222376)
(0.154351 0.134732 0.10328)
(0.124927 0.147877 0.332908)
(0.00424895 0.581486 0.00984725)
(9.9138e-05 0.570701 0.0181799)
(-0.00376681 0.56624 0.0135114)
(0.00193634 0.571433 0.013588)
(0.0043081 0.57061 0.0130149)
(0.00470203 0.552331 0.00957357)
(-0.00442167 0.5681 0.0136129)
(0.00310122 0.565244 0.0326321)
(0.0054654 0.561312 0.027171)
(-0.00143895 0.567825 0.034626)
(-0.00568502 0.578383 0.0437296)
(-0.00253863 0.564672 0.0436385)
(0.000695168 0.561216 0.0366627)
(0.00527947 0.564414 0.0254024)
(-0.00284062 0.556215 0.0975556)
(-0.00409606 0.553968 0.0941323)
(-0.000751053 0.544083 0.0853127)
(-0.00676682 0.538872 0.0809503)
(0.00406476 0.547551 0.0797807)
(0.000180215 0.538457 0.0729199)
(0.00913151 0.542995 0.0654822)
(-0.180918 -2.09253 -0.146156)
(-0.240987 -1.4935 -0.365245)
(0.020853 -2.76789 0.170049)
(-0.0778458 -1.73026 -0.369217)
(-0.0463606 -2.16138 -0.245009)
(0.00119245 -2.64371 -0.0392157)
(0.0543285 -2.31914 -0.0590157)
(-0.00372677 -1.09451 -0.114337)
(0.00292043 -1.07685 -0.28039)
(-0.0339893 -0.99102 -0.392538)
(-0.0373723 -1.00856 -0.325674)
(-0.0140118 -1.10751 -0.243447)
(-0.0203884 -1.03854 -0.310132)
(-0.0329877 -0.983524 -0.370918)
(-0.0238284 0.924515 1.12075)
(-0.0354992 0.948053 1.09512)
(-0.00144301 0.911223 1.04134)
(0.00262964 0.755229 0.958456)
(0.0261016 0.692391 0.972218)
(-0.0348746 0.861084 1.05183)
(-0.00909836 0.839638 1.08648)
(-0.0683931 0.288785 0.75629)
(0.0313409 0.214845 0.872699)
(-0.0134691 0.36491 0.519308)
(-0.0725852 0.283248 0.92145)
(0.00433526 0.412874 0.807749)
(-0.0257115 0.445638 0.677506)
(0.0414332 0.465128 0.794373)
(0.0185296 -0.0207457 0.196746)
(-0.00723236 0.019042 0.119802)
(-0.00227783 0.0505166 0.182686)
(-0.00837016 0.0831351 0.178126)
(-0.0304571 -0.00717166 0.285518)
(-0.0158235 0.0800969 0.203207)
(0.0135804 -0.0128021 0.264332)
(0.0454417 -0.00390159 0.048918)
(-0.0149085 0.00619287 0.013145)
(0.0336917 -0.0156686 0.0339042)
(0.000120988 0.0499354 0.0199364)
(0.0134723 0.0257804 -0.0269536)
(-0.0133438 0.0498512 -0.0197131)
(0.0663947 -2.06064 0.0502349)
(0.00969351 -2.53998 0.0357992)
(0.0960952 -2.4397 0.0497806)
(-0.0431342 -2.65511 0.0754339)
(-0.015972 -2.70786 0.10283)
(0.0533542 -2.64292 0.0845478)
(0.0499249 -2.62624 0.094969)
(0.0999388 -1.45986 0.110081)
(0.102768 -1.54068 0.107622)
(-0.0336815 -1.46173 0.0416113)
(-0.0628943 -1.4833 -0.0240005)
(-0.0908177 -1.41098 -0.0241352)
(0.0684703 -1.61921 0.0840565)
(0.16708 -1.4262 0.0752279)
(-0.00204235 -4.31932 0.0241135)
(0.0275785 -4.33001 -0.00298718)
(-0.0320106 -4.23591 -0.0595575)
(-0.0173733 -4.1 -0.56077)
(-0.146871 -4.24731 -0.384021)
(-0.156686 -4.01439 -0.347504)
(-0.184908 -4.19445 -0.33762)
(0.00248529 0.24221 -0.438541)
(-0.00848585 0.324943 -0.483244)
(-0.0107245 0.295995 -0.443856)
(0.0184159 0.223231 -0.460146)
(0.033666 0.232325 -0.519651)
(0.0203865 0.285955 -0.510065)
(-0.00580114 0.237728 -0.432525)
(-0.0211905 0.205479 -0.249473)
(0.00305129 0.191829 -0.231591)
(-0.0170123 0.21782 -0.287426)
(0.0130346 0.156436 -0.227079)
(0.0297349 0.151821 -0.276576)
(0.00730335 0.184147 -0.289098)
(-0.037911 0.135865 -0.200024)
(-0.0126433 0.306421 -0.0900763)
(-0.0018488 0.251759 -0.123688)
(0.0103708 0.312608 -0.0976434)
(0.00553841 0.262174 -0.199629)
(-0.00962248 0.283833 -0.164628)
(0.0159745 0.329473 -0.132314)
(0.00747767 0.293694 -0.157337)
(0.00467851 0.221175 -0.0689885)
(0.0137413 0.209563 -0.0473513)
(0.00419196 0.158556 -0.0417743)
(0.0159288 0.189669 -0.0884029)
(0.0199679 0.18867 -0.056413)
(0.00619659 0.110704 -0.0508079)
(0.00621232 0.121737 -0.0804369)
(0.0105933 0.138667 -0.0598544)
(-0.00131232 0.1541 -0.0965065)
(0.001512 0.220413 0.0384574)
(0.0135839 0.312061 0.0979915)
(-0.0314267 0.317841 0.126031)
(0.0119292 0.213913 -0.0241403)
(-0.00669639 0.219505 0.00125748)
(0.0521509 0.302061 0.0459007)
(0.000857793 0.266654 0.0439263)
(0.0280814 0.181118 0.136305)
(-0.0284388 0.179586 0.158686)
(0.00233129 0.221704 0.135986)
(0.0442262 0.0694887 0.155823)
(-0.0163933 0.103158 0.201044)
(0.035597 0.114984 0.101094)
(-0.0062295 0.126217 0.129956)
(-0.0187841 0.10365 0.138477)
(0.0237431 0.132087 0.0540006)
(0.0121801 0.267097 0.619372)
(0.0324058 0.197163 0.592291)
(-0.0120272 0.166316 0.6675)
(0.0261968 0.163742 0.670557)
(0.0416711 0.0828755 0.612308)
(0.00539467 -0.132858 0.819328)
(0.028814 0.0118158 0.741031)
(0.0116505 0.0740185 0.752376)
(-0.0375647 0.0278312 0.753684)
(0.0107522 0.0183053 0.384046)
(-0.00671125 0.254142 0.373642)
(-0.0369936 0.195071 0.38159)
(0.0552099 0.298152 0.491291)
(0.0750337 0.245068 0.554851)
(0.0976943 0.30309 0.441166)
(0.0939785 0.177968 0.436401)
(0.00506183 -0.589056 0.437648)
(0.0208007 -0.684045 0.401555)
(-0.14844 -0.702607 0.363369)
(-0.0664695 -0.899431 0.508813)
(0.00836135 -0.63979 0.41914)
(-0.148375 -0.518325 0.381602)
(-0.285712 -0.658695 0.469751)
(-0.0342914 -1.12293 0.315555)
(-0.0110829 -1.33952 0.410036)
(-0.0145428 -1.78055 0.291165)
(-0.116066 -0.823469 0.371064)
(-0.0151572 -0.494536 0.459591)
(0.0204109 -0.720897 0.46211)
(-0.0710073 -1.16759 0.350323)
(-0.387808 -4.1539 -0.480044)
(0.109488 -4.04474 -0.38267)
(-0.0513755 -3.70272 -0.410361)
(-0.0540645 -3.91679 -0.47024)
(-0.00690674 -3.99176 -0.30405)
(-0.517023 -4.43291 -0.583593)
(-0.381323 -4.19376 -0.702117)
(-0.0156807 0.615279 0.300745)
(-0.0361002 0.40773 0.433694)
(-0.0904444 0.18324 0.460498)
(-0.0475821 0.571193 0.422313)
(0.0108928 0.641096 0.362401)
(-0.0441007 0.51853 0.440127)
(-0.124921 0.383606 0.431234)
(-0.0291607 0.66344 0.45934)
(-0.0231737 0.600505 0.437725)
(0.012507 0.619549 0.462494)
(-0.0100023 0.514225 0.431349)
(-0.00929913 0.6171 0.448903)
(0.0431994 0.610585 0.476523)
(0.00142801 0.504156 0.450153)
(-0.0123953 0.489712 0.346854)
(-0.037361 0.463281 0.405476)
(-0.0318745 0.510992 0.34738)
(-0.0117524 0.446191 0.448545)
(0.0051229 0.369515 0.501662)
(-0.0758275 0.421776 0.5264)
(-0.067146 0.474563 0.4447)
(0.0205687 0.385947 0.218556)
(-0.00812518 0.406993 0.238382)
(-0.0138021 0.373172 0.242384)
(-0.0215396 0.428694 0.348757)
(0.00352056 0.45878 0.318253)
(-0.0282995 0.364079 0.287507)
(0.0266536 0.443056 0.276605)
(-0.000477709 0.334099 0.122775)
(0.0116779 0.320043 0.115246)
(0.00223893 0.342367 0.106625)
(-0.00709326 0.358417 0.158672)
(-0.0126904 0.33664 0.166547)
(-0.00087166 0.339627 0.145542)
(0.00896802 0.289753 0.158163)
(-0.0040574 0.30448 0.129048)
(-0.00628512 0.334264 0.110324)
(0.00504694 0.303803 -0.0229311)
(0.00834502 0.319151 -0.0769621)
(0.00420956 0.332631 -0.0596582)
(-0.0333623 0.297954 -0.00257722)
(-0.0120191 0.332584 0.00736728)
(-0.0207861 0.315301 -0.0477047)
(-0.0103578 0.331726 -0.038633)
(-0.00484975 0.715845 -0.263863)
(-0.00129139 0.709396 -0.300499)
(0.0156103 0.725153 -0.337969)
(0.00300367 0.773343 -0.333168)
(-0.000518737 0.791446 -0.285772)
(0.00365716 0.761284 -0.33111)
(0.0179883 0.755584 -0.382026)
(0.00180631 -0.064945 0.0355766)
(-0.00720366 -0.0346443 0.000158024)
(0.0226699 -0.0847793 0.0152662)
(-0.0229551 0.0526942 0.0333073)
(0.00620225 0.0416382 0.0203705)
(-0.00885933 0.0740994 -0.0564156)
(0.0409912 0.0225474 -0.0160241)
(-0.0119265 0.00570336 -0.00260588)
(0.0212327 0.0191358 0.0180991)
(-0.164766 0.0779192 -0.291626)
(-0.216866 0.271114 -0.238397)
(0.255802 -0.12426 -0.126544)
(0.429881 0.159406 0.371157)
(-0.184524 0.230745 -0.09615)
(0.390195 0.228976 0.551603)
(-0.428188 0.212377 -0.545803)
(-0.00305886 1.03175 -0.445896)
(-0.0279507 0.976835 -0.452762)
(-0.0282276 0.668523 -0.797289)
(-0.220481 0.14665 -0.065019)
(0.0929751 0.341885 -0.363651)
(-0.162596 0.680745 -0.256983)
(-0.119065 0.783669 -0.190301)
(-0.207963 0.573552 0.0717102)
(0.0626016 0.673843 -0.0592162)
(0.147866 -0.0271448 0.835501)
(0.0133213 -0.243607 -0.205926)
(0.473664 -0.0255601 0.508216)
(0.250317 0.225738 0.294142)
(-0.312962 0.184461 -0.0714793)
(0.098991 0.567132 -0.0489762)
(-0.058735 0.0860235 -0.171465)
(0.100342 0.468043 -0.17082)
(0.0348938 0.793225 -0.412685)
(0.194843 0.252798 0.226367)
(-0.0894447 0.411168 -2.02634)
(0.0474563 0.347726 -2.24412)
(-0.019004 0.626552 -1.63416)
(0.233736 0.506529 -2.45357)
(0.0645651 0.467934 -1.99938)
(0.103471 0.628998 -2.04868)
(0.191214 0.579044 -2.43274)
(-0.0233769 -2.11105 -0.0758182)
(-0.0215341 -2.1294 -0.0676387)
(0.0204365 -2.11906 -0.00444664)
(-0.017308 -2.10822 -0.0703095)
(-0.000243936 -2.15421 -0.0467804)
(0.023691 -2.12323 -0.0323895)
(0.00316685 -2.23768 0.00540384)
(0.0352393 -2.17131 -0.0208762)
(0.0640608 -2.14455 -0.091429)
(0.0157437 -1.45223 -2.01294)
(-0.00367963 -1.83925 -1.79447)
(-0.0287916 -1.50685 -1.98482)
(0.227915 -1.96661 -1.67402)
(0.104945 -1.78693 -1.93991)
(0.216116 -2.13621 -2.03727)
(0.124955 -1.78395 -2.08428)
(0.0189274 0.3436 -0.957101)
(-0.00563222 0.483894 -1.00402)
(0.0253539 0.399029 -0.933301)
(0.0222367 0.496737 -1.04206)
(0.00559509 0.682188 -1.0262)
(0.0181358 0.503086 -0.998872)
(0.0480062 0.378246 -1.00431)
(-0.04168 0.356909 -0.976873)
(-0.0272838 0.648211 -1.33149)
(-0.0120882 0.277272 -0.973407)
(0.0526359 0.604243 -1.18)
(0.0259929 0.448435 -1.11041)
(0.0367525 0.415235 -0.93244)
(-0.0207577 0.286615 -0.952586)
(-0.0823587 0.334916 -0.840729)
(-0.00312865 0.382112 -0.910023)
(0.00418712 0.24356 -0.65033)
(-0.0944526 0.16886 -0.479979)
(0.00874284 0.0638752 -0.403951)
(0.0746693 0.332331 -0.824293)
(-0.0424769 0.21833 -0.563612)
(0.0227833 0.384073 -0.558417)
(0.0455909 0.179962 -0.394738)
(0.00578811 0.228544 -0.500281)
(0.0223493 0.413771 -0.669762)
(0.00705336 -0.0207812 -0.0787877)
(0.00402685 0.0227826 -0.0139987)
(-0.0256931 -0.00107891 -0.0649611)
(-0.00739408 0.0221158 -0.0676938)
(-0.0157859 -0.000769813 -0.115175)
(-0.0482552 -0.0133737 -0.0850082)
(-0.0120061 0.0230969 -0.0973504)
(-0.00301875 0.0431064 0.0396071)
(0.011235 0.0297507 0.00241701)
(-0.012723 -0.0170042 0.00468261)
(0.0444373 0.051559 -0.00165472)
(0.0137809 0.0409525 0.00658146)
(-0.00578957 0.00993324 -0.0495125)
(-0.0128795 0.0214619 -0.0178421)
(-0.00102586 -0.0109438 -0.0384944)
(0.0406247 -0.00751031 0.00252037)
(0.05561 0.392422 -0.329723)
(0.00924329 0.284312 -0.495703)
(-0.0448577 0.305269 -0.131599)
(-0.109347 0.157315 -0.117432)
(0.0288511 0.211409 -0.0768113)
(-0.0220341 0.225756 -0.366707)
(0.09986 0.263083 -0.192993)
(-0.0177782 0.682001 -0.919248)
(0.0364536 0.775335 -1.05094)
(-0.0261888 0.681113 -0.889527)
(-0.0112217 0.7833 -0.961737)
(-0.0175205 0.588896 -0.598709)
(0.0333198 0.805439 -1.04407)
(-0.0229958 0.666908 -0.862716)
(-0.010978 -0.777203 -0.799308)
(-0.00682503 -0.578826 -0.52864)
(-0.0420985 -0.665469 -0.728463)
(-0.00889618 -0.855343 -0.416726)
(-0.0478841 -0.730722 -0.378024)
(-0.0215323 -0.897208 -0.543658)
(-0.084354 -0.810859 -0.500208)
(-0.0733864 -0.843992 -0.73235)
(-0.0393186 -0.963819 -0.740392)
(0.00844091 -1.699 -0.716966)
(0.0897835 -1.72989 -0.70097)
(0.00917986 -1.55275 -0.736097)
(0.00964575 -1.49194 -0.604279)
(0.0159026 -1.44608 -0.674246)
(0.18349 -1.66501 -0.77118)
(0.0975032 -1.56182 -0.742744)
(0.0434087 -2.13674 -0.326416)
(0.0149629 -1.92499 -0.383911)
(-0.0106476 -2.05653 -0.410671)
(-0.0348294 -2.26821 -0.258493)
(-0.0316435 -2.05139 -0.292632)
(0.0147619 -2.22761 -0.296874)
(-0.00853729 -2.10136 -0.342401)
(-0.00425557 -2.09378 -0.406809)
(0.0532488 -2.1492 -0.336899)
(0.0166993 -1.60836 -0.143954)
(-0.0805662 -1.72472 -0.0670176)
(-0.0142857 -1.69599 -0.0857529)
(0.0448095 -1.57495 -0.190601)
(0.0748459 -1.60308 -0.195098)
(-0.127821 -1.78111 -0.139497)
(-0.0198728 -1.68075 -0.152659)
(0.00159753 -2.27941 -0.0802667)
(0.00474257 -2.24967 -0.0736061)
(0.000327542 -2.25533 -0.0854352)
(-0.00391166 -2.30417 -0.106754)
(-0.0116674 -2.29776 -0.0996914)
(-0.018488 -2.28263 -0.103585)
(-0.00499342 -2.28445 -0.104561)
(-0.00240157 0.522683 0.0424505)
(0.0401664 0.542226 0.104521)
(0.015985 0.547726 0.0805812)
(0.00026455 0.535936 0.0466217)
(-0.00768971 0.560122 0.0365636)
(0.027579 0.551566 0.09345)
(0.00629598 0.565397 0.0724169)
(0.00999214 0.580186 0.0408884)
(-0.0199159 0.576299 0.0751824)
(-0.005457 0.590026 0.0993199)
(-0.00844439 0.603039 0.024496)
(0.0252014 0.599378 0.00649928)
(0.0364459 0.632637 0.0140406)
(0.002323 0.634321 0.0326553)
(-0.00252635 0.623412 -0.0141543)
(0.0253575 0.645447 0.00225435)
(0.00533867 0.647472 -0.00419792)
(-0.00518112 0.664399 -0.0252056)
(-0.00586706 0.640908 -0.0304415)
(0.00390123 0.650593 -0.0085515)
(-0.00909895 0.663964 -0.00937563)
(0.019187 0.700944 -0.0373278)
(0.00352964 0.696959 -0.0283958)
(6.65879e-05 0.688698 -0.0295405)
(0.0113593 0.706704 -0.0450835)
(-0.00215294 0.704121 -0.0323591)
(-0.0153335 0.715682 -0.0253447)
(0.00168583 0.716425 -0.0396094)
(-0.0122483 0.710415 -0.0290447)
(-0.000891609 0.711859 -0.044479)
(0.0285503 0.692715 0.0137741)
(0.00893088 0.693008 -0.00205903)
(-0.00175006 0.685418 -0.0256965)
(-0.00137076 0.720321 -0.00552979)
(0.00184827 0.711218 -0.00219554)
(0.000461279 0.713827 0.00794374)
(0.0112065 0.703044 0.0132775)
(0.00067837 0.412633 0.00943689)
(-0.0114618 0.676978 0.00307592)
(-0.0372539 0.663397 0.0304342)
(0.00598532 0.745277 -0.0255854)
(-0.00472906 0.62119 0.0059922)
(-0.00504353 0.760436 -0.00922423)
(-0.0365372 0.716674 0.0350708)
(0.00367303 0.701599 -0.0616276)
(0.0236513 0.730505 -0.0203603)
(-0.026409 0.723937 -0.0065108)
(-0.0175452 0.710489 0.0158306)
(0.0100832 0.719635 -0.0168829)
(0.00430654 0.731774 0.00436835)
(-0.0646476 0.733249 0.0590107)
(-0.00126227 0.734813 0.0394072)
(0.0134118 0.685644 -0.00493352)
(-0.00821987 0.670163 0.00783403)
(0.00047537 0.674054 0.0137006)
(0.00590254 0.725466 0.025278)
(0.0181733 0.688227 -0.0205263)
(-0.00887679 0.666152 -0.000267228)
(-0.00568504 0.7432 -0.000945642)
(0.00740043 0.741697 -0.0152952)
(0.00190532 0.74143 -0.0313298)
(-0.0241306 0.705138 0.0383587)
(-0.00151984 0.622435 0.00478514)
(-0.0134659 0.67726 0.0129976)
(-0.0327911 0.712655 0.0413158)
(0.00301912 0.681407 -0.00754423)
(-0.0347558 0.495372 -0.000789165)
(0.0306385 0.677949 -0.0497075)
(-0.0260931 0.647454 0.0361203)
(-0.000141713 0.405934 0.00660584)
(-0.0106661 0.650377 0.00701038)
(0.0237681 0.732556 -0.00696573)
(0.0704835 0.753387 -0.0448381)
(-0.0177939 0.709602 0.0459167)
(0.0572742 0.762651 -0.0409716)
(0.0101905 0.749308 -0.0182534)
(-0.0270106 0.71651 0.0367907)
(0.00232212 0.731643 0.010187)
(0.000475439 0.740893 0.0627798)
(-0.0116198 0.745085 0.0256506)
(0.00520644 0.736403 0.0429288)
(-0.00298875 0.72437 0.0127826)
(0.00359797 0.722637 0.0165957)
(-0.00821126 0.735163 -0.000158072)
(0.0218053 0.725528 -0.00753543)
(-0.0211141 0.759331 0.014881)
(0.00555833 0.741075 0.0105327)
(0.00531382 0.745634 -0.00606066)
(0.00200964 0.747196 -0.000490393)
(0.00282259 0.733829 0.0252227)
(0.0114414 0.736763 0.0178004)
(-0.00489716 0.738125 -0.00295921)
(-0.00565052 0.735161 0.0147402)
(-0.00263864 0.72441 0.0224776)
(-0.00555887 0.724615 0.0315374)
(-0.00647961 0.731317 0.031422)
(0.00428482 0.732883 0.0253133)
(0.0046253 0.740024 0.0217354)
(0.0159627 0.73373 0.0239559)
(0.0103245 0.739761 0.0414104)
(-0.0155854 0.745729 0.0255646)
(-0.000701737 0.736482 0.028471)
(-0.00444054 0.746133 0.0463737)
(-0.0137875 0.737804 0.0309792)
(-0.00527037 0.743147 0.031857)
(0.00944302 0.738712 0.0257108)
(-0.0193718 0.76056 0.00866868)
(0.000274008 0.753106 0.0542312)
(-0.00522388 0.755555 0.0334469)
(-0.0388692 0.730073 0.0664528)
(-0.0232506 0.745038 0.0808393)
(-0.00646895 0.748893 0.0493255)
(-0.0305816 0.755943 0.0486348)
(-0.000776417 0.685395 0.0570118)
(-0.00506759 0.695254 0.056213)
(0.00271561 0.672089 0.0599995)
(0.0146377 0.695338 0.095076)
(0.00275244 0.700429 0.0886348)
(0.00770308 0.673069 0.0824973)
(0.0017764 0.687526 0.0764183)
(-0.00415331 0.681588 0.059926)
(0.0011215 0.655873 0.0669476)
(-0.0355504 0.599703 0.11775)
(-0.00580211 0.590822 0.114559)
(-0.00666387 0.613601 0.0662567)
(0.0632955 0.664379 0.13893)
(0.00637678 0.664605 0.14125)
(0.0270905 0.632651 0.14528)
(-0.0649615 0.671995 0.196875)
(-0.00517064 0.630943 0.196917)
(0.00420493 0.667641 0.162436)
(0.0269382 0.671561 0.134647)
(0.00189284 0.629926 0.174694)
(0.0103432 0.648798 0.206244)
(0.00688306 0.675065 0.167649)
(0.0142476 0.669513 0.136246)
(-0.00509828 0.56866 0.139435)
(7.29875e-05 0.573299 0.123534)
(-0.0101714 0.603572 0.119085)
(0.0402271 0.586903 0.21609)
(0.0229748 0.601972 0.179986)
(0.0100712 0.618938 0.179239)
(0.0302521 0.597878 0.214022)
(-0.00450841 0.339637 0.160464)
(0.000793718 0.294785 0.130566)
(0.0061044 0.274546 0.156341)
(-0.0048759 0.370511 0.12943)
(0.000496839 0.373807 0.108833)
(-0.058333 0.229369 0.28441)
(0.0122802 0.141719 0.259815)
(0.00235875 0.224397 0.190987)
(0.0589822 0.194036 0.315408)
(-0.00314231 0.249654 0.276105)
(0.0592664 0.137833 0.292185)
(-0.0422911 0.264671 0.35428)
(0.0205749 0.0877767 0.223483)
(0.0641628 0.11277 0.226531)
(-0.000364183 -0.00324669 0.238523)
(-0.0408955 0.018761 0.283375)
(0.0186324 -0.00326873 0.263792)
(0.120282 0.157453 0.301656)
(0.00966136 0.120538 0.282417)
(-0.0278548 -0.448757 0.516056)
(-0.00100249 -0.459438 0.412184)
(-0.00585812 -0.53011 0.360148)
(-0.0162791 -0.578568 0.540197)
(0.0494209 -0.717711 0.379814)
(-0.00118664 -0.499016 0.448032)
(-0.00677311 -0.419595 0.631716)
(-0.0352852 -2.16193 1.01698)
(-0.0166403 -2.22283 0.881425)
(-0.0494312 -1.90972 1.16993)
(-0.0782097 -2.06468 0.862183)
(0.0602039 -1.50665 1.07239)
(-0.180064 -1.53809 0.793278)
(-0.233612 -2.20588 0.769014)
(-0.0157733 -0.0899092 1.0171)
(-0.00234281 0.378907 1.20772)
(0.0645962 -0.227015 1.0171)
(0.0906242 0.163563 1.2079)
(-0.0129256 0.778957 1.36026)
(0.0841374 0.281592 1.23731)
(-0.165672 0.890844 1.39476)
(-0.066533 0.736541 1.32357)
(0.0735583 0.052306 1.13895)
(0.108132 -1.29827 0.451521)
(0.00800683 -1.0963 0.752883)
(-0.0553835 -0.410677 1.08202)
(0.0751858 -0.636652 1.1096)
(0.0227199 -0.73602 0.738582)
(0.105933 -0.0223092 1.40312)
(-0.0875377 -0.0655681 1.30921)
(-0.198522 0.421621 -1.43939)
(-0.207577 0.601568 -1.28226)
(0.0322265 0.900752 -1.42742)
(0.170899 0.753557 -1.88616)
(0.12139 0.962891 -1.74433)
(-0.127482 0.654316 -1.38892)
(-0.144869 0.448199 -1.38795)
(0.100614 1.23867 -0.66519)
(-0.04399 1.2939 -0.613632)
(0.00347434 0.960274 -0.89196)
(-0.0129779 1.05042 -1.01613)
(-0.101681 1.21257 -0.828093)
(-0.00820252 0.759458 -1.37443)
(-0.0128104 0.782739 -1.20994)
(-0.0919359 0.934691 -0.825494)
(0.039236 0.987847 -0.649212)
(-0.0352226 1.14296 -0.428938)
(-0.0713254 1.11492 -0.31266)
(-0.148565 1.05728 -0.326857)
(-0.189772 0.889603 -0.533635)
(-0.027408 1.03827 -0.477756)
(0.0633498 1.39279 -1.00775)
(-0.06599 1.20848 -1.02278)
(-0.0037384 1.01745 -1.29978)
(0.00747635 0.938367 -1.08251)
(-0.0594862 0.815074 -1.13276)
(-0.0132889 0.744116 -1.31297)
(0.0113545 0.520302 -1.36655)
(-0.0370287 0.692232 -1.34386)
(-0.0733601 0.798235 -1.31795)
(-0.0419713 0.966389 -1.40049)
(0.364899 2.23836 -0.644996)
(-0.348629 2.41895 -0.317899)
(-0.0602468 1.35185 -1.11017)
(-0.22854 1.27959 -0.968132)
(-0.0512693 2.17494 -0.527906)
(-1.03968 2.60337 0.197769)
(0.0581578 3.70948 -0.297384)
(0.38921 3.40623 -0.311017)
(-0.0505742 3.6787 -0.0653839)
(0.0516065 3.76889 -0.0587893)
(0.0519428 3.85266 0.141976)
(-0.0286128 3.45051 -0.114947)
(-0.185799 3.69402 0.105919)
(0.142094 3.52617 -0.359581)
(-0.0981296 3.71261 -0.225026)
(0.0275574 1.78025 -1.20524)
(-0.185547 2.07229 -1.20621)
(-0.0715901 2.85002 -0.81386)
(0.240732 3.14887 -0.185897)
(0.104846 3.21638 -0.337996)
(-0.0955844 1.93199 -1.19243)
(-0.292445 2.0591 -1.31457)
(-0.0397969 2.79921 -0.616076)
(0.0354534 2.94195 -0.557481)
(0.114718 3.26104 -0.219931)
(0.269974 2.57257 0.00660888)
(0.0727984 1.69862 -0.208624)
(-0.0813838 2.33068 0.207341)
(-0.367928 2.41791 -0.783786)
(-0.236341 3.19446 -0.413927)
(-0.225025 3.09378 -0.522464)
(0.391104 0.966988 0.042905)
(-0.037454 0.799247 -0.167574)
(0.28045 1.11124 0.0891092)
(-0.0780373 1.60539 -0.393027)
(0.166616 1.84981 -0.518994)
(0.0780205 1.80351 -0.755288)
(-0.0763614 0.619677 0.115356)
(-0.00462643 0.882037 0.247197)
(-0.0620949 0.663093 -0.0201322)
(-0.201567 0.583569 -0.0306898)
(-0.265815 0.283596 -0.205682)
(-0.0541087 0.393882 -0.717152)
(0.0237151 0.403959 -0.874859)
(0.0407854 0.604018 -1.00008)
(-0.111168 0.381121 -0.517162)
(-0.111764 0.310587 -0.719954)
(-0.0849423 0.58618 -0.580163)
(-0.0503453 0.575197 -0.663737)
(-0.014383 0.515258 -0.090304)
(0.0286776 0.653855 -0.100971)
(-0.222693 0.543139 -0.271053)
(-0.33138 0.40949 -0.528773)
(-0.243157 0.263931 -0.449449)
(-0.0431714 0.917604 -0.82734)
(-0.136197 0.024205 -0.568292)
(0.0183344 0.133221 -0.280035)
(0.0658633 0.382367 -0.722783)
(0.00793126 0.195697 -0.626583)
(0.0137591 0.0992206 -0.641616)
(0.089621 0.405497 -0.706414)
(0.00730982 0.193168 -0.622832)
(-0.0452268 0.127397 -0.526648)
(0.0529494 0.321404 -0.666658)
(0.0274033 0.0335749 -0.395046)
(0.0183565 0.0328995 -0.421686)
(0.0419961 0.370257 -0.55637)
(-0.0271144 0.277541 -0.637985)
(-0.0692382 0.387772 -0.550127)
(-0.591791 -0.064181 -0.150957)
(-0.684916 -0.601447 -0.64219)
(0.340899 0.120549 0.416997)
(0.484261 -0.102287 0.406581)
(-0.269782 0.179374 -0.0571204)
(-0.940496 -0.317301 -1.03328)
(-0.356658 -0.312794 -0.419905)
(0.00269668 0.0537973 -0.036699)
(-0.0104607 0.054342 -0.0284404)
(0.0165141 0.058922 -0.00120279)
(0.0237586 0.342387 -0.556185)
(0.0837143 0.206833 -0.508821)
(-0.0179059 0.0837415 -0.393522)
(0.0125264 -0.13753 -0.51487)
(-0.0195349 0.000569691 -0.700978)
(0.0349037 0.0869042 -0.628732)
(-0.0288702 0.260214 -0.65469)
(0.00764699 -0.0301091 -0.175507)
(0.0581486 -0.0576563 -0.213989)
(-0.00841482 0.106572 -0.247616)
(0.0784971 0.150257 -0.336234)
(-0.0301147 0.0164884 -0.282001)
(-0.0326856 0.212239 -0.309128)
(0.0631005 0.223407 -0.271129)
(-0.0106943 0.0631458 -0.300417)
(0.252426 0.342011 -0.506787)
(-0.0266199 0.012723 -0.0996572)
(-0.0253892 0.0063291 -0.0993311)
(-0.0581535 0.0306961 -0.115985)
(0.0293482 0.16324 -0.900244)
(0.0821365 0.0257919 -0.842586)
(0.0211766 -0.0447264 -0.719461)
(-0.130674 0.315354 -1.05299)
(-0.158905 0.0586128 -1.08102)
(0.0465189 -0.0861217 -0.75387)
(-0.077947 -0.00764259 -0.931632)
(-0.170041 0.1718 -1.051)
(-0.172868 -0.0396305 -1.04526)
(-0.0769843 0.0398141 -0.420857)
(-0.0336907 0.101816 -0.461235)
(-0.0573152 -0.0161334 -0.445381)
(-0.00913128 0.221938 -0.553299)
(0.0546062 0.113101 -0.624984)
(0.0264843 0.0407662 -0.618838)
(-0.0217665 0.217096 -0.632408)
(0.0435095 0.0762486 -0.374979)
(-0.00626511 0.154093 -0.440248)
(0.0937527 0.140348 -0.485617)
(-0.042477 -0.0300513 -1.04226)
(-0.0226102 0.025665 -0.919783)
(0.00791585 0.0902295 -0.813521)
(0.00571028 0.00401701 -0.946359)
(-0.019504 0.04004 -0.86545)
(-0.0513759 0.119482 -0.945365)
(0.0116218 0.046978 -0.890967)
(-0.0890697 0.180131 -0.682773)
(-0.0926096 0.275629 -0.685669)
(0.0127835 0.0146669 -0.528359)
(-0.0449829 0.0180257 -0.825132)
(-0.152474 0.191283 -1.03036)
(-0.106852 0.249191 -0.958643)
(-0.111387 0.116177 -0.861973)
(0.0217053 0.559309 -0.977072)
(0.0146594 0.70046 -0.751475)
(0.0326598 0.69742 -0.911515)
(-0.0716117 0.35621 -0.702587)
(-0.0468449 0.474116 -0.647562)
(-0.035822 0.572352 -0.867334)
(-0.028697 0.398467 -0.917904)
(-0.0744264 0.523098 -1.02488)
(-0.084676 0.73462 -1.10348)
(0.0258671 0.286274 -0.986658)
(0.0354117 0.439004 -1.34949)
(-0.0471312 0.256396 -1.18006)
(-0.0289493 0.852744 -1.28543)
(-0.076864 0.547993 -1.19698)
(-0.02586 0.647548 -1.67498)
(-0.0587916 0.713649 -1.36661)
(-0.00268089 0.760847 -1.1629)
(-0.058713 0.559432 -1.29916)
(-0.114749 0.590339 -1.1326)
(0.00884084 0.452591 -1.22465)
(-0.0637649 0.606845 -1.08871)
(-0.110723 1.17103 -0.387435)
(-0.00622734 1.16519 -0.861266)
(-0.0216675 1.20171 -0.662384)
(-0.0355778 1.5555 -0.838932)
(0.0433003 1.40483 -0.882525)
(0.0850273 1.39981 -0.682039)
(-0.112118 1.30126 -0.565552)
(0.0165713 0.889917 -0.597748)
(0.0116792 0.845191 -0.617069)
(-0.000714026 0.837549 -0.747932)
(0.0174827 0.642424 -0.664603)
(0.0195704 0.732829 -0.648179)
(0.0220697 0.712997 -0.819146)
(-0.00514686 0.536805 -0.771906)
(0.00746182 0.181595 -0.482506)
(-0.0514769 0.185504 -0.5729)
(-0.0404604 0.249075 -0.467979)
(0.11314 -0.755386 -0.621846)
(-0.0699855 -0.229857 -0.787373)
(0.239603 -0.516741 -0.0597193)
(0.134633 -0.19513 -0.399032)
(0.00588526 0.196266 -0.415607)
(-0.0358421 -0.0323575 -0.480061)
(-0.0115368 -0.771643 0.487996)
(0.07429 -0.773405 0.360879)
(0.0325761 -0.0538673 -0.262466)
(-0.0992962 0.0950152 -0.330723)
(0.118305 -0.0794808 -0.249925)
(-0.311119 -0.678277 0.573187)
(0.259581 -0.501965 0.488661)
(-0.103439 -0.967623 0.431588)
(-0.0726691 -0.613899 0.31768)
(-0.00571611 -1.53889 -0.175775)
(-0.00203561 -1.44804 -0.192494)
(0.0105008 -1.44953 -0.2076)
(0.0336552 -1.61673 -0.239779)
(0.0123772 -1.48562 -0.253962)
(0.027951 -1.59062 -0.264959)
(-0.0205411 -1.56994 -0.328985)
(-0.000201044 0.07401 -0.163315)
(-0.00483659 0.130483 -0.171472)
(-0.0254349 0.0876795 -0.22673)
(-0.00890992 0.167588 -0.149377)
(-0.0172662 0.175742 -0.161283)
(-0.0244437 0.140802 -0.209365)
(-0.0218284 0.136206 -0.172722)
(0.0230863 -0.00615951 -0.128105)
(0.0128987 -0.0384789 -0.143838)
(0.0031239 -0.0334726 -0.0481181)
(0.00204097 0.045968 -0.0965783)
(-0.000258872 0.00111038 -0.119885)
(0.00290222 0.0342124 -0.0250991)
(-0.0197265 0.0511525 -0.0431509)
(0.0169517 0.145328 -0.0169773)
(0.00450398 0.169759 -0.0134891)
(0.00160671 0.140887 -0.0281974)
(-0.00479073 0.160674 -0.108758)
(0.0149292 0.193326 -0.0872969)
(0.00382138 0.544942 -0.118764)
(0.00479228 0.555048 -0.114209)
(-0.00341773 0.589137 -0.110452)
(-0.009757 0.643363 -0.117281)
(0.00809953 0.590759 -0.146264)
(-0.00363241 0.579992 -0.138877)
(-0.00253606 0.63852 -0.120524)
(-0.00172056 0.677233 -0.105577)
(0.00299752 0.691351 -0.115931)
(0.00893744 0.665862 -0.102513)
(-0.000291935 0.721951 -0.103695)
(0.00589774 0.714433 -0.127031)
(0.00558234 0.683892 -0.116613)
(-0.00517012 0.697354 -0.10297)
(0.00240869 0.788342 -0.0723133)
(0.00720281 0.780868 -0.0819135)
(-0.00170509 0.748501 -0.0966482)
(0.0232652 0.799008 -0.0423302)
(-0.0277569 0.782245 -0.0581614)
(-0.00480693 0.76357 -0.0646996)
(0.0338239 0.777406 -0.0355564)
(-0.0117505 0.437474 0.0101282)
(-0.0347718 0.702281 0.0205441)
(-0.0557403 0.696454 0.0371676)
(0.0116231 0.797272 -0.0147006)
(-0.00766405 0.659823 0.00129407)
(-0.0188544 0.802852 0.00646835)
(-0.0458027 0.747525 0.0365455)
(-0.00179954 0.722741 -0.0589612)
(0.042196 0.746677 -0.0274813)
(0.00354631 0.73886 -0.0147672)
(-0.00141215 0.751052 -0.0296325)
(-0.0251153 0.745051 0.0112654)
(0.0140628 0.76132 -0.0194804)
(-0.0369703 0.73749 0.0299378)
(0.0216392 0.684826 -0.00114391)
(-0.00698027 0.488881 -0.00317437)
(-0.0198553 0.741692 -0.0644546)
(0.0149138 0.639644 0.0149414)
(-0.0130648 0.694103 -0.0120484)
(-0.0126784 0.724936 -0.0342239)
(0.0336619 0.726082 0.0169273)
(0.0574795 0.762254 0.0451111)
(-0.00719456 0.682203 -0.00479635)
(0.000954766 0.664793 -0.0018655)
(0.0144787 0.714431 0.00608321)
(-0.00758043 0.729176 -0.0141225)
(-0.00674469 0.722262 -0.0110271)
(-0.0409659 0.504426 0.00763837)
(-0.0137238 0.707429 0.0072762)
(0.0063868 0.798703 0.0461871)
(0.0148177 0.683191 0.0141488)
(0.01275 0.710114 0.0021499)
(0.0253399 0.729843 -0.047039)
(-0.00769172 0.703154 -0.00155554)
(0.028159 0.736471 -0.0294933)
(-0.0491394 0.712754 0.0340689)
(0.00393426 0.743203 -0.0419647)
(-0.0231199 0.674948 0.0118639)
(0.008961 0.681396 -0.0144266)
(0.00340185 0.681811 -0.0439965)
(0.00280726 0.683359 -0.0076367)
(0.00421068 0.70825 -0.00257731)
(-0.0364055 0.718314 0.0387107)
(-0.00871516 0.707011 0.0231583)
(0.0366456 0.709228 0.00157364)
(0.00119231 0.736039 0.0237266)
(-0.0377553 0.746023 0.0656482)
(0.00407958 0.70706 -0.0177351)