/*--------------------------------*- C++ -*----------------------------------*\
| =========                 |                                                 |
| \\      /  F ield         | OpenFOAM: The Open Source CFD Toolbox           |
|  \\    /   O peration     | Version:  v2012                                 |
|   \\  /    A nd           | Website:  www.openfoam.com                      |
|    \\/     M anipulation  |                                                 |
\*---------------------------------------------------------------------------*/
FoamFile
{
    version     2.0;
    format      ascii;
    class       volScalarField;
    location    "0.15";
    object      alpha.water;
}
// * * * * * * * * * * * * * * * * * * * * * * * * * * * * * * * * * * * * * //

dimensions      [0 0 0 0 0 0 0];


internalField   nonuniform List<scalar> 
6576
(
1
1
1
1
1
1
1
1
1
1
1
1
1
1
1
1
1
1
1
1
1
1
1
1
1
1
1
1
1
1
1
1
1
1
1
1
1
1
1
1
1
1
1
0.0407385
0.0240115
0.0203927
0.0195681
0.0387219
0.0218576
0.020436
0.0196233
0.019653
9.97335e-37
3.00152e-36
8.82937e-37
2.05622e-36
1.1212e-36
9.95881e-38
1.66985e-37
1.25804e-32
1.59025e-32
1.69135e-32
6.22019e-32
2.65218e-32
2.38917e-32
4.02378e-32
9.6118e-29
1.12484e-28
2.58201e-29
5.9708e-29
3.98787e-29
2.01698e-29
1.7871e-29
0.000784827
0.00031437
0.0003367
0.000677841
0.000696812
0.00100985
0.000655377
0.000368259
0.0011434
0.000657199
0.00032157
0.000571171
0.000411429
0.00020659
0.000754952
0.000574413
0.000193327
0.000188213
0.000367456
0.000160291
0.00168278
0.00349665
0.00122034
0.00746901
0.00457328
0.00113845
0.0231794
0.0102398
0.999996
0.999938
0.999997
0.999994
0.999999
0.999971
0.999689
0.998975
0.998871
0.996945
0.982548
0.954608
0.99684
1.82977e-06
1.18289e-44
3.49165e-07
9.99357e-10
6.48272e-11
1.85571e-07
2.56129e-07
0.210039
0.762258
0.764393
0.964358
0.927335
0.986901
0.913963
4.32755e-10
3.95662e-09
6.8015e-48
1.81096e-05
4.28999e-06
4.59128e-06
1.73029e-06
1.10204e-14
1.67813e-15
4.97777e-15
1.53114e-14
1.77958e-14
2.42271e-15
7.14649e-15
4.19134e-13
9.42133e-13
1.28756e-13
1.28156e-12
1.43971e-12
2.02486e-13
6.02357e-13
1.15943e-13
1.29284e-13
6.59268e-14
2.51953e-13
7.81254e-14
3.77118e-14
1.61096e-13
9.58041e-13
1.03898e-11
3.19081e-11
2.16883e-12
1.00959e-11
4.90243e-11
5.98766e-11
3.49056e-11
4.81893e-12
3.9861e-12
1.83276e-12
3.70793e-12
8.78236e-12
1.67769e-12
6.48925e-13
5.29552e-12
3.52663e-11
1.6965e-10
6.34325e-10
6.64473e-11
1.61997e-10
9.2113e-10
7.54768e-10
3.47424e-10
1.67842e-10
6.94188e-09
6.11079e-08
9.46185e-08
1.36024e-08
4.2533e-08
7.49077e-08
5.6202e-08
2.86938e-08
5.56394e-08
1.49468e-08
2.29674e-08
8.38934e-09
2.18968e-09
2.87029e-08
1.54717e-09
1.85907e-08
5.15967e-07
7.61486e-08
3.39805e-07
4.07069e-07
5.51692e-07
1.20061e-07
1.94486e-07
2.35635e-06
1.38634e-05
4.34008e-06
1.82431e-06
9.50024e-07
6.95916e-06
4.78297e-06
3.82662e-05
2.95005e-05
1.249e-05
1.10284e-05
1.10454e-05
2.7829e-05
1.10863e-05
1.20923e-08
6.1487e-08
2.32486e-07
1.38012e-09
1.57255e-09
4.79242e-09
3.30324e-09
4.36624e-10
8.77662e-10
1.94587e-09
1.95075e-09
1.22635e-09
2.43873e-09
2.83296e-09
1.01824e-09
1.05565e-09
5.91173e-10
1.44748e-09
1.75909e-09
2.70592e-09
1.68721e-09
1.74655e-11
4.56878e-11
7.69405e-11
4.378e-11
2.48895e-11
5.42485e-11
8.04264e-12
5.89304e-13
1.41949e-12
5.13244e-13
9.066e-13
2.01871e-12
1.04097e-12
3.02864e-12
1.37269e-12
5.52037e-13
1.92833e-14
5.44635e-14
2.20068e-14
5.94448e-14
3.33238e-14
1.062e-13
5.45631e-14
2.09666e-24
7.25246e-24
1.26082e-23
6.03634e-24
2.90131e-24
1.02407e-23
1.80119e-23
0.999386
0.999497
0.998644
0.999804
0.994821
0.919667
0.995555
0.95685
0.996913
0.00449825
0.00450397
0.00450749
0.00450249
0.0044992
0.00570329
0.00450309
0.006516
0.00526227
0.00531905
0.00865462
0.00540448
0.00865751
0.00865753
0.00865747
0.00728993
0.00560598
0.00449906
0.00450052
0.00659396
0.0068535
0.00454901
0.00466499
0.00457199
0.00454016
0.00454345
5.69666e-12
1.20535e-11
9.35465e-13
5.87908e-12
2.45856e-12
4.19722e-13
1.07335e-12
0.0549538
0.0228201
0.00955397
0.01852
0.0114465
0.0101567
0.00973499
0.00703395
0.00895606
2.61575e-08
1.34021e-07
7.62649e-08
4.13683e-08
1.46681e-08
1.35927e-07
3.84833e-08
0.000781806
0.00102713
0.000837066
0.000439019
0.000439408
0.000774148
0.000579742
0.000132626
2.75538e-05
0.000298028
2.43786e-05
5.23357e-05
9.11642e-05
0.000207646
0.000148989
0.000131979
0.00208391
0.0229843
0.00981973
0.000819752
0.013698
0.00262879
0.00396475
0.00450724
0.00038571
0.999232
0.997797
0.995239
0.998672
0.997157
0.960342
0.98732
0.99979
0.99406
0.999823
0.999862
0.998706
0.898099
0.980711
0.978667
0.999056
0.014375
0.0143596
0.014375
0.0425532
0.027368
0.0314002
0.0159978
0.00742463
0.00328866
0.00806605
0.0106302
0.0153423
0.00668365
0.00579817
1.86361e-07
2.50874e-07
7.11448e-08
1.35193e-06
5.37527e-07
9.67087e-07
2.36396e-07
8.08064e-08
4.47309e-07
2.03291e-05
4.2291e-05
2.80679e-05
0.00010717
6.72387e-05
0.000141845
4.49043e-05
0.000175345
0.00041301
7.93565e-05
0.000909115
0.000487996
0.000312208
0.00030124
0.000167609
0.000169571
0.0491077
0.114344
0.360851
0.1188
0.0397391
0.0233219
0.106016
0.953633
0.953597
0.953633
0.901284
0.953597
0.923596
0.953564
2.7744e-19
3.70623e-18
2.11287e-18
5.91101e-19
2.2905e-19
5.45993e-18
2.5479e-18
4.65109e-21
3.87855e-21
2.93079e-21
2.91122e-21
2.69757e-21
1.60467e-21
1.97527e-21
3.84792e-24
5.18642e-24
4.26585e-24
4.55369e-24
7.56591e-24
6.47333e-24
5.15902e-24
1.73032e-31
1.11616e-31
4.32659e-32
1.63423e-31
1.07302e-31
7.10954e-32
2.17962e-31
6.69636e-32
1.48101e-31
4.60445e-34
1.35664e-34
2.62654e-36
2.2996e-36
5.3003e-36
1.06689e-34
2.57029e-34
1.98617e-39
9.39754e-39
4.17635e-39
2.96145e-39
1.59452e-39
6.82429e-39
3.3635e-39
5.75441e-39
1.62533e-37
2.39811e-38
9.26212e-39
2.13089e-38
5.62765e-37
7.81832e-39
9.99523e-39
2.26808e-38
5.12911e-39
1.04523e-38
1.49263e-38
2.60514e-38
7.37683e-39
3.31091e-40
1.0537e-40
6.28823e-41
1.24957e-40
4.59451e-41
3.112e-39
3.93341e-39
3.03619e-38
8.03816e-39
4.49547e-38
1.74851e-40
7.35489e-41
5.33255e-40
2.78575e-32
7.06158e-33
1.60027e-32
1.02827e-32
1.92009e-31
3.34498e-31
1.65636e-32
8.83072e-35
1.15744e-34
1.70503e-34
1.01319e-34
4.7168e-34
1.45372e-34
4.47475e-34
1.07491e-34
5.70442e-32
1.86693e-34
9.99446e-31
9.8638e-31
9.63645e-31
1.90903e-29
9.83712e-29
1.18782e-29
2.48625e-29
2.63137e-29
8.79833e-30
5.80639e-28
8.05358e-30
5.56661e-28
2.74651e-27
2.70483e-27
9.48044e-29
6.58996e-29
4.31532e-27
7.88108e-30
1.61863e-25
5.05156e-26
5.65683e-24
5.81499e-25
8.00282e-26
5.666e-24
2.3444e-23
1.22375e-20
1.6179e-22
2.7014e-22
8.70135e-20
9.48411e-20
1.15323e-21
7.08266e-22
2.56207e-22
6.8891e-22
5.62762e-18
6.17206e-18
6.25815e-18
7.755e-18
5.8147e-18
7.76022e-18
4.34701e-18
2.57669e-15
1.75118e-15
1.04148e-15
1.91932e-15
3.18159e-15
2.05421e-15
1.1583e-15
1.6071e-16
1.81944e-16
1.19525e-16
1.68796e-15
1.1237e-15
8.00551e-16
1.26506e-15
2.6075e-12
4.88325e-12
4.05791e-12
7.90151e-13
2.1468e-13
1.51275e-10
2.87022e-10
2.35297e-10
2.05703e-10
1.54651e-10
2.2539e-10
1.07429e-10
2.23822e-09
2.43978e-09
2.39128e-09
6.28569e-09
9.56924e-09
1.55966e-08
8.2672e-09
3.54144e-07
8.39723e-07
4.88745e-07
1.28141e-06
1.89131e-06
4.59809e-06
1.68708e-06
1.24582e-06
2.41402e-06
1.79457e-06
1.64464e-06
5.96941e-07
2.37272e-07
1.10905e-06
4.97471e-08
3.05979e-08
3.51134e-08
7.00572e-08
3.49869e-08
7.64945e-08
3.12001e-08
2.22518e-08
6.02656e-08
8.31374e-08
1.48533e-07
1.23973e-07
4.0994e-08
4.07944e-08
2.56455e-08
4.91186e-08
1.16832e-14
3.65295e-15
2.07325e-15
1.45232e-14
3.35049e-15
3.44321e-15
2.2678e-14
2.34899e-15
8.32979e-16
4.31039e-15
9.4839e-15
1.08233e-15
3.5925e-14
5.31842e-15
6.47439e-12
2.00857e-12
9.55529e-13
2.31166e-13
2.99486e-13
1.29706e-12
5.49543e-13
1.04529e-09
4.23588e-10
1.37696e-09
3.92931e-09
9.87246e-10
1.22999e-08
3.35237e-09
2.82264e-06
6.96736e-06
1.01198e-06
2.34372e-06
1.0251e-06
3.85331e-05
9.67783e-06
1.08452e-05
2.74366e-06
2.14393e-06
3.41773e-06
4.10413e-06
2.16225e-05
6.03118e-06
1.31355e-05
5.32282e-06
1.3229e-05
4.64635e-06
0.00113533
0.00251845
0.000513426
0.000231354
0.000239251
0.000699443
0.00119624
0.000335608
0.00051972
0.000116
0.000164912
0.000699927
0.000254735
0.000454354
0.000359635
0.000155741
0.008395
0.00864356
0.00319955
0.00476508
0.00318127
0.00414637
0.00539162
0.00539145
0.00539054
0.00857248
0.0086491
9.7301e-05
3.2918e-05
6.6453e-05
0.0008031
2.08778e-05
0.000288229
9.28948e-05
0.0079324
0.00858971
0.00865747
0.00368061
0.00638331
0.00453666
0.00452226
0.00496592
0.00142688
0.00239177
0.00345641
0.00399297
0.00276785
0.00760061
0.00942968
0.00333691
0.00762594
0.00159151
0.00111535
0.000310562
0.0162536
0.0090934
0.00760229
0.00904813
0.00761521
0.031194
0.0161443
0.999893
0.999851
0.999845
0.961438
0.947768
0.98316
0.99249
0.993247
0.987773
0.997489
0.976533
0.978502
0.939605
0.991307
0.997197
0.955279
0.814968
0.955739
0.932805
0.9969
0.997628
0.997626
0.999961
0.999936
0.999489
0.999927
0.999762
0.993499
0.998468
0.997291
0.998606
0.996722
0.999614
0.99914
0.999817
0.998596
0.998469
0.997591
0.987031
0.99997
0.996403
0.999999
0.999981
0.999999
0.999991
0.999872
0.999934
0.999801
0.988821
0.852035
0.989402
0.9988
0.995561
0.934358
0.99811
0.0178154
0.00900492
0.00893374
0.0810328
0.00952906
0.0324555
0.0334268
0.0154725
0.00566975
0.00584731
0.00593107
0.0078877
0.00720135
0.00858026
0.000369721
0.000200813
4.01696e-05
1.41124e-05
1.76069e-05
1.38976e-05
1.99681e-05
9.48619e-07
4.80708e-07
3.22918e-07
5.51849e-06
2.15996e-06
1.79498e-06
2.18769e-06
5.60769e-06
6.43963e-06
8.72467e-06
1.36509e-05
9.23883e-06
1.44543e-05
3.22889e-05
6.05628e-06
1.26019e-05
1.09785e-05
3.25429e-05
5.11292e-05
2.10784e-05
3.42694e-05
1.69533e-05
1.1793e-05
1.82178e-06
3.88823e-06
1.1305e-06
2.45574e-06
1.10991e-06
4.38656e-06
1.79143e-06
5.79842e-06
2.3704e-06
0.00160985
0.000771402
0.00057338
0.000659636
0.00043485
0.000692114
0.000353743
1.29704e-11
9.77364e-12
1.41257e-11
5.87812e-12
3.05726e-12
5.71404e-12
9.43571e-12
2.57526e-10
6.27658e-10
5.86054e-10
1.5637e-10
5.01444e-10
4.76246e-10
3.54873e-10
2.46655e-11
1.03192e-11
2.7593e-12
5.26713e-12
2.01114e-12
4.04206e-22
2.84288e-22
1.51786e-22
4.60073e-22
1.59231e-21
6.28916e-22
1.6117e-22
1.04679e-26
2.1652e-26
1.36115e-26
3.37165e-26
1.09181e-25
4.07153e-26
2.36525e-26
8.99686e-30
7.99654e-29
5.13821e-30
1.02324e-29
1.08373e-30
5.25292e-31
1.27195e-30
3.84091e-36
8.99065e-35
9.7626e-36
2.54659e-36
7.46372e-37
2.32833e-35
3.55339e-36
7.68375e-33
1.69983e-33
7.18619e-34
1.2742e-31
1.3826e-32
1.49374e-32
1.49477e-33
3.36465e-37
2.77155e-40
3.03624e-36
7.20232e-40
7.65064e-39
5.37229e-35
1.13741e-35
1.16774e-36
3.62412e-38
1.65079e-38
3.05505e-36
1.96021e-35
1.83412e-34
8.46232e-39
1.40561e-38
3.50238e-38
1.89929e-37
1.30571e-37
3.27348e-38
7.60892e-38
7.8556e-38
1.36136e-39
1.96577e-39
9.37084e-40
1.24377e-32
8.69513e-33
2.50548e-32
4.72173e-33
6.85398e-33
1.31496e-32
5.77873e-33
8.71655e-31
1.33e-30
3.86245e-31
3.48787e-31
2.48111e-31
6.40322e-31
4.43717e-31
1.37976e-27
1.72226e-27
1.4373e-26
3.09959e-27
9.46258e-28
1.70551e-27
3.41647e-26
3.68828e-26
5.44605e-26
1.13107e-25
5.58296e-25
5.70058e-25
4.23877e-25
6.58604e-23
1.3389e-22
2.50235e-23
4.50262e-24
7.16089e-21
6.33693e-22
1.36289e-19
7.24455e-22
5.15673e-19
3.19112e-20
8.59835e-18
3.44113e-17
8.13801e-18
1.08945e-16
3.12751e-17
4.84967e-17
2.90581e-15
1.1121e-15
2.34908e-14
7.07398e-15
1.29418e-15
2.16654e-14
7.69269e-14
2.96158e-12
2.20007e-12
2.9521e-12
5.13017e-12
1.57891e-12
2.0483e-12
6.99966e-12
5.61378e-15
3.39894e-15
5.41766e-14
1.17034e-12
5.53455e-13
8.70234e-15
1.03528e-14
1.37699e-13
1.04491e-13
7.77279e-14
5.48705e-14
5.69795e-14
6.11928e-14
3.11757e-14
4.64004e-14
1.48719e-13
1.83896e-09
2.84632e-09
1.05219e-09
1.52561e-09
2.37791e-09
1.47664e-09
1.47606e-09
1.45894e-08
1.35406e-08
2.27491e-08
1.98994e-08
2.91196e-08
5.0081e-07
3.1466e-07
4.63394e-07
7.92627e-07
6.40431e-07
2.09193e-06
1.12417e-06
1.16094e-06
2.50573e-06
2.21027e-06
3.83424e-07
1.83854e-07
3.88443e-07
4.43069e-07
6.77786e-06
3.97244e-06
1.15377e-05
7.99923e-06
1.15394e-05
7.12442e-06
3.82986e-06
5.30272e-06
1.30931e-06
1.26907e-06
2.43437e-06
3.06981e-12
1.87356e-11
3.19314e-11
6.19293e-12
3.11502e-12
2.18027e-11
3.88639e-11
6.34165e-12
6.99093e-12
8.69166e-12
1.16695e-11
1.25271e-11
9.42125e-12
9.85009e-12
2.37849e-13
1.06638e-13
1.16087e-13
2.29531e-13
3.06722e-14
8.31526e-14
1.00169e-14
1.05056e-14
2.06537e-13
2.65143e-17
1.82688e-17
7.14063e-17
3.55643e-17
7.75294e-17
6.34196e-17
1.48814e-17
4.60288e-11
9.32488e-12
5.52348e-12
3.54676e-12
1.19753e-11
1.20391e-12
2.32461e-12
3.19609e-09
4.2077e-09
2.02428e-08
4.8011e-10
7.839e-10
7.11305e-10
1.7133e-09
9.38338e-10
4.39414e-09
2.39443e-10
4.10151e-10
4.90394e-09
1.07804e-09
1.87347e-09
8.41591e-10
3.43116e-10
1.47924e-07
1.56595e-07
2.59383e-07
2.17212e-07
6.07124e-07
4.07163e-07
1.66193e-06
4.51513e-08
7.91708e-08
4.55772e-08
5.26149e-06
4.85211e-05
1.55369e-05
0.000334018
0.00149897
0.000672887
0.000984986
0.000616464
0.000830072
0.00113018
0.00145732
0.00120167
0.00051588
0.999686
0.999992
0.999857
0.993376
0.977037
0.995586
0.964775
0.787653
0.702469
0.990224
0.999996
0.999867
0.999307
0.994283
0.997362
0.992452
0.985189
0.996781
0.967912
0.992791
0.998852
0.999631
0.99777
0.99999
0.999976
0.999993
0.999266
0.999721
0.999982
0.999862
0.982132
0.993609
0.995727
0.998011
0.99801
0.938443
0.00435548
0.0147816
0.0340395
0.0558692
0.0857063
0.0484304
0.0228058
0.0219062
0.0221196
0.0142409
0.0142409
0.0300564
0.0150866
0.0327861
0.000390612
0.000434044
0.000342386
0.000890849
0.000312368
0.000429198
0.0011157
0.00019654
0.000271004
0.000199833
0.00049317
0.000369313
0.000551027
0.000274903
0.118186
0.0527651
0.0629176
0.0852796
0.79667
0.0720088
0.262879
0.811901
0.904936
0.869472
0.872019
0.908173
0.907404
0.90294
0.00283925
0.0104907
0.00677796
0.0282572
0.0176695
0.00791901
0.0281182
0.000903004
0.000702005
0.000725659
0.000731856
0.000845792
0.000727337
0.000727337
0.000379178
0.000183719
0.000431242
0.000238885
0.000183048
0.000143184
0.000141037
5.80616e-15
6.98636e-15
6.87977e-15
4.14245e-15
3.11251e-15
4.93733e-15
5.61305e-15
6.8058e-22
2.89368e-20
1.24387e-20
7.32964e-22
1.25081e-21
3.71721e-20
1.03565e-20
3.62276e-24
2.93754e-24
3.6439e-24
4.68745e-24
9.01031e-24
4.70911e-24
6.47425e-24
1.30681e-27
3.17808e-27
2.09915e-27
1.08419e-26
3.33336e-26
1.02608e-26
4.39688e-27
1.66184e-25
8.10743e-25
2.79067e-25
1.48267e-24
1.08797e-23
6.3082e-25
1.93703e-24
3.65189e-28
1.01836e-27
2.60357e-27
1.47407e-27
8.24947e-27
5.40464e-27
3.8741e-26
2.76272e-26
4.33503e-27
1.54119e-26
2.88509e-25
4.25605e-26
1.2264e-26
4.06135e-27
9.28845e-26
1.91786e-26
5.8019e-26
1.95368e-26
7.64234e-27
1.01244e-25
7.1196e-25
1.44882e-25
1.43902e-26
9.84141e-30
8.08647e-29
4.56561e-30
1.3858e-29
4.5025e-30
7.55671e-31
1.6689e-30
1.62355e-33
5.48576e-33
6.84405e-33
1.6753e-31
2.85057e-32
4.73262e-32
1.01584e-32
1.96706e-29
2.8567e-28
3.54117e-29
4.20155e-34
3.20829e-33
1.21478e-33
1.51159e-37
3.80126e-37
1.32018e-36
6.24903e-34
1.98703e-33
8.52593e-34
2.06207e-33
2.7933e-34
1.3028e-32
1.52033e-33
1.67725e-31
4.18551e-32
9.04739e-32
1.7911e-31
2.41316e-31
3.48012e-32
4.66771e-32
4.85859e-32
6.70473e-32
8.69693e-32
6.88774e-32
4.25584e-32
1.18269e-28
3.92418e-28
1.56866e-28
8.23869e-28
1.26698e-27
1.04539e-27
6.34667e-28
6.67663e-28
9.1838e-28
5.42391e-28
1.11103e-27
1.15557e-27
7.44194e-28
8.72556e-28
1.24044e-21
2.35735e-22
6.65481e-22
1.26138e-21
1.14404e-21
3.18258e-18
4.32009e-18
3.88726e-19
9.37706e-19
1.38137e-18
4.83321e-20
1.07376e-20
4.3149e-19
3.1387e-19
2.81039e-19
2.97763e-18
4.77097e-18
2.78228e-18
4.83427e-18
1.2983e-16
3.65531e-16
5.69056e-16
6.20225e-17
3.98034e-16
7.49837e-16
1.59208e-16
8.70362e-16
1.37414e-15
1.11487e-15
2.61894e-13
3.05869e-13
2.32372e-13
1.72852e-13
3.5211e-13
3.32914e-13
1.28806e-13
5.37059e-13
2.81456e-12
4.45342e-13
3.10473e-10
8.13717e-10
1.60067e-10
1.09796e-10
1.05705e-10
1.13421e-10
1.05524e-10
3.43854e-11
1.17359e-10
5.30254e-10
4.56243e-11
2.29868e-10
1.69776e-09
5.6282e-10
2.52746e-11
3.54062e-11
2.28471e-11
8.36073e-09
5.72934e-09
3.16392e-08
2.79124e-08
1.47765e-08
1.09503e-07
4.89586e-08
2.38365e-09
3.10908e-09
1.83969e-08
1.75985e-08
1.23444e-08
1.03246e-07
2.2495e-07
3.0363e-06
2.82516e-06
2.83576e-06
3.35008e-06
5.30738e-06
7.66968e-06
5.74659e-06
6.21179e-06
2.69649e-06
7.35802e-07
1.89651e-07
3.04215e-07
8.90509e-07
1.33411e-06
0.000248261
0.000170947
0.000248624
8.89598e-05
0.000143252
0.000155499
0.000248624
5.25145e-05
5.3583e-05
9.83327e-05
0.000145025
0.000126825
0.000153813
0.000215003
1.24561e-05
2.65973e-06
4.15794e-06
4.73405e-06
3.06721e-06
1.5119e-05
7.32348e-06
3.36656e-07
1.05765e-07
7.41762e-07
4.60955e-08
1.34226e-07
9.6714e-08
3.96762e-07
2.59749e-07
8.35789e-08
2.88803e-07
4.86589e-07
2.2138e-07
6.79717e-07
1.74326e-06
1.53532e-06
3.29213e-07
1.02148e-08
7.8928e-09
1.43229e-08
2.70126e-09
4.96522e-09
3.11192e-09
6.91484e-09
2.46177e-12
3.49448e-12
1.94325e-12
8.41471e-13
1.08301e-12
1.36198e-12
1.54523e-12
2.09581e-12
2.21678e-12
9.1086e-15
2.01383e-14
3.2418e-14
1.01656e-14
9.9257e-15
2.85324e-14
1.43282e-14
2.53681e-14
3.93671e-14
5.07979e-14
1.85662e-14
3.09112e-14
1.27664e-14
1.22458e-14
3.63253e-14
2.63375e-14
4.51243e-21
8.78734e-21
4.55934e-20
1.46489e-21
7.72994e-22
1.77804e-21
8.30526e-21
4.37016e-21
1.33202e-20
2.1504e-21
1.33925e-19
2.39946e-20
4.22554e-21
2.46874e-20
1.18201e-18
3.78775e-18
1.04974e-17
4.5046e-19
2.80026e-19
8.78154e-19
2.2064e-18
3.46766e-20
7.2413e-20
1.07953e-19
4.30781e-19
1.33505e-19
1.18039e-18
1.97127e-19
4.186e-17
1.90512e-17
1.26029e-16
2.22879e-16
1.41782e-15
2.45673e-16
3.76187e-17
2.05357e-13
3.56819e-14
1.98511e-14
5.68028e-13
2.05451e-13
4.68241e-14
1.21782e-13
1.81643e-15
2.78811e-16
1.3749e-16
3.04148e-17
5.39552e-17
3.69659e-16
1.42668e-16
3.78437e-13
2.56876e-14
9.1656e-14
1.64157e-14
9.24471e-13
3.59237e-14
9.81922e-11
2.10808e-11
9.13737e-12
2.65589e-11
1.24274e-10
1.45445e-11
5.81387e-12
2.84245e-12
2.79471e-11
5.64133e-12
1.51725e-08
3.36518e-09
2.27565e-09
0.000179129
9.87497e-05
0.000436665
0.000507014
0.00013171
0.000211485
0.00136491
0.996755
0.991169
0.981253
0.972985
0.888586
0.707754
0.988693
0.999994
0.999706
0.999824
0.995308
0.999435
0.997179
0.999383
0.98569
0.974517
0.998348
0.997106
0.99981
0.992144
0.00227059
0.00697438
0.00709501
0.002137
0.00736146
0.0175507
0.00217219
0.0283921
0.0277035
0.0135515
0.0228113
0.0217988
0.0223159
0.00530204
0.00236589
0.00435801
0.0099691
0.00389055
0.00217584
0.0019221
0.00792927
0.507656
0.193232
0.193232
0.873521
0.635871
0.20373
0.414777
0.821655
0.851154
0.00735324
0.00182056
0.00219677
0.468914
0.264656
0.880199
0.60706
0.00179932
0.000904781
0.000904781
0.00275544
0.000904836
0.00174755
0.00353831
0.000904879
0.00140677
0.00412577
0.00412577
0.00412577
0.00410454
0.00412312
0.00244707
0.00371321
0.00405662
0.0027568
0.000260036
5.993e-05
5.92637e-05
0.000212553
6.42079e-05
0.000114764
5.81895e-05
5.14523e-23
4.04294e-23
5.81331e-23
6.4828e-23
9.82415e-23
9.10485e-23
2.57301e-22
6.72311e-23
4.47469e-23
1.73038e-22
1.53643e-22
3.80583e-22
3.40859e-22
1.77558e-21
6.14091e-22
2.05931e-21
1.33745e-21
3.61891e-21
2.32061e-20
8.52512e-21
2.99254e-21
4.02403e-24
9.1358e-24
1.43439e-23
6.16645e-23
1.0955e-23
2.75208e-23
1.77905e-22
2.10117e-20
1.24854e-19
1.08394e-20
2.15573e-20
6.60272e-20
1.4374e-24
1.9198e-24
4.61336e-24
1.34717e-23
4.09408e-24
2.61444e-19
2.3432e-20
1.16771e-19
1.90136e-20
7.59717e-21
1.06011e-24
5.78192e-24
6.96288e-23
1.10346e-23
2.71708e-24
6.98026e-27
1.09279e-27
2.74995e-27
1.09428e-26
9.85778e-28
6.51209e-28
1.51092e-25
1.86349e-26
1.02348e-24
2.04767e-25
8.44876e-26
2.39166e-26
4.53631e-26
9.59389e-26
2.82876e-25
1.80877e-29
2.67144e-29
2.72341e-29
1.21863e-28
4.36278e-29
7.13063e-29
3.98252e-29
2.47662e-25
3.06168e-25
4.25888e-25
7.38528e-25
4.82323e-25
6.0255e-25
1.62376e-24
6.47562e-28
1.15725e-27
2.01454e-27
1.118e-26
2.89737e-27
3.55439e-27
8.68833e-28
6.07243e-19
8.71022e-19
1.17593e-18
1.07538e-18
1.27823e-18
1.9914e-18
1.55109e-18
1.11091e-11
2.85242e-11
1.06188e-11
2.53621e-10
1.13991e-10
4.40188e-11
6.60807e-11
3.78511e-09
4.06729e-09
7.47464e-09
7.00302e-07
1.39185e-06
7.80341e-07
1.32703e-06
3.8792e-06
5.82949e-06
1.26537e-06
3.73673e-07
1.33138e-06
8.46008e-07
1.53497e-05
8.34609e-06
9.89962e-06
8.05453e-06
2.38557e-05
2.39346e-05
6.77414e-06
1.06969e-05
8.05599e-06
2.13667e-05
6.33557e-06
8.29388e-11
4.8607e-06
8.2067e-07
1.25705e-06
1.73056e-06
4.32942e-05
1.80021e-05
1.18072e-05
0.000120357
0.000752209
0.00126253
0.000410476
0.000322985
0.000670261
0.00100241
0.281253
0.781026
0.971344
0.972069
0.990985
0.972849
0.962424
7.27686e-05
9.06183e-05
7.64822e-05
8.4345e-05
7.91127e-05
9.10704e-05
0.000109355
0.00197401
0.0165241
0.00389942
0.0124338
0.00239941
0.0537139
0.00716879
1.22894e-07
4.70281e-07
8.59106e-07
3.89883e-07
8.71112e-06
1.95486e-06
7.06569e-08
0.000101068
6.58345e-05
0.000198631
2.57557e-05
7.11393e-05
4.63177e-05
0.000572504
1.60941e-07
5.92252e-08
5.98013e-08
3.55409e-07
7.28684e-08
1.00888e-07
3.01302e-07
1.84445e-08
4.12165e-08
1.22337e-09
1.88955e-09
1.08195e-09
1.25736e-08
1.44272e-08
4.6313e-09
1.11147e-09
1.49381e-09
8.79271e-10
8.88192e-10
8.56657e-09
2.52616e-09
1.30356e-09
6.87875e-09
2.27389e-10
1.19751e-10
8.03375e-11
1.00656e-10
2.60815e-11
4.98279e-11
2.23083e-11
9.55087e-14
8.89062e-14
1.12384e-13
1.70182e-13
1.60156e-13
2.38571e-13
2.43227e-13
1.02468e-16
1.44377e-16
1.73205e-16
3.9839e-17
5.86951e-17
8.93049e-17
6.23179e-17
8.48705e-25
4.89949e-25
3.24138e-24
6.37059e-24
3.58894e-23
5.45253e-24
1.16548e-24
2.54795e-24
3.58741e-25
2.06251e-25
4.40005e-25
1.04657e-25
2.9521e-26
6.09526e-26
1.80955e-21
1.17539e-20
1.06601e-21
6.6074e-23
1.53912e-22
2.75343e-22
1.7387e-21
1.5185e-22
4.36056e-22
2.62231e-23
3.1606e-25
6.54829e-24
8.02509e-25
3.90733e-24
6.50822e-25
3.27652e-23
3.89555e-22
4.44828e-22
9.79658e-22
2.58762e-21
3.42582e-21
1.21621e-20
7.46709e-21
2.10535e-22
9.67386e-23
3.61101e-22
2.88176e-18
4.15949e-19
1.8638e-19
2.3551e-19
7.16403e-19
4.61565e-20
9.83937e-20
2.5939e-17
7.46153e-17
1.1748e-17
1.32332e-16
7.88095e-16
1.47977e-16
2.29375e-17
8.04306e-19
9.1076e-18
1.767e-18
4.74058e-16
5.25915e-15
8.17591e-16
1.51463e-14
2.79843e-14
1.46594e-13
4.52091e-15
2.58742e-15
5.59918e-15
2.53972e-14
1.75388e-05
4.00875e-05
1.67264e-05
1.19184e-05
9.09057e-06
1.89314e-05
1.60932e-05
2.84181e-05
4.77643e-05
6.06787e-05
0.000162427
0.000131995
0.000117079
6.53233e-05
0.0433405
0.0247651
0.0927778
0.000309392
0.00250349
0.0221366
0.0281875
0.0349512
0.0293017
0.0565158
0.108535
0.0380791
0.0217946
0.101752
0.999581
0.998993
0.99878
0.999713
0.997054
0.999638
0.993112
0.99306
0.999753
0.996231
0.99996
0.999832
0.999911
1.62842e-20
6.75342e-21
2.03351e-21
6.06699e-20
1.74406e-20
2.10357e-20
3.61793e-21
1.43874e-18
8.64464e-19
2.39094e-18
6.77333e-18
2.79502e-18
2.03478e-17
4.36948e-18
4.09251e-17
1.51557e-16
5.31851e-17
2.76017e-16
1.37909e-15
2.87648e-16
1.29097e-16
5.72748e-18
8.54056e-17
1.68886e-17
1.09751e-17
5.8196e-17
4.20246e-16
4.73997e-17
2.13248e-18
5.47222e-18
5.87541e-18
7.37985e-17
1.3194e-17
2.97646e-17
6.92155e-18
3.21915e-18
6.85383e-19
1.23221e-18
9.95317e-19
2.65087e-19
3.94752e-19
1.83246e-18
9.95686e-18
8.94645e-19
2.21033e-18
2.65997e-20
7.29158e-21
1.02926e-20
2.48508e-19
4.87919e-20
2.34294e-20
5.40001e-20
4.58624e-22
7.44076e-22
4.72367e-22
2.4628e-21
8.6387e-22
1.60501e-21
9.23322e-22
8.72753e-19
1.6461e-18
2.1294e-18
6.97297e-19
5.70989e-19
1.32006e-18
1.17722e-18
5.51306e-07
1.00849e-06
3.90072e-07
6.72812e-07
8.29984e-07
3.56249e-07
3.73331e-07
1.73467e-07
2.40951e-07
1.97419e-07
3.8815e-07
2.35746e-07
3.20033e-07
3.16887e-07
3.57858e-06
8.42378e-06
3.48729e-06
8.42378e-06
5.78474e-07
1.76323e-05
1.20044e-05
1.18417e-05
2.21426e-05
5.44218e-05
2.13878e-05
1.79673e-05
0.942816
0.594793
0.9749
0.799728
0.342661
0.0823204
0.899525
0.00189072
0.00388069
0.00317477
0.0018726
0.00210564
0.00415137
0.0025505
0.00127814
0.00019575
0.000703909
0.000138234
8.52066e-05
0.000247824
0.000815375
4.16754e-08
1.15414e-08
1.94888e-08
9.3386e-06
9.34368e-06
9.3386e-06
1.64113e-05
2.83173e-05
1.74792e-05
4.91641e-05
1.75525e-05
1.17594e-05
4.02394e-05
7.50085e-06
7.55629e-06
9.19794e-06
1.51339e-05
2.75117e-05
1.23407e-05
1.33169e-06
5.44026e-07
1.36767e-06
5.42272e-07
9.17168e-07
1.08272e-06
2.12125e-06
3.03116e-08
8.69909e-09
5.67258e-09
3.30784e-08
5.08112e-09
2.90711e-09
1.14652e-08
1.59633e-15
1.7882e-15
1.85093e-14
2.89377e-16
1.78564e-15
7.08765e-15
2.93842e-16
5.98441e-18
1.2962e-17
1.48509e-17
3.53941e-18
3.92687e-18
6.88063e-18
6.06785e-18
9.7534e-20
1.18203e-18
2.02703e-19
6.46029e-20
1.5448e-19
6.62306e-19
1.23062e-19
1.20876e-21
7.91191e-23
6.48683e-23
1.69753e-23
6.19838e-23
2.64425e-23
3.59027e-22
4.79254e-23
8.61774e-22
1.52185e-28
3.87668e-28
8.4289e-30
5.40774e-29
1.07606e-28
1.73264e-29
1.14633e-29
2.078e-30
4.01659e-30
2.96572e-29
2.51774e-31
4.98225e-31
6.06408e-31
3.90906e-30
1.26856e-28
4.99863e-28
4.65252e-28
2.29881e-29
2.93843e-30
1.38792e-30
1.37189e-30
4.21946e-30
2.51862e-31
5.33741e-31
2.44863e-26
1.93414e-27
3.40618e-27
4.25355e-28
6.90274e-27
2.82587e-28
9.92567e-25
3.96585e-25
7.39347e-24
3.46075e-25
1.00645e-25
6.49046e-25
1.25553e-24
8.43293e-24
2.27426e-24
2.12286e-25
1.24269e-23
2.20607e-24
2.64695e-23
3.15524e-22
1.72244e-22
6.80019e-22
7.9109e-21
1.29483e-21
1.52839e-21
5.74958e-22
2.43186e-15
9.91076e-15
1.30858e-15
4.51001e-16
2.86598e-16
2.10638e-15
5.98989e-16
1.13569e-06
2.53992e-06
1.35768e-06
9.77281e-06
8.19062e-06
5.43151e-06
6.42915e-06
1.69427e-06
1.67132e-06
2.23851e-06
5.82424e-06
2.84659e-06
6.05935e-05
6.24385e-05
6.05146e-05
0.000170583
8.30082e-05
9.36699e-05
0.000111791
1.39412e-05
1.38249e-05
2.76015e-05
3.53957e-05
1.76492e-05
0.000465837
0.000702799
0.000905039
0.000861011
0.000483801
0.00117807
0.000376883
0.00141218
0.00215368
0.00100852
0.00101135
0.000886505
0.00169937
0.000935032
0.00101829
0.00101796
0.0010179
0.00101796
0.00101921
0.0010179
0.00101796
0.999949
0.999807
0.99917
0.999729
0.999828
0.999972
0.999744
0.999949
0.999535
0.9984
0.999965
0.999946
0.999577
0.998898
0.999681
0.994727
0.999824
0.999749
0.999449
0.999923
0.998973
0.999482
0.99684
0.999524
0.999196
0.995899
6.14693e-14
3.24252e-13
3.72959e-14
2.37893e-14
9.57951e-15
2.41508e-14
9.33688e-14
6.1403e-14
1.76376e-13
7.27059e-13
2.4802e-15
6.50305e-16
3.17209e-16
1.4178e-15
4.09567e-15
4.24074e-16
1.02679e-15
3.17331e-13
5.30781e-13
1.7132e-13
2.15164e-12
1.88532e-12
3.95493e-13
9.49943e-13
3.00835e-14
1.43859e-13
2.50879e-13
1.09311e-13
4.57015e-14
1.76551e-13
3.53759e-13
0.000140918
0.000266877
7.33374e-05
0.000265647
0.0002579
7.35798e-05
0.000119327
0.000228914
0.000133244
0.000296622
0.000248466
0.000121075
0.000329262
0.000189888
0.000789082
0.000470282
0.00106869
0.00336931
0.0012912
0.00197681
0.00431587
0.000162838
0.000119545
0.000166929
8.11541e-05
4.61119e-05
6.16107e-05
0.000161056
0.000178381
0.000156463
0.000442893
0.000157119
0.000256711
0.000478814
9.31801e-05
0.00015902
0.000141053
7.05532e-05
8.24164e-05
0.000106538
7.04438e-05
8.39334e-05
8.53809e-05
5.89198e-05
5.4908e-05
5.4908e-05
5.63682e-05
6.1925e-05
5.50116e-05
8.03815e-05
0.000166277
5.57969e-06
5.24082e-07
1.30845e-05
7.73477e-07
5.31321e-07
5.52107e-06
1.69894e-06
1.09151e-06
3.57888e-06
2.0856e-06
2.01666e-09
5.52158e-10
4.63454e-10
6.9521e-10
1.94992e-09
4.92382e-10
9.72517e-10
3.53869e-08
9.68231e-09
1.14646e-08
4.92507e-12
5.41846e-12
3.89478e-11
7.17728e-12
8.06426e-11
6.82204e-11
5.83609e-13
2.19752e-13
2.59057e-13
3.93722e-14
3.89424e-14
2.50646e-13
3.32162e-13
1.11783e-21
2.93411e-21
5.3253e-22
2.65252e-21
8.09621e-21
1.91428e-21
8.53802e-22
8.6837e-21
1.93087e-21
5.84313e-29
2.15892e-29
4.85683e-28
6.30147e-30
2.76816e-29
1.5919e-28
1.3701e-29
1.33896e-30
1.4122e-31
8.02008e-32
2.18875e-32
4.54915e-31
1.37809e-32
8.35481e-32
1.8337e-38
2.73446e-39
9.11173e-40
3.85404e-38
1.61539e-37
6.00892e-38
1.31364e-37
1.90681e-36
3.45238e-36
8.13318e-36
3.11453e-35
5.57018e-36
1.51545e-35
1.2579e-34
3.13743e-37
1.58204e-36
6.35619e-37
2.96314e-33
5.4818e-32
3.8883e-33
6.98286e-33
8.97226e-34
5.37986e-34
1.03359e-29
5.55886e-30
7.73546e-29
5.16992e-24
1.23807e-23
1.25495e-23
2.23806e-23
7.8156e-23
1.40103e-22
2.3267e-23
3.16598e-14
3.51825e-14
6.4145e-14
1.20172e-13
7.89895e-14
3.21071e-13
1.91953e-13
2.602e-14
2.16286e-13
1.65984e-14
2.43685e-14
1.70665e-13
4.30977e-14
8.84712e-15
1.62312e-10
1.01074e-10
6.04261e-11
4.42632e-10
5.27296e-10
2.4463e-10
1.05239e-10
5.32789e-10
2.53524e-10
2.89421e-10
1.43168e-09
5.70099e-10
1.16936e-09
3.37855e-10
2.16153e-08
4.70857e-09
1.73183e-08
3.81737e-09
7.35421e-09
2.53144e-08
8.86876e-09
5.22409e-06
6.46509e-06
1.40794e-05
1.28757e-05
2.6767e-05
2.89656e-05
8.04293e-06
5.34205e-08
1.24869e-07
1.15083e-07
1.17037e-06
5.04342e-07
9.23281e-05
8.60045e-05
8.05729e-05
0.000229061
0.000300095
0.000180991
0.000149162
2.7389e-05
1.6086e-05
2.97476e-05
2.06725e-05
1.73862e-05
4.43937e-05
2.30336e-05
5.42659e-05
5.23135e-05
0.000102165
0.00022982
9.21275e-05
0.000132762
0.000182929
0.999982
0.999837
0.99995
0.999586
0.999943
0.999959
0.999922
0.999831
0.999398
0.998263
0.999978
0.99994
0.999858
0.999883
0.997887
0.999609
0.999424
0.999079
0.998028
0.999939
0.997268
0.997114
0.989057
0.998532
0.998704
0.994105
3.14587e-13
9.07159e-13
6.79929e-13
1.95784e-12
5.87845e-12
6.82941e-13
2.09838e-12
8.22039e-10
2.61732e-09
4.93907e-10
4.43955e-10
9.989e-10
1.90037e-10
2.78456e-10
9.4857e-12
1.33866e-11
6.21159e-12
8.67425e-11
2.28416e-11
4.01339e-11
1.36812e-11
7.76401e-10
1.49386e-09
5.36209e-09
1.87898e-12
3.06696e-12
4.4182e-12
5.59659e-12
5.27889e-12
1.8415e-11
1.20491e-10
3.11941e-11
2.31727e-11
1.46287e-11
1.08801e-13
5.6708e-13
8.3938e-14
2.76276e-13
1.20567e-13
1.04364e-12
3.92425e-13
3.39963e-12
1.28637e-12
0.000283122
0.000169643
0.000178809
0.000467351
0.000724649
0.000285245
0.000671922
0.000126589
5.295e-05
4.96985e-05
0.000209774
0.00014297
6.88552e-05
4.93986e-05
4.75098e-11
2.60944e-11
8.10726e-11
1.74463e-10
2.04303e-10
9.54101e-11
3.97801e-11
2.47711e-13
3.50107e-13
7.52101e-13
2.14362e-15