/*--------------------------------*- C++ -*----------------------------------*\
| =========                 |                                                 |
| \\      /  F ield         | OpenFOAM: The Open Source CFD Toolbox           |
|  \\    /   O peration     | Version:  v2012                                 |
|   \\  /    A nd           | Website:  www.openfoam.com                      |
|    \\/     M anipulation  |                                                 |
\*---------------------------------------------------------------------------*/
FoamFile
{
    version     2.0;
    format      ascii;
    class       volScalarField;
    location    "0.15";
    object      p_rgh;
}
// * * * * * * * * * * * * * * * * * * * * * * * * * * * * * * * * * * * * * //

dimensions      [1 -1 -2 0 0 0 0];


internalField   nonuniform List<scalar> 
6576
(
2776.32
2754.7
2760.06
2767.37
2781.52
2789.37
2764.88
2764.68
2783.74
2774.11
2811.28
2796.86
2784.9
2794.86
2757.89
2766.68
2733.01
2760.41
2760.15
2805.02
2746.06
2800.59
2803.2
2758.92
2787.34
2813.43
2863.77
2783.97
2752.19
2752.45
2773.8
2732.96
2771.43
2792.7
2787.07
2807.31
2784.26
2808.92
2771.12
2790.44
2759.05
2747.49
2774.83
12.9266
9.30325
9.7052
8.24362
12.3236
9.80567
9.8127
7.75751
9.15587
0.00256737
0.00206044
0.0006336
0.00483528
0.00289464
0.000863251
0.00323496
0.00286658
0.00441144
0.00575737
0.0079121
0.00623509
0.00371936
0.00574963
0.0266383
0.0228829
0.0198062
0.0198479
0.02275
0.0152702
0.0190286
-0.666462
-0.686021
-0.458993
-0.655325
-0.973806
-0.11261
-0.305043
-1.82147
-1.13921
-1.34549
-1.5435
-1.31579
-1.74302
-1.88741
0.361731
0.394498
0.228022
0.265556
0.346366
0.232236
0.725437
-1.24474
0.219004
-1.29797
0.795902
0.20076
2.93954
0.230448
102.062
101.999
101.93
102.095
102.146
101.631
102.501
101.743
100.672
100.612
98.7572
98.9581
103.579
0.0146111
0.0350939
-0.0853247
-0.114668
-0.283719
-0.155971
-0.15278
569.096
2042.1
1983.68
2585
2507.03
2709.53
2576.73
-0.11938
-0.193335
-0.0152637
-0.513516
-0.138717
-0.775229
-0.141497
0.00725374
0.00411343
0.00888203
0.00781681
0.00283966
0.00186285
0.00757015
0.0354677
0.0366492
0.0289336
0.0424988
0.0336088
0.0290407
0.036325
0.0503126
0.047883
0.049057
0.0408867
0.0412014
0.0441857
0.044854
0.0617587
0.0682838
0.0700257
0.0625057
0.0683815
0.0763201
0.0676928
0.0723517
0.0651591
0.0687831
0.0677167
0.0701718
0.0675787
0.0622702
0.0623725
0.0660633
0.0817198
0.0856032
0.0906119
0.0813464
0.084752
0.0913863
0.092393
0.0893619
0.0871182
0.0890395
0.0943724
0.0845449
0.0868769
0.0895979
0.0727497
0.0808176
0.0814977
0.0789688
0.110825
0.108162
0.118438
0.102055
0.0989605
0.105726
0.102686
0.101639
0.109064
0.125519
0.0891774
0.0826961
0.0951609
0.103824
0.146646
0.182539
0.131661
0.138603
0.143111
0.168933
0.145567
-0.00624784
-0.313542
-0.00798364
0.0922734
0.117402
-0.148068
-0.319811
0.112186
0.117401
0.13165
0.10835
0.1006
0.108198
0.117634
0.0987371
0.106743
0.106986
0.105284
0.0984601
0.103275
0.10905
0.09849
0.0945091
0.0921054
0.101533
0.100479
0.0971288
0.0967616
0.0780817
0.081304
0.0801202
0.0831141
0.0814556
0.0794612
0.0771961
0.0699822
0.0683549
0.066289
0.072852
0.0748209
0.0712668
0.0731351
0.0700603
0.0675865
0.0528843
0.0499339
0.0489027
0.0584475
0.056541
0.0544851
0.0528008
0.0095331
0.0103868
0.00933715
0.00746099
0.00992572
0.00926086
0.00740109
104.573
102.229
103.441
103.68
103.302
99.2151
102.142
101.708
103.5
2.13354
0.894826
2.90304
0.360103
-1.07404
2.55294
1.41712
3.12287
2.59961
2.85544
3.92602
2.83434
4.04082
4.02289
3.98177
3.43288
2.90629
1.52263
1.04373
2.96372
4.31129
2.24839
3.37737
3.12086
2.0132
2.02157
0.0251897
0.010226
0.0432149
0.0319952
0.0426389
0.0655274
0.0517154
95.0097
39.5674
17.7964
34.3303
20.7847
19.056
18.3146
13.5538
18.0621
-0.285657
-0.319993
-0.288231
-0.235308
-0.224212
-0.261912
-0.244422
0.721322
0.805647
0.77708
0.567097
0.59729
0.733387
0.654005
0.483307
0.473041
0.55337
0.477155
0.470899
0.509294
0.555829
0.487905
0.517047
1.21636
6.1146
3.7784
0.709775
3.80391
1.34353
1.7062
1.48495
0.536462
99.7322
101.169
99.7934
99.3939
99.441
96.8563
99.7703
104.2
104.561
104.721
103.014
103.224
97.7456
101.935
103.984
103.992
3.69967
3.81934
4.27512
7.96492
3.96202
7.10277
4.0253
2.82198
1.59636
2.90868
3.4615
4.43335
2.60711
2.29456
-0.299855
-0.316494
-0.212513
-0.431185
-0.323502
-0.393685
-0.299892
-0.244339
-0.332718
-0.81934
-0.843949
-0.984526
-0.976
-0.899506
-0.795975
-0.82566
-0.677613
-0.753973
-0.911054
-0.421282
-1.05696
-1.01165
-1.08257
-0.926812
-0.845944
88.2218
169.938
552.754
196.867
62.9616
34.3994
166.233
1449.67
1466.06
1482.9
1374.84
1409.04
1407.07
1486.39
0.0467464
0.051187
0.0480041
0.0458643
0.0431115
0.0480498
0.0454236
0.037318
0.0396535
0.0352755
0.0367709
0.0350147
0.0321494
0.0338924
0.0286264
0.0316411
0.0292525
0.0265526
0.0278907
0.0294192
0.0276619
0.0206181
0.0202638
0.0192867
0.0204776
0.0200016
0.0177798
0.0191104
0.0186029
0.0193311
0.016712
0.0157426
0.0159965
0.0153222
0.0162741
0.0153482
0.0161526
0.0118422
0.0164148
0.0128677
0.0140145
0.0112058
0.0142578
0.0127755
0.0126999
0.0136524
0.0122582
0.0133059
0.0141539
0.0142647
0.0137595
0.00628991
0.00683021
0.00987151
0.00458869
0.00464056
0.00662871
0.0119199
0.00925013
0.00897653
0.00743526
0.00775133
0.0073249
0.00949169
0.00912995
0.00408369
0.00681651
0.00605868
0.0082814
0.00846491
0.0151901
0.00112645
0.00165632
0.00183574
0.00179121
0.00131003
0.00215491
0.00240646
0.00146675
0.00120071
0.000526404
0.00375264
0.00258219
0.0020947
0.00187
0.000830395
0.000374559
0.00116636
0.00260052
0.00449135
0.00342226
0.000950769
0.00242741
0.00185058
0.00322219
0.00414952
0.00280099
0.000361096
0.00121417
0.00162093
0.00188124
0.00265163
0.00361784
0.00504789
0.00388807
0.00208705
0.00176312
0.00120591
0.000460357
0.0032976
0.00322813
0.00258879
0.00254604
0.0244364
0.0225559
0.0262567
0.0271091
0.0221296
0.0267974
0.0223924
0.0225026
0.0263723
0.0396656
0.0430111
0.0391998
0.0418192
0.0373326
0.0448019
0.040622
0.0524427
0.0458885
0.0442593
0.0536678
0.0561597
0.0487685
0.0473118
0.0549087
0.0556813
0.0517626
0.0608952
0.0574132
0.05347
0.0570789
0.0700526
0.071954
0.0733458
0.0702343
0.0658904
0.0821081
0.0848504
0.0834569
0.084376
0.0835362
0.0842346
0.0829945
0.0923933
0.0978449
0.0969356
0.095375
0.0978742
0.0982574
0.0948061
0.0627251
0.050498
0.0327399
0.0267693
-0.0255483
0.0371701
0.0591559
0.298743
0.272858
0.300095
0.249302
0.252392
0.274749
0.282607
0.145131
0.178764
0.168171
0.115318
0.123357
0.123437
0.136191
0.164527
0.151206
0.0180009
0.00576215
0.0359329
0.0170111
0.0328629
0.0384483
0.0581505
0.126877
0.127161
0.107753
0.0999547
0.101066
0.118828
0.116222
0.152916
0.140034
0.147658
0.159571
0.147111
0.163109
0.147777
0.186009
0.182137
0.16913
0.162748
0.164975
0.177136
0.175841
0.281635
0.271731
0.287941
0.289385
0.282793
0.299374
0.291754
0.319669
0.324231
0.307491
0.301695
0.292698
0.341021
0.316931
0.309283
0.300652
0.289772
0.30024
0.298033
0.309273
0.275607
0.293569
0.274458
0.303196
0.289895
0.906202
1.596
0.55008
0.437401
0.425441
0.758535
0.970562
0.49277
0.590459
0.356212
0.460112
0.740219
0.470384
0.562077
0.519547
0.382752
4.24906
4.08805
1.73014
2.65126
1.95714
2.39509
2.83585
2.81655
2.80016
3.9008
3.88165
0.528541
0.48437
0.51382
0.7609
0.493741
0.649355
0.521805
3.77132
4.07604
3.90783
1.8262
2.99534
2.42722
2.45273
2.18053
0.863276
1.14175
1.47355
1.52984
1.2091
2.36074
2.97475
1.38402
1.75969
0.970693
0.782341
0.579977
2.1669
2.41885
2.58937
2.08786
1.50066
4.94703
1.0944
100.54
101.826
102.102
101.136
102.565
105.008
104.289
103.384
103.867
104.035
100.588
100.811
100.269
101.125
101.6
100.737
86.9807
102.359
98.3139
102.591
101.424
99.9955
102.406
102.757
102.596
101.649
102.217
101.848
101.631
101.483
101.671
103.465
104.143
104.209
104.335
104.142
103.324
104.127
102.551
104.259
104.738
99.1878
99.9561
99.3882
100.166
99.3437
98.4855
100.111
102.114
90.3073
101.682
100.746
100.99
96.671
101.884
4.92651
4.2201
2.66006
9.63811
2.8081
7.75646
6.86326
3.81919
1.04042
0.780484
0.68757
-1.31137
1.50109
1.36523
1.06037
0.869773
0.856567
0.898972
0.768402
0.857933
0.73269
0.560008
0.563661
0.503425
0.621059
0.581189
0.54776
0.589027
0.589984
0.523585
0.601253
0.539571
0.579568
0.642679
0.645732
0.210631
0.32043
0.376458
0.309166
0.444151
0.279676
0.427106
0.384115
0.227978
-0.128395
-0.121669
0.0345483
0.139785
0.137012
0.0904252
0.0858899
-0.0388578
-0.055997
-0.165434
-1.10324
-0.887914
-0.83313
-1.19163
-0.494288
-0.957528
0.0558928
0.0552764
0.0480948
0.0584031
0.0489187
0.0469945
0.0541644
0.0710729
0.072734
0.0820359
0.0746706
0.0785595
0.0890037
0.0840375
0.0754514
0.0702922
0.0650057
0.0615784
0.0583788
0.0251408
0.0283786
0.0272175
0.0235448
0.0243815
0.0265708
0.0254042
0.0220454
0.0205687
0.0213923
0.0193455
0.019231
0.0210298
0.0211219
0.0132505
0.0137984
0.0146031
0.0138695
0.0141975
0.0148768
0.0149946
0.0157219
0.0191978
0.0149725
0.015699
0.0147482
0.0137
0.0142507
0.0157972
0.0159279
0.0157518
0.0160888
0.0155637
0.0149065
0.0152667
0.013975
0.0150278
0.0163732
0.013076
0.0209611
0.0160776
0.0145713
0.0165268
0.0191535
0.0157619
0.0161243
0.0154537
0.0156069
0.0166363
0.0148147
0.0160173
0.015644
0.0155683
0.015938
0.0158523
0.0149222
0.014428
0.0139961
0.0152725
0.0151255
0.0155173
0.017144
0.0144181
0.0156637
0.015783
0.0148632
0.00563266
0.00755937
0.00783565
0.00818796
0.00969053
0.00837763
0.0069262
0.00896932
0.00814183
0.00668398
0.00978493
0.0115328
0.00963479
0.00853467
0.00344508
0.00247422
0.0040603
0.01196
0.0113584
0.0145167
0.00892399
0.0113825
0.0125482
0.0102968
0.00365505
0.00287276
0.000605548
0.00450148
0.0028038
0.00291502
0.00365118
0.000845091
0.00320746
0.00489526
0.00530283
0.00634939
0.00312913
0.00281698
0.00087883
0.00640137
0.00634546
0.00541357
0.00523088
0.00597742
0.0113475
0.0104844
0.00505811
0.00869525
0.0123724
0.00981161
0.0275366
0.0323328
0.0278979
0.0311321
0.0234714
0.0243704
0.0294597
0.0278028
0.0218156
0.0668934
0.0644601
0.0658979
0.0595511
0.0593375
0.0614852
0.0628702
0.0975014
0.0996971
0.0944864
0.103838
0.10749
0.10269
0.102589
0.0837683
0.0859933
0.0836015
0.0914271
0.0778982
0.0734298
0.061377
0.0594992
0.0380898
0.0703716
0.0630804
0.0766169
0.0374241
0.0324696
0.00604719
0.0532091
0.0548363
0.0428849
0.0516028
0.0519117
0.0249153
0.392722
0.373762
0.347447
0.35196
0.347317
0.291333
0.2932
0.307492
0.3045
0.136621
0.142961
0.143533
0.131846
0.131692
0.136638
0.133326
0.114034
0.12511
0.107706
0.105022
0.0989799
0.107392
0.114502
0.0762576
0.0719702
0.0826141
0.0843406
0.0781144
0.0996172
0.09569
0.091656
0.095108
0.0981202
0.0920385
0.0954718
0.0986021
0.0907806
0.0949025
0.100664
0.229936
0.228498
0.224217
0.220935
0.226839
0.219931
0.225732
0.250923
0.25682
0.260418
0.251901
0.248584
0.241166
0.248818
0.251175
0.256268
0.24514
0.24793
0.258721
0.24943
0.250328
0.243927
0.240186
0.267124
0.278829
0.275201
0.277528
0.293964
0.279942
0.289807
0.263021
0.284191
0.273402
0.268981
0.320004
0.287795
0.493189
1.11635
0.678831
0.801071
0.661709
0.749169
0.860583
0.979189
0.868697
0.616652
102.767
102.176
102.316
98.9683
98.8249
99.2043
97.1157
78.6054
73.3995
97.1152
99.695
100.619
99.4465
102.031
103.158
103.384
102.158
102.147
101.685
100.889
101.21
102.979
102.031
100.984
101.242
100.986
101.74
100.37
101.256
101.485
101.161
100.839
101.651
101.665
100.83
99.3993
1.85488
4.29979
8.43971
8.50325
11.1563
8.33572
4.64032
4.84616
5.40339
3.92008
2.60219
4.59173
3.63136
6.74805
1.26555
1.37344
1.51689
1.28372
1.03001
1.67764
1.87892
1.29335
1.21969
1.47957
1.72243
1.72335
1.50233
1.4355
79.8143
36.9577
43.8933
56.9025
563.864
50.3414
184.5
732.471
745.08
758.781
759.113
803.025
797.563
754.812
-1.55642
5.75131
2.18999
24.3416
14.9544
3.65973
23.0414
-0.0945026
-0.860378
-0.848969
-1.1721
-0.702213
-1.32061
-2.17278
-1.03478
-1.80256
-0.719776
-0.733797
-0.536623
-0.891308
-1.25577
0.0109105
0.0093993
0.0142851
0.0142598
0.00913712
0.0104073
0.0159111
0.0124884
0.0150035
0.0162195
0.0111105
0.00921558
0.0121217
0.0132243
0.0115787
0.0129616
0.0112269
0.00995688
0.00989928
0.0123347
0.0110286
0.0106642
0.00938895
0.00894019
0.00876633
0.00912879
0.00921113
0.0103075
0.00935582
0.0077109
0.0080744
0.00853883
0.00805538
0.00932432
0.00803284
0.0130867
0.0119587
0.0108831
0.0126913
0.011459
0.0109352
0.0101346
0.0103336
0.0116604
0.00285409
0.0104305
0.0065232
0.00415356
0.00386407
0.00476709
0.00568577
0.00945787
0.00904158
0.00967321
0.00784601
0.00665428
0.00729974
0.00862051
0.0111763
0.0192319
0.0150161
0.0126227
0.01246
0.0131315
0.0131546
0.011587
0.013423
0.0104519
0.0151931
0.0109015
0.0146641
0.0125
0.0121684
0.0139178
0.01034
0.0171552
0.015161
0.0154181
0.0178136
0.0156566
0.0129518
0.0165789
0.0179605
0.0167013
0.0179068
0.0170817
0.0174397
0.0163492
0.0190223
0.0184615
0.0198483
0.0210999
0.0196557
0.0177623
0.0185731
0.0184339
0.0175387
0.0197917
0.0182627
0.0172796
0.0237955
0.0229473
0.0221507
0.0243421
0.0252767
0.023993
0.0231118
0.0209496
0.0221583
0.0201274
0.0236047
0.0228993
0.0213489
0.0216514
0.0239975
0.0210884
0.0201749
0.0292309
0.0281322
0.0126949
0.0156268
0.015619
0.0117003
0.0146649
0.012432
0.0155403
0.0345176
0.0316052
0.0329542
0.0335236
0.0389086
0.0337019
0.0364617
0.0175931
0.015682
0.0218243
0.0182979
0.0165447
0.022379
0.0227842
0.00649183
0.00794508
0.00563133
0.00843105
0.00473021
0.0104162
0.0139653
0.00920242
0.0133268
0.0178233
0.00636421
0.00170438
0.0120925
0.00439728
0.0145203
0.0147012
0.0132675
0.020543
0.0270688
0.0174615
0.00477846
0.00416608
0.00101838
0.0120865
0.0152163
0.0138775
0.0187298
0.010697
0.0125202
0.0147699
0.0067542
0.00694134
0.00169718
0.0192223
0.0182319
0.0177226
0.013711
0.0234132
0.0332605
0.0203604
0.0341135
0.025112
0.0186335
0.0360277
0.0177313
0.0422263
0.0311617
0.0105591
0.030164
0.0330991
0.0200296
0.0984318
0.0493349
0.0675041
0.0638529
0.0743943
0.0512928
0.0691496
0.676596
0.470754
0.70914
0.286536
0.437212
0.322652
0.626892
0.192533
0.206755
0.320262
0.425883
0.320863
0.387391
0.551089
0.135766
0.117896
0.154008
0.12274
0.108329
0.144781
0.115379
0.180135
0.169401
0.172528
0.15996
0.151545
0.166608
0.160212
0.172682
0.181036
0.217277
0.238553
0.221114
0.195076
0.222159
0.236837
0.215472
0.205898
0.192645
0.208194
0.183499
0.186367
0.195735
0.198748
0.169863
0.167187
0.164258
0.154204
0.159893
0.160639
0.165688
0.166999
0.172917
0.147109
0.142806
0.150282
0.141945
0.136819
0.143141
0.137927
0.141381
0.147746
0.138297
0.134026
0.142991
0.131462
0.136067
0.135318
0.139818
0.118852
0.119959
0.124339
0.122176
0.120655
0.121894
0.123683
0.123778
0.124132
0.123869
0.128784
0.127183
0.126254
0.126221
0.14695
0.147765
0.153594
0.14779
0.14275
0.146846
0.150751
0.1443
0.148826
0.154516
0.14872
0.147268
0.153271
0.151293
0.164512
0.157518
0.162462
0.166184
0.172664
0.169424
0.165102
0.208538
0.206348
0.205145
0.209988
0.206999
0.203715
0.205994
0.196072
0.185632
0.186848
0.172842
0.182068
0.186452
0.177963
0.213791
0.207273
0.208593
0.196005
0.212682
0.205194
0.237624
0.228495
0.227423
0.229325
0.236425
0.22398
0.22344
0.216737
0.230709
0.225409
0.26258
0.257317
0.253766
0.720707
0.723247
0.758613
0.820535
0.673955
0.733398
0.995161
100.805
101.15
99.3259
100.002
88.0167
75.0867
99.14
101.255
101.106
101.606
103.137
103.25
103.979
105.512
102.748
103.828
105.935
103.213
103.962
101.745
11.0311
10.8167
10.742
10.3203
13.4037
13.4612
9.45239
12.3128
9.51174
8.23775
12.4631
11.0708
9.14261
6.88012
-2.82567
-2.97265
1.69789
-1.05044
-2.94766
-3.60218
1.18586
352.539
138.147
142.507
620.076
463.747
135.618
258.202
562.492
544.933
2.18757
-5.29571
-2.4342
384.47
207.85
678.36
463.646
-3.85881
-3.24398
-3.44208
-2.13269
-3.74657
-2.45959
-1.40587
-2.64286
-2.60982
-0.159891
-0.239274
0.148028
0.0314867
-0.0311751
-1.13898
-0.0221382
-0.0947275
-0.917089
-2.21352
-2.07565
-2.21384
-2.15262
-1.91248
-2.19238
-1.87085
-0.00529264
-0.00166592
-0.00354753
-0.00170751
-0.0044921
-0.000779172
-0.00423271
-0.000421423
0.00109184
8.09889e-05
0.00106804
-0.000581049
0.000544988
-0.000854135
0.00311255
0.00363361
0.00321485
0.00414478
0.00358904
0.00304228
0.000664064
0.00597393
0.00560404
0.00497693
0.0103025
0.00793985
0.00595893
0.00569143
0.00125574
0.00828972
0.00349359
0.00268662
0.00309101
0.00617201
0.0101826
0.00755747
0.00870429
0.00696902
0.00480517
0.00177746
0.00246072
0.00112117
0.00266294
0.00979007
0.00972809
0.0072286
0.00564557
0.00666548
0.00377181
0.0107274
0.00865499
0.0117474
0.013052
0.0124444
0.00987454
0.0103305
0.00744953
0.00875195
0.00862679
0.0090994
0.00973443
0.0087794
0.00787734
0.0171469
0.0168004
0.0162677
0.0149235
0.0154405
0.0158515
0.0161572
0.0185581
0.0182926
0.0169654
0.0173826
0.0173088
0.0154034
0.0156932
0.0228474
0.0234877
0.0227771
0.0217154
0.0210458
0.0223212
0.021529
0.0404073
0.0409556
0.0441158
0.0415694
0.0426006
0.0445375
0.0456607
0.0713731
0.0783532
0.0801246
0.0923884
0.0819376
0.0780858
0.0860455
0.0168389
0.0168904
0.0223219
0.0284914
0.00357523
0.027274
0.0460976
0.036192
0.049558
0.0456149
0.0207258
0.0010027
0.0398501
0.0097782
-0.0233269
-0.0299807
-0.054414
0.0336908
-0.0362686
-0.111191
0.0310468
-0.0165357
0.0722547
-0.214287
-0.0546855
-0.108143
-0.117234
-0.151612
-0.120651
-0.247203
-0.227725
-0.147076
0.146667
1.17234
3.29337
0.27668
-0.395347
0.826853
1.66049
775.972
2020.3
2651.7
2658.12
2708.51
2636.74
2685.85
-0.28614
-2.43281
-3.24366
-3.85694
-2.04125
-2.10216
3.80127
5.47426
42.5193
9.27435
31.126
4.99963
144.83
16.3629
-0.114072
-0.0948479
-0.184354
-0.0656736
-0.00367146
-0.0330685
-0.0439909
0.514194
0.47118
0.846517
0.0505676
0.714529
0.173849
1.93859
0.110826
0.103193
0.100123
0.103728
0.0963924
0.0870933
0.0975964
0.0559804
0.0651984
0.0656935
0.0775202
0.0714366
0.0560525
0.0628102
0.0722075
0.066993
0.13242
0.123584
0.121917
0.121566
0.11373
0.118972
0.125338
0.122696
0.126358
0.116284
0.120309
0.123213
0.112705
0.115719
0.118253
0.116135
0.123731
0.12129
0.122483
0.12845
0.131515
0.121313
0.129212
0.125929
0.121621
0.121496
0.125679
0.12398
0.119749
0.117719
0.11922
0.120933
0.125483
0.121954
0.120048
0.130919
0.132635
0.129723
0.130362
0.126371
0.128967
0.131704
0.142927
0.144717
0.140814
0.142367
0.141785
0.14157
0.144063
0.136359
0.141241
0.140774
0.141223
0.150846
0.140051
0.141675
0.136124
0.136076
0.148523
0.153454
0.153498
0.15401
0.163577
0.159008
0.155424
0.155036
0.145573
0.150541
0.175145
0.167603
0.165379
0.162788
0.168094
0.157494
0.16311
0.164693
0.164003
0.158712
0.165628
0.17111
0.166306
0.162589
0.169339
0.173262
0.170649
0.184185
0.191874
0.18752
0.181916
0.185133
0.190589
0.178547
0.174155
0.180187
0.183119
0.746783
0.720416
0.645999
0.60175
0.635356
0.671128
0.71043
0.997916
0.992892
1.11242
1.14987
1.29464
1.20456
1.17784
8.97429
4.7839
12.3681
0.671162
1.09622
5.01458
5.38313
11.9313
10.2162
14.7893
20.2365
14.8224
10.8298
19.6766
126.975
124.324
128.915
130.507
126.103
133.117
129.41
110.989
112.651
111.328
117.996
112.43
113.146
-0.0208195
-0.0161606
-0.0152555
-0.0171927
-0.0136184
-0.0150616
-0.012033
-0.00887797
-0.00644304
-0.00628914
-0.00648784
-0.00517787
-0.00537819
-0.00356758
-0.000841648
0.000456132
-0.000949557
0.00176452
0.00123317
-0.00087643
-0.000673077
0.00173686
0.00260141
0.00307332
-0.000133083
0.00441885
0.00194734
0.00104916
-0.000279695
0.00321751
0.00182762
0.00619796
0.00166897
0.00261535
0.00133251
0.00171497
0.00312166
0.00271984
0.000187575
0.000505093
0.000944931
0.000781764
-0.000608499
0.000378517
5.78111e-05
-0.00517065
-0.0038977
-0.00630067
-0.00453065
-0.000768094
-0.003557
-0.00563122
-0.00964991
-0.0142419
-0.0115719
-0.0113601
-0.00767732
-0.0118198
-0.00863361
-0.0230688
-0.0259492
-0.0253935
-0.0167294
-0.0184324
-0.0227679
-0.0234498
0.158852
0.178513
0.152481
0.202209
0.195445
0.17505
0.179838
0.122008
0.108918
0.103698
0.122624
0.112623
0.0978632
0.0931833
0.013997
0.0553142
0.0475016
0.0703022
0.053211
0.000470488
-0.0208893
-0.0101668
0.000380353
0.0716497
-0.000504605
-0.00608541
2383.92
1415.93
2417.3
2011.73
851.405
195.743
2239.34
3.34584
7.65688
5.73675
4.251
5.17073
10.3881
6.0478
3.39153
0.39958
1.68478
0.621142
0.243948
0.630661
2.47346
-0.152892
-0.402027
-0.245782
-0.00480666
-0.029872
-0.0294734
-0.00759208
0.0165638
-0.0282036
0.0703193
0.0446272
-0.00633985
0.0458022
-0.0166618
-0.061739
0.00194314
-0.0176844
0.0183502
-0.0437223
-0.0108806
0.00105147
0.00108648
-0.00151852
0.00308113
-0.00292588
-0.00079825
0.0216193
0.0291138
0.0197524
0.0178685
0.0230734
0.0193043
0.013097
0.0877913
0.0802278
0.0836308
0.0810019
0.0777098
0.082918
0.086248
0.0903953
0.0942602
0.0961734
0.0893344
0.0878133
0.0923004
0.0943291
0.0959119
0.100479
0.102501
0.0938714
0.0919719
0.097593
0.098931
0.102749
0.102454
0.0984413
0.0959203
0.0943015
0.0975241
0.0965531
0.100794
0.101061
0.0872252
0.0889682
0.0898588
0.0865979
0.0891298
0.0907989
0.0887502
0.113891
0.115901
0.119296
0.110013
0.114436
0.113991
0.116329
0.120007
0.120659
0.120298
0.121232
0.113158
0.11395
0.110883
0.116061
0.108406
0.113881
0.126095
0.128325
0.123897
0.124872
0.129467
0.114981
0.131002
0.129769
0.137001
0.130938
0.127509
0.129173
0.131625
0.135083
0.132893
0.131125
0.144508
0.141979
0.147703
0.138867
0.136326
0.136971
0.139625
0.138871
0.138234
0.135994
0.15189
0.154576
0.147671
0.142914
0.141898
0.146275
0.145704
0.0974365
0.0195249
-0.0463565
-0.0184694
0.0839986
0.485874
0.444397
0.427231
0.394215
0.305008
0.398943
0.437536
-0.268985
-0.0097209
-0.0731128
0.173416
-0.209215
0.0468061
-0.19603
0.347981
0.443228
0.471701
0.221437
0.155446
0.494605
0.994558
1.03866
1.39861
0.922114
1.10956
0.553506
2.38568
2.71636
1.81528
1.56642
1.65711
2.37877
1.95593
6.04218
6.78164
5.60233
6.18276
6.44964
4.88918
4.94141
127.14
121.788
123.751
150.012
147.992
149.829
149.338
148.536
149.252
149.848
143.442
138.075
144.498
141.409
146.331
145.966
143.043
144.515
143.602
139.342
142.813
136
141.931
146.109
150.849
150.35
0.017646
0.0200471
0.0166503
0.0160023
0.0129638
0.0117238
0.0152731
0.0155734
0.0153777
0.0238465
-0.00208117
-0.0015291
-0.00923757
-0.00341626
-0.00370142
-0.00762405
-0.00770705
-0.117116
-0.130313
-0.0994267
-0.157479
-0.131925
-0.113437
-0.132352
-0.110301
-0.116172
-0.133896
-0.108732
-0.0948922
-0.10672
-0.121379
0.793141
1.09346
0.622031
1.28429
1.12157
0.680517
0.867412
0.795453
0.485695
0.870397
0.830773
0.459797
0.941524
0.551693
1.40102
0.172327
2.46523
3.38735
2.21009
3.93528
8.23119
-0.222143
-0.373934
0.465383
-0.817771
-0.901006
-0.502822
0.670153
0.626063
0.655302
0.984031
0.283267
0.492023
0.995743
0.188585
0.656054
0.424565
0.367192
0.393835
0.260273
0.24425
0.344774
0.287469
0.197805
-0.0442307
0.0808815
0.0547433
0.0502427
-0.137044
0.0856933
0.298222
0.00972397
0.0140516
0.0450923
0.0190248
0.0240646
0.0330546
0.0150812
-0.00621286
-0.00706162
-0.0252146
0.00123525
0.00158795
0.00367668
0.0029714
0.00375436
0.0051431
0.00639059
-0.000963737
0.000607065
0.00176473
0.00472181
0.00650401
0.000986856
0.00771004
0.00550501
0.00575338
0.00248239
0.00066053
0.00288635
0.00350184
0.00500477
0.00553109
0.00648717
0.0317276
0.0362907
0.0365609
0.0336373
0.0379831
0.0428407
0.0402662
0.0411856
0.0381222
0.0754526
0.0697904
0.0719227
0.0729133
0.069184
0.0718601
0.0752017
0.0812484
0.0836731
0.0784816
0.0822281
0.0808667
0.0808728
0.0782432
0.0950749
0.0881009
0.0865026
0.0845242
0.0884144
0.0796339
0.0847729
0.0925586
0.0952318
0.0960727
0.105447
0.0982217
0.0993278
0.102652
0.0903345
0.0971949
0.0957345
0.103588
0.11022
0.104913
0.103015
0.102783
0.100821
0.116176
0.113345
0.116226
0.11878
0.12101
0.122815
0.117352
0.119585
0.121892
0.119336
0.0569222
0.0654179
0.0407145
0.0596897
0.0511567
0.0478433
0.0346282
0.0825973
0.0640634
0.0752161
0.0788466
0.0667613
0.0744902
0.0845775
-0.0524414
-0.0327531
-0.0188566
-0.0529772
-0.0873429
-0.0557582
-0.0370638
-0.0484138
-0.0530069
-0.0388172
-0.0889384
-0.0578281
-0.0910569
-0.0661339
-0.152609
-0.102584
-0.0696905
-0.0901577
-0.156281
-0.167938
-0.106455
-0.586191
-0.638662
-0.60999
-0.616189
-0.737751
-0.742664
-0.657739
-0.203079
-0.253189
-0.32075
-0.433417
-0.37811
-1.25941
-1.04602
-0.897629
-1.15897
-1.31017
-1.10173
-0.952311
-0.555527
-0.257486
-0.345138
-0.0952402
-0.272842
-0.197727
-0.378232
-1.23567
-0.740435
-0.850856
-1.72214
-1.34006
-1.01186
-1.22274
142.739
143.094
145.859
119.095
116.829
119.326
122.947
119.179
120.999
118.546
130.232
133.496
130.321
130.507
128.677
124.653
110.888
112.683
111.478
109.223
110.442
107.797
110.258
115.073
119.976
118.435
0.0383341
0.0498428
0.044759
0.0597498
0.0650639
0.0523913
0.0562382
0.0488846
0.0492035
0.0449613
0.040837
0.0455895
0.0389977
0.0444887
0.0283161
0.0297497
0.0263593
0.0368978
0.0321
0.0371138
0.0305783
0.0476604
0.0481312
0.056397
0.0244852
0.0277283
0.0292242
0.0172141
0.0216146
0.0243837
0.02576
0.0251536
0.0219099
0.0195503
0.0110654
0.0188009
0.0119049
0.0156427
0.00668501
0.0216994
0.0140687
0.0242081
0.0166161
0.786548
0.488401
0.474044
1.14246
1.71841
0.747245
1.63824
0.379321
0.225292
0.244007
0.597463
0.43743
0.291887
0.250933
0.0580998
0.0639599
0.0650144
0.0680695
0.0658657
0.0588679
0.0639108
0.00677773
0.00961502
0.00620221
0.0251715
0.0321964
0.028893
0.0246181
0.029551
0.0318946
0.0284754
0.00624234
0.00310827
0.00697505
0.0103589
0.0153753
0.00754232
0.00297583
0.00665189
0.010969
0.00369126
0.00108736
0.00597092
0.000811574
0.00317494
0.0033285
0.00493951
0.00508599
0.00735505
0.00637456
0.00638
0.00709601
0.00959106
0.00317706
0.00108533
0.00592011
0.00774062
0.00481156
0.00476902
0.00183529
0.00393078
0.0044542
0.00191335
0.00563954
0.00713207
0.00475122
0.0428184
0.0409978
0.0433904
0.0449335
0.0458418
0.0441395
0.0416897
0.0659657
0.073016
0.0674462
0.069006
0.0659497
0.0599239
0.080018
0.0821488
0.0771194
0.076598
0.0731624
0.0798935
0.075337
0.0714762
0.0898897
0.0899102
0.0918929
0.0998743
0.0991279
0.100761
0.102853
0.102336
0.100053
0.101148
0.100259
0.0964206
0.0973418
0.0978669
0.0991605
0.0960001
0.0986167
0.107305
0.106613
0.105477
0.103691
0.106145
0.103955
0.10576
0.111346
0.107
0.110362
0.111479
0.108624
0.106853
0.110121
0.111392
0.114411
0.111797
0.117646
0.114709
0.114637
0.116667
0.121326
0.120315
0.121973
0.121261
0.121264
0.1216
0.121655
0.114716
0.116153
0.112623
0.117341
0.117458
0.115714
0.114798
0.104668
0.107473
0.107522
0.110635
0.10864
0.103279
0.106359
0.0971264
0.094366
0.0979458
0.0986924
0.0982066
0.104846
0.10385
0.0897397
0.0794252
0.0871072
0.0867756
0.0987464
0.0054263
-0.000595416
-0.0234417
-0.0483471
-0.0533896
0.00759587
-0.00176442
-0.0365134
-0.0404358
0.0300443
0.0109181
0.0210363
0.0093913
0.0345585
0.0403818
0.0211616
0.0217511
0.0428932
-0.180948
-0.172456
-0.212778
-0.26374
-0.297981
-0.216148
-0.237858
-0.484823
-0.521856
-0.472639
-0.60483
-0.644306
-0.60751
-0.593882
-0.458153
-0.391181
-0.391307
-0.38151
-0.348993
-0.400157
-0.453083
-0.716387
-0.621105
-0.602361
-0.59997
-0.652546
-0.656483
-0.703877
-0.783016
-0.854579
-0.954923
-0.882835
-0.923627
-0.887928
-0.842115
28.7511
39.5476
38.2008
97.067
120.133
160.03
79.4016
110.924
110.813
113.97
101.761
102.295
102.241
100.902
104.298
103.522
101.557
104.002
106.219
104.681
103.612
103.598
103.742
101.986
102.511
101.91
96.6625
98.8017
98.119
96.5662
99.4604
96.2824
98.9979
98.5277
105.349
104.18
97.9558
105.301
100.417
101.367
101.073
6.74445
2.38853
4.90424
2.22367
2.77437
0.773652
6.88707
3.3897
2.11083
2.44565
2.11337
4.08614
5.01712
1.31285
0.623071
0.693551
1.03678
0.678464
1.05547
1.95608
2.21519
2.10611
1.70585
0.309869
0.286399
0.346162
0.361941
0.340931
0.435172
0.40308
0.375297
0.381847
0.249228
0.256425
0.238243
0.248453
0.256544
0.260638
0.256824
0.234899
0.245742
0.224386
0.236135
0.222518
0.222813
0.205877
0.128196
0.113037
0.126236
0.132105
0.123556
0.111027
0.122269
0.12855
0.137925
0.12105
0.12034
0.110913
0.120173
0.128845
0.0909123
0.080182
0.0935644
0.0977887
0.0908962
0.0963297
0.10472
0.0822232
0.0890929
0.0894851
0.0871885
0.093302
0.0819773
0.0879514
0.0897985
0.0830544
0.0862018
0.0987073
0.0891868
0.0623305
0.0715862
0.0724026
0.069222
0.0720556
0.0725024
0.0792963
0.0594773
0.0684082
0.0678163
0.0672011
0.0599193
0.0905216
0.0911061
0.08127
0.0956044
0.104167
0.0963623
0.0902588
0.159357
0.149123
0.166409
0.169667
0.153733
0.146082
0.160482
0.192562
0.176153
0.18229
0.167952
0.154558
0.178095
0.168952
6.7055
4.7916
4.60011
7.57554
5.71445
11.0275
7.57216
9.11226
12.1161
13.1443
8.01373
8.16508
10.5457
7.97606
7.73639
8.267
9.66227
8.36432
9.53833
9.67041
11.5639
11.7774
10.6787
13.5093
15.3549
10.4324
13.1928
0.253422
0.275833
0.26802
0.261483
0.252669
0.264667
0.270035
0.253857
0.280913
0.244913
0.244403
0.256657
0.267945
0.261848
0.218095
0.216448
0.235248
0.235542
0.235669
0.231119
0.235579
-0.590082
-0.879237
-0.849621
-0.870727
-1.07865
-1.05456
-0.827699
-1.66962
-1.61893
-1.60968
-1.24277
-1.44756
-1.33862
-1.5011
-0.138065
-0.205917
-0.308169
-0.479197
-0.343008
-0.210021
-0.248668
-0.342357
-0.416498
0.514899
0.0784081
0.586151
0.339696
-0.0684238
-0.151297
0.300228
1566.81
1512.84
1391.11
494.607
1129.58
1544.62
969.958
1477.71
1143.8
693.871
612.593
954.208
1499.96
1541.11
1053.84
775.267
1480.63
1652.74
687.787
1658.97
487.735
11.0126
59.5261
22.7755
5.51002
9.81838
41.9591
72.6449
1.60409
21.04
15.9112
2.43395
0.734247
0.406183
0.353869
0.368712
0.454059
0.448059
0.450867
0.41669
0.329018
0.345598
0.296728
0.309389
0.340018
0.143816
0.139261
0.147257
0.131568
0.128374
0.134936
0.136858
0.106025
0.105016
0.107771
0.0994523
0.095957
0.0980459
0.101568
0.0845612
0.0778063
0.0822042
0.0834189
0.0769927
0.0804396
0.0839944
0.0511621
0.0545712
0.0569397
0.0589644
0.056747
0.0525563
0.0557732
0.0377844
0.0441442
0.0404761
0.0364729
0.0313582
0.0211193
0.0273162
0.0223298
0.0205975
0.0231564
0.0262001
0.0228036
0.0100727
0.00590513
0.00572178
0.0124819
0.00700272
0.00835307
0.0127728
0.00052046
0.00286507
0.00444719
0.00627976
0.0114343
0.00659947
0.00260779
0.00613336
0.00413198
0.00705837
0.00933392
0.00572967
0.00208281
0.00291811
0.000821423
0.00562117
0.0063749
0.0114014
0.00914957
0.00565086
0.00442506
0.00100566