/*--------------------------------*- C++ -*----------------------------------*\
| =========                 |                                                 |
| \\      /  F ield         | OpenFOAM: The Open Source CFD Toolbox           |
|  \\    /   O peration     | Version:  v2012                                 |
|   \\  /    A nd           | Website:  www.openfoam.com                      |
|    \\/     M anipulation  |                                                 |
\*---------------------------------------------------------------------------*/
FoamFile
{
    version     2.0;
    format      ascii;
    class       volVectorField;
    location    "0.15";
    object      U;
}
// * * * * * * * * * * * * * * * * * * * * * * * * * * * * * * * * * * * * * //

dimensions      [0 1 -1 0 0 0 0];


internalField   nonuniform List<vector> 
6576
(
(0.03163 -1.4829 -0.0576527)
(-0.0844471 -1.5291 0.0711755)
(-0.0285786 -1.56486 0.0128156)
(0.0407309 -1.45324 -0.0562521)
(-0.00293123 -1.50522 0.00568956)
(-0.0717738 -1.59148 0.0730949)
(-0.013913 -1.54366 0.0300511)
(0.0130056 -1.49734 -0.00063191)
(0.0140803 -1.24849 -0.0105451)
(0.0143782 -1.46023 -0.001625)
(-0.0112556 -1.51846 -0.0164678)
(-0.0157213 -1.5618 -0.0135157)
(-0.0021151 -1.54854 0.00330192)
(0.00603253 -1.48796 -0.00166184)
(0.053825 -1.45567 0.0219426)
(0.0100751 -1.82082 -0.0319064)
(0.0560726 -0.863081 0.0325432)
(0.0155979 -1.71576 -0.0167168)
(0.049428 -1.55898 0.0572678)
(0.0145092 -1.48105 0.0018231)
(0.0420457 -1.37525 0.0444072)
(0.00183131 -1.51561 0.0108291)
(0.00895938 -1.46458 0.00681063)
(-0.00483255 -1.49995 -0.0125896)
(0.00246979 -1.60451 0.00894931)
(0.0478885 -1.52863 0.0495443)
(0.0583294 -1.49553 0.0590621)
(-0.00050198 -1.45771 0.0142871)
(-0.00589853 -1.58119 -0.0307072)
(0.00145018 -0.961335 -0.00668716)
(-0.0473594 -1.57004 0.0570062)
(-0.0248875 -1.45417 -0.00861777)
(-0.00893668 -1.5531 -0.000549101)
(0.00958225 -1.45316 0.0288687)
(0.0138954 -1.46391 0.0331236)
(-0.017258 -1.25286 0.0102077)
(0.0036011 -1.63763 0.0123384)
(-0.0116623 -1.56555 0.0105301)
(0.016546 -1.47895 0.0240352)
(0.00925748 -1.47427 0.0170471)
(0.00125175 -1.31494 0.0313137)
(-0.0152739 -1.47493 0.00668952)
(-0.00163998 -1.4053 0.00523405)
(-0.0180674 0.154751 0.196629)
(-0.0199444 0.220175 0.239185)
(-0.060043 -0.0294366 0.270825)
(-0.169804 0.154479 0.21107)
(-0.0487807 0.136514 0.0109977)
(0.0139234 0.0391771 0.0255564)
(0.118272 -0.0236794 0.127633)
(0.171359 0.00216728 0.00733573)
(0.108734 0.0357219 0.00152493)
(-0.0037874 0.353691 -0.0165378)
(0.00162634 0.351311 0.00487378)
(-0.00135145 0.348805 -0.00390807)
(-0.00340539 0.352603 0.00847214)
(-0.00590713 0.344487 -0.0046062)
(-0.0106198 0.34401 -0.00184406)
(-0.00323356 0.349088 0.00198259)
(-0.0050445 0.354585 -0.00699202)
(-0.013388 0.3484 0.00656445)
(0.0023331 0.362319 -0.0157512)
(0.000952047 0.360517 0.00286037)
(0.00710725 0.355972 -0.000266278)
(0.000724802 0.362279 0.0111836)
(-0.00978859 0.364292 0.0124778)
(-0.00168557 0.35267 0.00372635)
(0.00282144 0.350817 -0.00100674)
(0.000316357 0.336987 -0.0123869)
(0.00945812 0.353508 0.00299391)
(-0.00684852 0.360021 0.00961195)
(0.00101292 0.347555 -0.000855649)
(-0.0129718 0.355576 0.010475)
(-0.165335 -2.34127 -0.386136)
(-0.213121 -1.67488 -0.69054)
(0.00877425 -3.02363 0.073047)
(-0.105469 -1.90276 -0.61506)
(-0.0733032 -2.3979 -0.383194)
(-0.0314408 -2.80471 -0.0566565)
(0.0266532 -2.38399 -0.170095)
(-0.0552959 -1.25968 -0.393019)
(0.0383227 -0.761157 -0.564251)
(0.062306 -0.141561 -0.630713)
(-0.185276 -1.16355 -0.745773)
(-0.167381 -1.39547 -0.625494)
(-0.147219 -1.07198 -0.644065)
(-0.109781 -0.786624 -0.724321)
(-0.0521048 -0.190723 0.290541)
(0.0950117 -0.204814 0.377254)
(0.0286147 -0.257966 0.556388)
(0.0665488 0.0880872 0.425555)
(-0.0613965 0.0251589 0.396677)
(0.135247 0.0459004 0.360388)
(-0.157237 -0.0298377 0.139774)
(-0.437166 -0.563148 0.757134)
(0.242271 -0.69085 0.92237)
(-0.453247 -0.0163267 0.2219)
(-0.256699 -0.415197 0.457542)
(0.384359 -0.219946 0.24409)
(-0.435784 0.33872 0.829713)
(-0.48378 0.259354 0.924388)
(0.00359546 -0.000339378 -0.00744327)
(0.00344461 0.00146307 -0.00799029)
(0.00166591 0.0114498 -0.00143511)
(0.00621651 0.00683446 -0.00639589)
(0.00087004 0.00276908 0.00583431)
(0.0010926 0.0132431 0.00149985)
(-0.0122914 0.00585605 -0.00898969)
(0.0324846 0.0237277 -0.00571301)
(-0.0041795 0.00653869 -0.00440061)
(0.0232653 -0.00139793 -0.0058465)
(-0.0375519 0.0686721 -0.0322986)
(0.0022206 -0.00419854 -0.0814602)
(0.00254954 0.00732473 -0.0384702)
(0.0313337 -1.5892 0.0856574)
(0.00132455 -2.01431 0.030752)
(0.0699427 -1.9343 0.0629945)
(-0.0291225 -2.10252 0.0315733)
(-0.0125792 -2.16836 0.0647466)
(0.0639443 -2.12252 0.0665099)
(0.0522292 -2.06892 0.115672)
(0.020042 -1.47128 0.0813915)
(0.0782566 -1.5791 0.121043)
(-0.0216486 -1.46249 0.0328608)
(-0.0450397 -1.5413 -0.0342715)
(-0.0573965 -1.52001 -0.0041283)
(0.129278 -1.70331 0.148316)
(0.208 -1.5114 0.111246)
(0.227466 -0.976896 -0.116733)
(0.303405 -1.02951 -0.0248734)
(-0.0104948 -0.973092 -0.0657154)
(-0.117772 -1.01475 -0.0812591)
(-0.131878 -1.05666 -0.281699)
(-0.527593 -1.1024 0.121559)
(-0.517778 -1.18456 -0.346266)
(-0.000183355 0.260166 -0.0757678)
(0.00442039 0.279788 -0.0524143)
(0.00260701 0.269764 -0.0583348)
(-0.0019987 0.276659 -0.0777805)
(0.00077425 0.280595 -0.074476)
(0.00833663 0.281987 -0.0596195)
(0.00265757 0.275801 -0.0612489)
(-0.00143838 0.23962 -0.0565679)
(0.00109061 0.239333 -0.0845729)
(0.0120956 0.259912 -0.055504)
(-0.0075774 0.244532 -0.0747525)
(0.00356201 0.248278 -0.0726642)
(0.0120485 0.255582 -0.0546613)
(-0.00577975 0.238954 -0.0486778)
(-3.89119e-05 0.241687 -0.0631872)
(0.00237303 0.245185 -0.0543148)
(-0.00759031 0.246276 -0.0586605)
(0.0045812 0.245951 -0.072796)
(-0.00484052 0.251689 -0.0714636)
(-0.0121689 0.246969 -0.0709001)
(-0.00131558 0.241802 -0.0782911)
(0.0113966 0.215704 -0.0797563)
(0.00274314 0.213831 -0.0900555)
(-0.000276234 0.222564 -0.0962942)
(0.00930844 0.223325 -0.0771551)
(-0.000478332 0.217483 -0.0876801)
(-0.0147365 0.227248 -0.0930725)
(0.00509408 0.221639 -0.0733573)
(-0.00546685 0.219224 -0.0850262)
(0.0192226 0.210287 -0.0644675)
(-4.10852e-05 0.207446 -0.0588024)
(0.000446174 0.204974 -0.0523522)
(-0.0095722 0.216436 -0.0552266)
(-0.00118284 0.208802 -0.0912219)
(0.0110351 0.200603 -0.070998)
(0.0121766 0.197238 -0.0736074)
(-0.00418473 0.211514 -0.0810905)
(0.0201325 0.222055 -0.0723473)
(-0.00491968 0.195677 -0.0840064)
(0.00141653 0.181035 -0.124501)
(0.0205315 0.222579 -0.0805167)
(-0.0210061 0.17054 -0.0498983)
(0.0123691 0.207497 -0.109199)
(-0.00254927 0.19557 -0.121334)
(-0.00133258 0.206566 -0.0923326)
(0.0118705 0.229441 -0.0917157)
(0.000981509 0.11726 -0.104227)
(-0.00723 0.099511 -0.109491)
(0.00112799 0.0909654 -0.135316)
(-0.000753726 0.123123 -0.107811)
(-0.00228345 0.10214 -0.11419)
(0.0136668 0.0942519 -0.138795)
(0.00557847 0.107633 -0.136657)
(0.00995766 0.110233 -0.113803)
(0.0105451 0.0913122 -0.124068)
(-0.0200439 0.0727282 -0.0372036)
(0.00511566 0.0654741 -0.0439126)
(-0.0176731 0.0513827 -0.0284482)
(0.0046598 0.0889059 -0.0575419)
(-0.0116021 0.0929535 -0.0900965)
(-0.0121429 0.0575846 -0.0506067)
(-0.0236339 0.085673 -0.0647242)
(0.0076714 -0.0240758 -0.152922)
(0.0357882 0.0150943 -0.0891431)
(-0.0123817 -0.0408882 -0.109552)
(-0.0362314 0.0022027 -0.116376)
(-0.0174537 0.0573908 -0.10928)
(0.0228028 0.0669299 -0.124831)
(-0.0387318 -0.0117549 -0.105491)
(-0.000296998 -0.0891427 -0.0725854)
(-0.041741 -0.182305 -0.0947247)
(0.00901879 -0.140099 -0.130583)
(0.00926834 -0.0492165 -0.0401768)
(0.0257877 -0.0477374 -0.0185634)
(0.0301051 -0.0958756 -0.0832315)
(0.074932 -0.0974032 -0.16852)
(-0.053045 -0.98245 0.44212)
(0.135123 -0.528032 -0.133926)
(0.00711803 -0.283883 -0.4009)
(-0.228784 -0.348542 -0.887659)
(-0.283293 -0.801117 -0.369658)
(-0.27842 -1.27084 0.03351)
(-0.36631 -0.256021 -0.610251)
(-0.00273007 0.104406 0.0898808)
(0.00483815 0.118094 0.122916)
(-0.0272849 0.0757492 0.111792)
(-0.010679 0.113733 0.0257614)
(-0.00670534 0.127677 0.0489886)
(-0.0217653 0.124966 0.0915804)
(-0.0430649 0.0926103 0.0894665)
(0.0318862 0.144326 0.0208855)
(-0.00568258 0.10906 0.0228744)
(0.00113638 0.113502 -0.00340045)
(-0.0323132 0.0543873 0.0761485)
(0.0214475 0.104799 0.0331365)
(-0.000248723 0.0999155 0.00696395)
(-0.0137087 0.0730169 0.031017)
(0.000633968 0.0983694 -0.0129529)
(0.000492195 0.130895 -0.0450459)
(0.00937959 0.117926 -0.0182779)
(0.00211946 0.109269 -0.0352647)
(-0.00660751 0.114993 -0.0583618)
(-0.00797666 0.128979 -0.0744612)
(0.000728884 0.123031 -0.0418607)
(-0.00419429 0.164444 -0.0570045)
(0.000335782 0.16954 -0.0323289)
(-0.00275495 0.178107 -0.0739153)
(-0.0143936 0.180897 -0.019478)
(-0.00788243 0.166061 -0.0157713)
(-0.0157826 0.178909 -0.055275)
(-0.0107779 0.153739 -0.0419569)
(-0.000782832 0.200606 -0.0526461)
(-0.00274689 0.210636 -0.045942)
(-0.000785784 0.212898 -0.056629)
(-0.00184024 0.193156 -0.0671802)
(-0.00181145 0.187798 -0.068861)
(-0.0069405 0.204597 -0.0671977)
(0.000221678 0.202322 -0.0679877)
(-0.00399699 0.220765 -0.0467457)
(-0.00397686 0.217459 -0.0558891)
(-0.00453363 0.246939 -0.050293)
(-0.00731962 0.247311 -0.054306)
(-0.0102098 0.254483 -0.0494731)
(0.0163135 0.220768 -0.0687001)
(0.00808055 0.234302 -0.0636608)
(0.0106228 0.236432 -0.0704014)
(0.000622946 0.24303 -0.0637831)
(-0.00109773 0.294651 -0.0254503)
(0.00269621 0.281856 -0.0322485)
(0.00840751 0.275271 -0.0327014)
(-0.00270054 0.291577 -0.0218017)
(-0.0060402 0.295473 -0.0176569)
(-0.000145936 0.284059 -0.0306502)
(0.00923471 0.281488 -0.0334101)
(-0.010042 -0.0230072 0.0193013)
(0.00798267 0.00286956 0.0250383)
(0.0129331 -0.0646012 0.00921683)
(-0.0159442 0.0158106 0.0119749)
(0.00994121 0.0131357 0.0136272)
(-0.0149865 0.0577055 -0.0274444)
(0.0468085 -0.0253159 -0.0153259)
(-0.0149111 -0.0239072 -0.00451666)
(0.0106526 0.010123 -0.00367587)
(-0.225503 -0.402519 -0.656536)
(-0.212985 -0.159292 -0.76091)
(0.277186 -0.453437 -0.696712)
(-0.1438 0.740438 0.079665)
(-0.364506 0.0325778 -0.035329)
(0.396345 0.588857 -0.0374947)
(0.062771 0.468772 -0.692738)
(0.0453104 0.413085 0.0127455)
(0.0187719 0.368774 0.0518882)
(-0.0333534 0.44995 -0.221888)
(-0.0296528 0.274313 -0.103303)
(0.0229682 0.22464 -0.0647273)
(-0.0622863 0.357216 0.0883459)
(0.00286836 0.35974 0.0933858)
(-0.0324473 0.373885 -0.038385)
(0.0640529 0.359063 -0.0115097)
(-0.0669124 -0.0924283 0.604363)
(-0.218597 -0.911251 -0.263144)
(0.20978 0.379809 0.66347)
(0.248594 0.359766 0.485388)
(-0.108489 0.205981 -0.0922214)
(0.0542231 0.557941 0.186507)
(0.15363 0.219881 -0.282366)
(0.0557548 0.613685 -0.199228)
(-0.0117132 0.816755 -0.141815)
(0.0780856 0.460949 0.227645)
(0.0136032 0.471836 -0.0754435)
(0.0171018 0.483911 -0.0857744)
(-0.00467429 0.451983 -0.0704505)
(-0.00458159 0.4689 -0.0775676)
(-0.00752902 0.464079 -0.0756745)
(-0.0118694 0.457334 -0.085456)
(-0.00848011 0.456686 -0.0901151)
(-0.072496 -2.06814 -0.0693329)
(-0.0647171 -2.0507 -0.0622465)
(0.0406916 -2.07939 0.0346098)
(-0.0653372 -2.0074 -0.0914511)
(-0.048156 -1.98107 -0.0698527)
(0.050656 -1.95474 0.00597671)
(0.0120379 -1.76586 0.0502565)
(0.0565476 -1.90495 -0.0171815)
(0.132292 -1.96131 -0.127682)
(-0.00299846 0.609718 0.00472446)
(-0.00553826 0.697058 0.0414037)
(-0.0021617 0.696542 0.0074172)
(-0.00340888 0.672399 0.0641468)
(0.0516549 0.670405 0.0312523)
(-0.0511134 0.749039 0.121873)
(0.0149928 0.72238 0.0396248)
(-0.0376219 -0.034092 -0.159621)
(-0.0208569 -0.207705 -0.0951295)
(0.0456556 -0.0108237 -0.199947)
(0.00157061 -0.0476848 -0.257653)
(0.116279 -0.0144982 -0.287573)
(0.0655201 0.103426 -0.273624)
(-0.0132949 0.139406 -0.283854)
(-0.0797438 -0.234654 -0.0456852)
(0.00905771 -0.238177 -0.042551)
(0.0101691 -0.0860781 -0.139714)
(-0.0279352 -0.103258 -0.139799)
(-0.0487413 -0.0765987 -0.115509)
(-0.153641 -0.174785 -0.0840866)
(-0.121528 -0.0399066 -0.0568548)
(-0.12134 0.0187702 -0.189663)
(-0.123155 -0.130995 -0.117428)
(0.146545 -0.196419 -0.300678)
(-0.129949 0.204605 -0.353813)
(-0.0898465 0.253905 -0.422766)
(0.841934 -0.858968 -0.348398)
(0.118096 -0.0678528 -0.368272)
(0.14695 0.0885807 -0.314491)
(0.124202 0.234223 -0.335263)
(0.00322328 -0.023268 -0.269675)
(-0.0237663 -0.27421 -0.17714)
(0.00692322 -0.00336959 -0.0290759)
(0.00243444 0.0237436 0.0130201)
(-0.00325062 -0.00521923 -0.0028524)
(0.00165422 0.0168662 0.00124307)
(-0.0152734 0.00663768 -0.0433131)
(0.002572 -0.0203511 0.0714897)
(0.0148456 -0.0116217 0.037398)
(0.0100849 0.0115532 0.00717976)
(0.0175093 0.00118731 0.0151811)
(0.00292134 0.00184661 0.0123725)
(0.0167263 0.0194735 0.0145566)
(0.00875592 0.0147504 0.0171904)
(-0.0173595 0.00878195 -0.0322169)
(-0.00698707 -0.00282053 -0.0124346)
(-0.000207957 -0.0289436 0.0021048)
(0.0115108 0.00523856 -0.000815589)
(0.0865611 -0.247381 -0.200416)
(0.0989417 -0.146653 -0.181069)
(-0.0954076 -0.272509 -0.0571767)
(-0.137244 0.0724395 0.122233)
(0.157044 -0.0244038 -0.0496683)
(0.0705276 -0.118627 -0.410633)
(-0.0147736 -0.286476 -0.370234)
(-0.0475764 -0.0794857 -0.099659)
(-0.0495642 0.0031983 -0.148226)
(-0.0834862 -0.23336 -0.0920127)
(0.16298 -0.00783639 -0.223657)
(0.108216 -0.132167 -0.139179)
(0.0118121 -0.0243764 -0.147033)
(0.0701103 -0.0800342 -0.164361)
(0.0085303 0.696065 -0.24274)
(0.00883509 0.703829 -0.27535)
(0.017048 0.670293 -0.271842)
(0.00302599 0.815607 -0.3054)
(0.0182566 0.776052 -0.351498)
(0.000918225 0.798719 -0.309305)
(0.0260672 0.743204 -0.338681)
(0.0290857 0.695636 -0.306767)
(0.011245 0.753029 -0.268998)
(0.0962527 0.893362 -0.0382807)
(-0.00871501 0.900993 0.0539455)
(-0.00436934 0.808622 -0.0756529)
(-0.0437721 0.966043 0.0195743)
(0.0216089 0.943517 -0.114419)
(-0.108694 1.03404 0.169795)
(0.0740248 0.998275 -0.029952)
(-0.0651483 0.0708153 0.399834)
(-0.0753983 -0.389787 0.334059)
(0.0409546 0.24125 0.188249)
(-0.0704974 -0.868529 0.150986)
(-0.0967498 -0.619332 0.217957)
(-0.14144 -0.453406 0.277761)
(-0.171132 -0.0576195 0.206482)
(-0.0846464 0.22217 0.155956)
(-0.258127 0.0255502 0.473466)
(-0.0159974 -1.80911 -0.0807908)
(-0.00839882 -1.97414 -0.0367255)
(-0.00326104 -2.03429 -0.074751)
(-0.0522837 -1.91734 -0.161498)
(0.020716 -1.92406 -0.107313)
(0.00322598 -1.96979 -0.0974838)
(-0.0567291 -1.99077 -0.154419)
(0.000888058 -2.2792 -0.0504789)
(0.00427244 -2.25092 -0.0448134)
(0.00266053 -2.25385 -0.0560485)
(0.00269538 -2.28465 -0.0754988)
(-0.00944839 -2.28976 -0.0710755)
(-0.0181376 -2.28205 -0.0747202)
(-0.00161225 -2.26689 -0.070868)
(0.000990771 0.216266 -0.0150452)
(-0.00190745 0.211733 -0.0191212)
(-0.0019901 0.214979 -0.0157672)
(-0.000206294 0.214614 -0.0229659)
(0.00174027 0.217505 -0.0195811)
(0.000149453 0.213112 -0.0250092)
(0.000553129 0.215756 -0.0202268)
(-0.000696453 0.23072 -0.018933)
(0.000395652 0.229383 -0.0168279)
(-0.000891836 0.227425 -0.0207491)
(0.0036165 0.229389 -0.0130774)
(0.000802632 0.234619 -0.0182724)
(0.00101751 0.237985 -0.0175959)
(0.00281601 0.230401 -0.0157431)
(1.72708e-05 0.2436 -0.0154281)
(1.51723e-05 0.243747 -0.016519)
(-0.000202666 0.244855 -0.0141397)
(0.000478216 0.247232 -0.0164535)
(-0.000287544 0.245137 -0.0162867)
(-0.00228263 0.244846 -0.0204148)
(-0.000335667 0.246974 -0.0168936)
(6.32945e-05 0.262039 -0.00820373)
(-0.00173724 0.256819 -0.00129076)
(0.00010333 0.249991 0.00441791)
(-0.00133242 0.2677 -0.00777863)
(-0.00256656 0.26271 -0.00116323)
(0.000203167 0.256239 0.001063)
(0.00141098 0.262541 -0.00583363)
(-0.00140855 0.263002 0.00117052)
(-0.00131272 0.269573 -0.00544251)
(-0.00208157 0.244161 0.00412905)
(-0.0010555 0.247759 0.00554724)
(0.00068472 0.250795 0.00440342)
(0.00201464 0.254855 0.0061208)
(0.000724582 0.250965 0.00435558)
(0.000211 0.252207 0.00750913)
(-0.001667 0.248328 0.00586108)
(-0.0123533 0.101281 0.00344569)
(-0.00071228 0.230635 -0.00182202)
(-0.00840175 0.227034 0.00704926)
(0.00131352 0.264089 -0.01069)
(-0.013091 0.190515 0.00501266)
(-0.000591125 0.276061 -0.00571141)
(-0.0113785 0.257893 0.0120521)
(0.00148799 0.254605 -0.0140535)
(-0.000674596 0.259049 -0.00487984)
(-0.00970968 0.260792 -0.00333998)
(-0.00100812 0.252395 0.0052466)
(0.00183246 0.258689 -4.12157e-06)
(-0.00448909 0.258969 0.00473697)
(-0.0147217 0.264026 0.0129721)
(-0.00164213 0.257203 0.0049737)
(-0.00284638 0.237883 0.000949679)
(-0.00383885 0.221152 0.000885736)
(0.0133338 0.200241 0.00837149)
(0.00347297 0.244403 0.00774595)
(0.00275262 0.237944 -0.00848561)
(0.00119536 0.206751 -0.00628914)
(-0.00818929 0.272742 -0.0040227)
(0.00198268 0.255096 -0.0092124)
(-0.000646128 0.265373 -0.00864847)
(-0.0147558 0.24916 0.0110764)
(-0.0144085 0.179069 0.00241944)
(-0.00710501 0.224848 0.00776026)
(-0.00722531 0.258009 0.007754)
(0.0055237 0.218658 0.000956579)
(0.003314 0.112237 -0.00177637)
(0.00361518 0.227218 -0.0121184)
(-0.0150513 0.219638 0.0106927)
(-0.017779 0.0908551 0.00194869)
(-0.0115095 0.223302 0.00363391)
(0.00286075 0.242716 0.00466355)
(0.00633107 0.243303 -0.000134013)
(-0.00161332 0.239957 0.0102019)
(0.000844325 0.239354 0.00223426)
(-0.000877353 0.241301 0.00499558)
(-0.0027957 0.242454 0.00791868)
(0.000277053 0.240802 0.00269371)
(7.61354e-05 0.242961 0.00883768)
(-0.00299103 0.239275 0.00325431)
(0.00063659 0.241304 0.00704911)
(-0.00191444 0.242029 -0.00219637)
(0.00058813 0.243009 0.0010576)
(-0.00267124 0.238817 0.00199559)
(-0.000412585 0.240072 0.00441838)
(-0.00115887 0.238647 0.00372597)
(0.00182913 0.242048 0.00498512)
(-0.000877282 0.240844 0.00338021)
(0.000384672 0.24736 0.00226037)
(-2.68634e-05 0.246489 0.00238707)
(0.00206048 0.245394 0.00319344)
(-0.00100243 0.247907 0.00369801)
(-0.00221924 0.248125 0.00749663)
(-0.00164709 0.246601 0.00620628)
(-0.00310941 0.247313 0.00747992)
(-0.00253922 0.247375 0.00560152)
(-6.81529e-05 0.246409 0.00537244)
(0.00181404 0.248385 0.00639653)
(0.00257822 0.248239 0.00758724)
(0.00176682 0.24888 0.0093389)
(-0.00105938 0.247325 0.00689733)
(-0.000702076 0.248153 0.00686623)
(-0.00146948 0.249061 0.00900138)
(-0.00405372 0.247744 0.00524579)
(-0.000861514 0.247128 0.00660667)
(0.00234894 0.247766 0.00713161)
(-0.00249057 0.247406 0.00320216)
(0.00060657 0.246855 0.0111718)
(0.000556107 0.243755 0.00623528)
(-0.00329776 0.24014 0.0104267)
(-0.000109733 0.242049 0.0137017)
(0.00279384 0.240889 0.00833169)
(-0.000489052 0.236295 0.00561899)
(0.00105344 0.23146 -0.000796802)
(0.00320534 0.235079 -0.00642326)
(0.000206066 0.233663 -0.00913448)
(-0.00484562 0.241567 -0.00449739)
(-0.00381674 0.240569 -0.000526111)
(-0.00487955 0.242011 -0.00607065)
(-0.00179509 0.242085 -0.00512979)
(0.000740023 0.238724 -0.00710505)
(-0.00259094 0.238534 -0.00868325)
(-0.00290738 0.232099 -0.000170869)
(0.00328742 0.223437 -0.00217744)
(0.000307278 0.219618 -0.0125205)
(0.00721718 0.211383 -0.00407059)
(-0.00725936 0.227651 -0.000695379)
(0.00269522 0.225555 0.00321319)
(-0.0178163 0.251936 0.0167888)
(-0.00186854 0.213644 0.0100899)
(0.0117572 0.211697 0.00798787)
(0.00750854 0.204933 -0.00579792)
(-0.0105166 0.193883 -0.000353133)
(-0.00370119 0.212183 0.0091325)
(0.0064879 0.207562 0.006689)
(-0.00108574 0.197476 -0.00540667)
(0.000481305 0.207189 -0.00557797)
(0.000785799 0.200885 -0.00284744)
(0.00117991 0.208321 -0.00284204)
(0.000875772 0.191777 -0.00934642)
(0.00186164 0.195646 -0.00584)
(0.00686514 0.207632 -0.0032285)
(0.00516352 0.203896 -0.00801804)
(0.00050154 0.182593 -0.0834139)
(0.00599176 0.215153 -0.0600312)
(0.0096653 0.191618 -0.0764289)
(-0.00935903 0.197099 -0.0676899)
(-0.00725297 0.213218 -0.0552802)
(0.00686419 0.195442 -0.0930818)
(-0.0069991 0.196662 -0.0733834)
(-0.00135557 0.209998 -0.0860299)
(0.00192626 0.203258 -0.083666)
(0.00347026 0.202563 -0.0928704)
(-0.0014653 0.19776 -0.0750745)
(0.00659954 0.190434 -0.0875213)
(-0.00222986 0.190336 -0.0830675)
(-0.00103418 0.198706 -0.102259)
(0.00344665 0.186178 -0.0796961)
(-0.0107632 0.186327 -0.0918786)
(-0.0115441 0.189513 -0.11138)
(-0.00282901 0.199883 -0.115832)
(-0.00795632 0.190613 -0.0947674)
(-0.0149779 0.150219 -0.102087)
(-0.000717116 0.227516 -0.0872488)
(-0.00366477 0.116955 -0.0853435)
(-0.014221 0.159289 -0.238354)
(-0.0518266 0.241386 -0.34348)
(-0.0390302 0.295505 -0.337366)
(-0.0321882 0.217109 -0.241691)
(0.0387373 0.263612 0.173622)
(-0.0153794 0.348944 0.165829)
(0.0428708 0.243736 0.177246)
(0.0045319 0.291871 0.205977)
(0.00722169 0.256344 0.177529)
(0.0309943 0.204223 0.156824)
(0.0356841 0.228695 0.183737)
(0.000521009 0.324515 0.148905)
(0.00218581 0.332691 0.167965)
(-0.0058973 0.361031 0.188681)
(-0.00249957 0.353577 0.195327)
(0.0191294 0.341939 0.17611)
(0.0118914 0.362353 0.181852)
(0.0258571 0.33835 0.171748)
(0.0171914 0.326582 0.174153)
(-0.00592372 0.375597 0.215357)
(0.0142802 0.458046 0.284657)
(0.012943 0.48839 0.243719)
(-0.000465269 0.402799 0.292093)
(-0.00501143 0.452338 0.146993)
(-0.000132457 0.443451 0.201636)
(-0.0111614 0.429196 0.156001)
(-0.0117362 0.396712 0.205135)
(0.00230764 0.385938 -0.102449)
(-0.00330037 0.395967 -0.0859793)
(0.00026687 0.386582 -0.0693464)
(0.000667063 0.377184 -0.0791398)
(0.0023536 0.382769 -0.0736173)
(0.0033114 0.395726 -0.0805547)
(0.00361844 0.370455 -0.0842416)
(0.0194295 0.370126 -0.0754321)
(-0.0178571 0.369842 -0.0633113)
(-9.57413e-05 0.33348 -0.0986471)
(0.0119544 0.386736 -0.0536805)
(-0.0343107 0.400277 -0.0274091)
(0.00635241 0.356296 -0.0811714)
(-0.0174019 0.366508 -0.0534818)
(0.00361784 0.321746 -0.0696521)
(-0.0120979 0.32927 -0.0488256)
(0.00042349 0.329236 -0.0331061)
(0.0018562 0.335307 -0.056572)
(0.0173908 0.32756 -0.0796418)
(0.00775108 0.320532 -0.0706767)
(-0.0120638 0.344364 -0.0567509)
(0.013406 0.266838 -0.0486129)
(-0.00824831 0.258754 -0.0524404)
(-0.00298057 0.226334 -0.0763077)
(-0.00108639 0.242334 -0.0266539)
(-0.0219099 0.252941 -0.0317834)
(-0.00729576 0.210227 -0.038255)
(-0.00878485 0.221798 -0.0571431)
(-0.0156319 0.181605 -0.0589754)
(-0.00636748 0.184318 -0.0367601)
(-0.00329593 0.2355 -0.106257)
(0.0344128 0.25188 -0.00138216)
(0.00435415 0.254016 -0.00818369)
(-0.0149332 0.196509 0.00815069)
(-0.01731 0.201512 -0.00559473)
(0.0171574 0.242975 0.0322059)
(-0.0211507 0.253562 0.0449134)
(0.0136212 0.281451 -0.0133536)
(0.0304048 0.278661 -0.00032851)
(0.00708599 0.305373 0.0239851)
(-0.00701066 0.325433 0.0740282)
(-0.00432288 0.27194 0.0180082)
(0.0472813 0.325781 -0.0539193)
(0.0134267 0.252065 -0.0630371)
(0.0214099 0.284207 -0.00726837)
(-0.00769466 0.259226 -0.053022)
(0.111015 0.405791 0.062798)
(0.137116 0.437161 0.0853901)
(0.0162447 0.365265 0.00557181)
(-0.0576168 0.242411 0.130116)
(-0.0625893 0.299294 0.0800669)
(-0.00387745 0.344648 0.0288099)
(0.0714304 0.301679 0.0251721)
(0.0291889 0.294088 0.0213006)
(0.0462841 0.282852 0.0747538)
(-0.0877047 0.300094 0.105625)
(-0.0736865 0.2329 -0.0290862)
(-0.063336 0.198333 -0.123155)
(-0.0402394 0.237502 -0.0144242)
(0.0234456 0.282038 0.0432914)
(-0.0138884 0.296496 0.00406604)
(0.0196862 0.290158 0.0102705)
(-0.0111032 0.292302 0.073776)
(0.00983331 0.352279 0.0912182)
(0.0471372 0.329171 -0.00403514)
(0.0268682 0.312064 0.0412877)
(-0.0538995 0.287005 -0.135734)
(-0.0956406 0.276232 -0.0513703)
(0.0361234 0.46511 0.0438078)
(0.0191305 0.582311 0.0628264)
(0.0418736 0.412265 -0.00497019)
(-0.0299795 0.428797 -0.00792662)
(0.00917997 0.359376 -0.0760858)
(0.120878 -0.15112 -0.0492224)
(-0.0419071 -0.157212 -0.0963537)
(0.0433959 0.05071 -0.0712234)
(0.10185 0.0574976 -0.133748)
(0.0993534 0.0329231 -0.060972)
(-0.0611264 0.0875466 0.046062)
(-0.0163505 0.129658 0.0227848)
(0.0371289 0.494908 0.1295)
(0.0156387 0.594837 0.13689)
(-0.0692276 0.386587 0.104538)
(-0.0481905 0.257792 0.0106553)
(0.0128472 0.34268 -0.0310065)
(0.033215 0.89264 -0.395102)
(0.0977161 0.349373 -0.616089)
(-0.0941976 0.266608 -0.277188)
(-0.200864 0.0931502 -0.0559212)
(-0.0962778 0.126347 -0.160177)
(0.0688855 0.208869 -0.219071)
(-0.160766 -0.418238 -0.219472)
(-0.203037 0.0256753 -0.331592)
(-0.0439712 0.106062 -0.33939)
(0.0340302 -0.103614 -0.168337)
(0.0442204 -0.157353 -0.295529)
(0.262889 -0.0837044 -0.418802)
(0.0807007 -0.0769945 -0.354913)
(-0.0394788 0.0558076 -0.0276825)
(-0.266536 -0.00100907 0.0065071)
(-0.368108 -0.088658 0.0928422)
(-0.273672 -0.262016 -0.123606)
(0.242432 -0.816482 0.161067)
(0.47271 -0.0501695 0.2928)
(-0.532139 -0.140428 -0.408053)
(-0.700982 -0.207096 -0.926754)
(-0.486287 -0.216584 -0.588901)
(-0.000278685 0.0204157 0.0199782)
(-0.00341305 0.0155654 0.0281734)
(0.00402964 0.0178888 0.0166427)
(-0.0197023 0.0275674 -0.000682457)
(0.0435601 -0.02895 -0.042468)
(0.0188707 -0.0215335 0.0255504)
(-0.0133369 -0.020518 -0.00214008)
(-0.0219595 -0.00960158 0.0163195)
(0.0368678 -0.022641 -0.025365)
(0.0189642 0.00250168 -0.00631211)
(-0.0332814 0.0115904 0.0356529)
(-0.0071282 -0.0129865 -0.00684569)
(0.00864773 -0.0339127 -0.0394454)
(-0.0762663 -0.0448709 0.0523516)
(-0.0165282 0.00419544 0.007247)
(-0.00595218 -0.00408575 0.00243887)
(0.0158837 -0.00326582 -0.00543334)
(0.013267 0.0175587 0.00742272)
(0.0186203 0.0330417 0.0025544)
(0.00195519 0.0106899 0.0198626)
(-0.0289068 0.00268178 0.0316837)
(-0.0442688 -0.0212188 0.0425309)
(0.00139404 0.00417966 0.00963008)
(-0.00117739 0.00823015 0.0202673)
(-0.00725522 0.00457097 0.0124695)
(-0.00143522 0.000691919 0.00880849)
(0.00626262 0.0174548 0.0121659)
(0.022073 -0.0152267 0.0232278)
(-0.00543147 0.00473511 0.0169678)
(-0.0117019 0.00605899 -0.00790445)
(0.0174842 0.0214627 0.0131996)
(0.00739497 0.0042633 0.0163659)
(-0.000714056 0.00753103 0.0060228)
(0.00866025 0.00203805 0.0033327)
(-0.0031494 0.00559261 -0.00479073)
(-0.00643899 0.0193361 0.0218081)
(0.00124609 0.00605341 0.0163444)
(0.00608327 0.0128001 -0.00199557)
(0.0154318 -0.00325884 0.0128109)
(-0.00136255 0.00457222 -0.0139547)
(0.00478453 0.00665222 0.00838025)
(-0.00991027 -0.00720721 0.0043074)
(0.000503381 0.000647272 0.0205187)
(0.000756093 0.0169858 0.0124128)
(0.00216916 0.00624456 -0.0136755)
(-0.00457737 0.0146297 0.00460503)
(-0.0166167 0.0650532 -0.0364783)
(0.0133609 0.0125031 -0.0248181)
(-0.0331122 0.0114491 -0.0187612)
(0.0231292 0.0215404 -0.014163)
(-0.00939377 -0.0627679 0.0304318)
(0.000614464 -0.00237986 0.0183368)
(0.0317377 0.0125354 0.0318676)
(0.0285751 0.00735752 -0.00818108)
(-0.0332845 -0.0210638 -0.0291703)
(-0.292607 -0.0755392 0.0126747)
(-0.0726762 0.203646 -0.0404266)
(0.0697117 0.124776 -0.216868)
(0.167082 -0.0377683 -0.0403689)
(0.272249 -0.1394 -0.0621336)
(0.00295964 0.000180477 -0.110575)
(-0.0376795 -0.0595662 0.00414911)
(-0.142268 0.0411179 0.108598)
(-0.202784 0.461128 -0.101595)
(-0.207585 -0.953216 0.00777277)
(0.0479926 0.158311 0.210447)
(0.269745 -0.0961736 0.272288)
(-0.0512923 0.364977 -0.462258)
(-0.104402 0.125357 -0.36901)
(-0.00334476 0.0722181 -0.649793)
(-0.0714299 0.187017 -0.673917)
(-0.0016261 0.223454 -0.672969)
(-0.110565 0.0356608 -0.786361)
(-0.15328 0.175085 -0.766673)
(-0.0212672 0.196543 -0.719075)
(-0.000673375 0.262117 -0.713544)
(3.00597e-05 0.259732 -0.571831)
(0.00157766 0.216903 -0.493369)
(-0.0138978 0.263062 -0.549722)
(-0.00600663 0.150719 -0.56314)
(-0.0143493 0.182271 -0.515339)
(-0.0450951 0.227269 -0.569484)
(-0.0285149 0.184811 -0.593707)
(0.00931759 0.30492 -0.611441)
(0.0234735 0.347975 -0.661213)
(0.00171161 0.320078 -0.696107)
(0.0506467 0.327845 -0.704343)
(-0.0082549 0.259684 -0.639171)
(-0.0342036 0.223204 -0.777694)
(0.050722 0.326853 -0.75741)
(0.0176667 0.553622 -0.771388)
(0.00626885 0.502609 -0.815833)
(0.029432 0.517694 -0.752589)
(0.0265553 0.608246 -0.912789)
(0.0329391 0.526001 -0.881719)
(0.0496494 0.558007 -0.901726)
(0.0472097 0.507707 -0.853165)
(0.056663 0.505565 -0.778777)
(0.034453 0.598089 -0.834489)
(-0.0507511 0.740424 -0.498715)
(-0.0816916 0.775555 -0.582404)
(-0.00787798 0.686071 -0.486991)
(0.000490601 0.579576 -0.6968)
(0.00577814 0.576141 -0.586987)
(-0.0225613 0.659107 -0.671806)
(-0.0287323 0.62136 -0.595266)
(-0.0699249 0.740849 -0.730095)
(-0.0774175 0.721787 -0.619649)
(0.0172072 -1.07351 -0.0280275)
(0.0388562 -0.732414 -0.0798855)
(-0.0255987 -0.549048 -0.00738889)
(0.0330012 -0.778166 0.0413542)
(0.108376 -0.320194 0.104077)
(-0.00425671 -0.585236 0.0231238)
(0.0101163 -0.391117 0.0230431)
(0.00502909 0.230675 -0.069537)
(-0.00128531 0.222006 -0.0798173)
(-0.00170279 0.237103 -0.0791708)
(0.00755992 0.227455 -0.0594519)
(-0.0131832 0.243485 -0.0576568)
(-0.017621 0.240145 -0.0714227)
(0.0159626 0.220992 -0.0489567)
(0.00759163 0.219421 -0.0741078)
(0.00395886 0.229737 -0.0962705)
(0.00192428 0.229885 -0.0522369)
(0.000703272 0.219777 -0.0820258)
(0.00363254 0.226098 -0.0947356)
(-0.00433231 0.2248 -0.0694782)
(-0.00275464 0.225562 -0.0550856)
(-0.011717 0.221232 -0.0837545)
(-0.0108386 0.215462 -0.0866495)
(0.0026687 0.207793 -0.0760916)
(0.0130041 0.219236 -0.0645769)
(0.00711995 0.229779 -0.0759059)
(0.000200126 0.237593 -0.0347658)
(0.0046288 0.257131 -0.0354558)
(-0.000226504 0.250783 -0.0309891)
(0.000165381 0.239814 -0.0380645)
(0.000423959 0.247763 -0.0420036)
(0.00433092 0.259502 -0.0387987)
(-0.00334726 0.252708 -0.0302163)
(-0.00183248 0.266125 -0.0232347)
(0.00109055 0.27782 -0.0180105)
(-0.00793722 0.259527 -0.0285125)
(0.00406684 0.27799 -0.0168695)
(-0.00112963 0.274208 -0.0230928)
(-0.00497854 0.26543 -0.0275036)
(-0.000287261 0.270306 -0.0217332)
(0.00469908 0.256811 -0.0119721)
(-7.36114e-05 0.255109 -0.016956)
(-0.00060055 0.251293 -0.0181041)
(-0.00285206 0.256657 -0.012531)
(-0.00391823 0.252376 -0.011688)
(-0.00110358 0.25529 -0.0109319)
(0.00210469 0.259256 -0.00710308)
(-0.0130824 0.110437 0.00380393)
(-0.0147929 0.234738 0.00914201)
(-0.0169881 0.232207 0.00947136)
(0.00333638 0.261201 -0.0120268)
(-0.00900277 0.191446 -0.000306695)
(-0.0103181 0.28055 -0.000635758)
(-0.0160894 0.259302 0.0101924)
(-0.000776775 0.248261 -0.013133)
(0.00466703 0.250181 -0.00839499)
(0.00281893 0.250111 -0.00782592)
(-0.000844506 0.251798 -0.00538734)
(-0.00358087 0.247013 0.000999288)
(-0.00287488 0.250781 -0.00729643)
(-0.00361904 0.246924 -0.0011963)
(0.0095611 0.223092 0.00657825)
(0.0105268 0.108938 -0.00236961)