/*--------------------------------*- C++ -*----------------------------------*\
| =========                 |                                                 |
| \\      /  F ield         | OpenFOAM: The Open Source CFD Toolbox           |
|  \\    /   O peration     | Version:  v2012                                 |
|   \\  /    A nd           | Website:  www.openfoam.com                      |
|    \\/     M anipulation  |                                                 |
\*---------------------------------------------------------------------------*/
FoamFile
{
    version     2.0;
    format      ascii;
    class       volScalarField;
    location    "0.15";
    object      alpha.water;
}
// * * * * * * * * * * * * * * * * * * * * * * * * * * * * * * * * * * * * * //

dimensions      [0 0 0 0 0 0 0];


internalField   nonuniform List<scalar> 
6576
(
1
1
1
1
1
1
1
1
1
1
1
1
1
1
1
1
1
1
1
1
1
1
1
1
1
1
1
1
1
1
1
1
1
1
1
1
1
1
1
1
1
1
1
0.93865
0.695998
0.979636
0.582273
0.986401
0.999983
0.986407
0.999983
0.999983
3.72048e-36
7.24033e-36
2.29259e-35
2.63264e-36
5.44709e-37
1.36196e-40
6.29067e-36
1.57087e-30
1.00426e-30
1.59001e-30
4.73178e-30
1.71209e-29
1.80396e-30
1.4045e-30
6.27802e-27
4.38462e-27
4.38462e-27
7.45651e-27
1.12938e-26
8.59819e-24
4.38462e-27
3.42404e-05
5.87466e-05
1.05611e-05
5.93432e-05
2.79936e-05
1.05611e-05
1.06456e-05
3.33872e-05
1.57552e-05
4.42706e-06
1.58334e-05
3.39061e-05
9.425e-06
1.63448e-05
7.41939e-05
5.67749e-05
7.94519e-05
0.000308697
0.00417246
0.000101414
0.0002931
0.981462
0.975177
0.976004
0.964015
0.97289
1
0.98328
1
1
1
1
1
1
1
1
1
1
1
1
1
1.94991e-17
-9.49071e-265
0
-5.65083e-265
-1.34986e-55
9.46461e-20
-2.03884e-36
0.615626
0.95165
0.99076
0.991125
0.987071
0.999997
0.999643
-1.67159e-71
-6.02521e-71
0
-1.62636e-21
-3.35199e-21
8.47316e-19
-1.13891e-26
1.86435e-08
5.85424e-09
5.77854e-09
3.31641e-07
9.93194e-09
2.10549e-09
1.54371e-08
1.52553e-06
1.52701e-06
1.5281e-06
8.62288e-07
1.50241e-06
1.52818e-06
8.19437e-07
1.79949e-06
1.10343e-06
1.10343e-06
1.33148e-06
1.18317e-06
1.24652e-06
3.03489e-06
5.54108e-06
5.37314e-06
5.30851e-06
4.5551e-06
9.24649e-06
6.64739e-06
8.3561e-06
9.22757e-06
8.01144e-06
5.53581e-06
9.4979e-06
9.45344e-06
5.49696e-06
8.61589e-06
8.87473e-06
9.38876e-06
1.90261e-06
1.90278e-06
1.90261e-06
1.9177e-06
1.90261e-06
1.90278e-06
1.90278e-06
1.90492e-06
4.41371e-06
2.81697e-06
3.71259e-06
9.22143e-07
1.5934e-06
9.29723e-07
1.71408e-07
5.70771e-07
1.18725e-06
1.548e-07
1.48645e-07
1.13672e-07
1.13107e-07
8.61328e-06
3.74994e-06
1.15207e-07
1.30151e-07
1.24872e-06
7.5451e-07
2.72082e-07
9.72331e-07
1.28441e-06
1.8039e-07
2.58977e-07
2.39038e-07
1.13236e-06
1.76717e-07
2.51754e-07
4.38284e-07
1.14328e-06
5.44956e-07
1.35831e-15
3.91495e-15
1.41341e-15
7.59685e-15
6.73103e-14
1.41341e-15
2.74422e-15
1.45934e-09
8.37315e-09
1.4256e-09
1.4256e-09
1.93469e-09
1.39783e-09
1.41883e-09
4.1203e-09
1.10694e-07
4.80907e-07
4.65447e-07
1.8951e-06
6.77715e-07
5.20127e-07
2.74097e-06
4.94698e-06
9.93729e-06
2.63778e-06
9.76572e-06
9.88778e-06
9.93599e-06
9.89463e-06
9.73522e-06
9.99495e-06
1.00217e-05
1.00161e-05
1.00242e-05
1.00076e-05
6.31996e-06
9.70607e-06
9.70582e-06
9.87233e-06
3.68005e-06
9.78586e-06
2.85883e-06
9.70582e-06
9.70582e-06
1.00834e-06
1.20934e-06
9.77721e-07
8.38942e-06
4.07411e-06
3.25588e-06
1.64609e-06
5.55669e-20
2.58957e-15
1.25475e-14
5.42172e-20
4.92425e-18
2.27554e-19
5.55669e-20
1
1
1
1
1
1
1
1
1
0.995386
0.995386
0.995386
0.991327
0.995386
0.967852
0.59124
0.000189821
0.000159211
0.00014963
0.00014963
0.00014963
0.00055337
0.00115759
0.000864204
0.00145741
0.989576
0.995386
0.974163
0.00627761
0.00150508
0.00263546
0.00150304
0.00162495
0.00150946
0.00109274
5.13086e-11
5.15308e-11
8.11418e-11
5.28693e-11
7.30677e-11
7.12309e-11
8.09462e-11
0.162348
0.0102907
0.000527742
0.0726771
0.00336731
0.000622661
0.000527137
0.000168558
0.000194166
2.48275e-09
1.63754e-08
3.61616e-06
1.78198e-07
2.48834e-09
2.8799e-09
2.35424e-09
0.00166199
0.00128476
0.00306725
0.0012872
0.00128625
0.00411872
0.00411624
0.0157162
0.00188508
0.00459878
0.00158988
0.00153897
0.000420856
0.000420405
0.00229826
0.00377058
0.000255351
0.10123
0.00936486
0.000236315
0.000255351
0.00023646
0.002979
0.000236378
0.000237335
1
1
1
1
1
1
1
1
1
1
1
1
1
1
1
1
0.926246
0.763795
0.956247
0.989492
0.965086
0.9359
0.925894
0.00562849
0.0212564
0.0322547
0.0322904
0.172033
0.0338899
0.0278529
0.000878404
9.84387e-05
0.00265971
9.70102e-05
9.71512e-05
9.71512e-05
9.70102e-05
9.71512e-05
0.000184842
0.00904825
0.00921488
0.00920591
0.002897
0.000139154
0.00539306
0.00489175
0.000705771
0.000425012
0.00822004
0.000365758
0.00152082
0.000911881
0.0063244
0.00914267
0.00199717
0.447216
0.499848
0.940322
0.605063
0.442153
0.0176726
0.427285
0.997324
0.997324
0.997324
0.996783
0.997324
0.997324
0.997324
4.34932e-08
2.87022e-07
1.16471e-07
4.34932e-08
5.81833e-08
8.17809e-07
2.83583e-07
8.8546e-12
8.8546e-12
8.8546e-12
2.62537e-11
5.47164e-11
2.56212e-11
1.73535e-11
8.37529e-13
8.05826e-13
8.52441e-13
1.24464e-12
2.17985e-12
1.22154e-12
1.20989e-12
3.83505e-21
3.07178e-21
8.97653e-21
3.14556e-20
1.43407e-20
1.03264e-20
1.20474e-19
1.933e-21
1.74644e-20
1.73732e-28
4.49773e-28
1.47992e-28
6.72595e-29
7.73883e-28
1.22258e-28
2.27416e-28
6.57737e-32
3.26292e-31
1.15662e-31
1.20544e-31
6.5049e-32
2.96377e-31
1.3147e-31
1.03585e-31
4.2177e-32
6.03929e-32
1.97743e-31
3.93092e-31
4.2177e-32
6.49861e-32
1.83974e-34
6.44815e-34
3.93929e-33
7.41397e-35
4.66099e-35
3.66105e-34
1.25817e-33
3.70339e-32
1.20888e-32
8.83893e-33
1.57117e-32
6.05166e-33
5.19014e-33
6.33747e-33
2.48911e-35
1.13671e-34
3.51884e-35
1.26179e-32
6.14782e-33
4.68246e-32
4.19312e-33
3.97907e-32
4.19312e-33
6.31604e-33
4.33775e-33
4.19312e-33
4.19312e-33
1.86427e-31
3.96374e-31
9.87293e-32
9.98416e-31
8.32123e-31
4.9481e-31
1.16941e-31
2.45376e-31
3.30105e-32
1.10191e-30
1.13692e-27
1.6033e-26
1.52556e-27
1.10741e-27
2.05191e-27
1.45792e-27
1.80538e-27
3.78899e-27
1.80354e-27
1.1861e-27
6.16075e-28
2.67111e-27
6.4386e-28
6.44902e-28
2.67473e-27
1.19375e-27
6.56441e-28
6.07437e-28
6.13146e-25
6.13146e-25
2.74832e-23
6.13146e-25
3.43731e-24
7.26731e-23
1.03787e-24
6.47425e-14
1.57548e-14
1.7439e-13
2.26814e-14
3.22805e-14
2.20351e-14
4.8374e-14
6.5522e-14
1.90411e-13
2.70029e-09
8.35386e-10
7.99252e-10
8.0077e-10
1.06026e-09
8.18958e-10
2.27708e-09
7.07404e-09
6.42827e-09
1.55583e-09
1.78032e-08
1.05569e-08
1.35112e-08
1.12328e-08
6.53029e-09
6.16337e-09
9.95826e-09
7.15925e-09
5.33416e-09
3.66218e-09
7.68829e-09
2.57996e-06
7.3383e-06
2.50063e-06
7.82884e-06
9.70582e-06
2.50063e-06
3.4593e-06
6.6056e-06
1.0025e-05
1.0013e-05
6.46205e-06
7.70161e-06
2.82506e-06
2.55199e-06
4.13273e-06
9.97635e-06
7.81545e-06
5.23207e-06
9.90059e-06
1.7424e-06
1.89762e-06
1.89693e-06
8.05184e-07
6.84474e-07
9.83532e-07
7.51833e-07
4.00309e-11
4.84009e-11
2.31678e-11
9.91518e-12
1.7116e-14
1.71022e-14
1.71022e-14
1.0483e-14
4.19385e-15
2.40434e-14
2.05773e-14
1.90154e-18
1.0897e-14
7.89148e-19
2.07174e-16
3.00248e-14
1.27187e-12
2.94428e-13
4.01292e-13
1.92096e-14
1.98575e-13
1.55251e-14
1.09033e-13
8.07797e-12
4.39464e-12
2.63775e-12
2.13449e-12
2.1812e-12
5.09426e-12
2.52756e-12
1.18678e-13
3.35844e-12
2.04688e-11
2.34047e-11
4.4071e-12
5.03851e-10
5.5342e-11
2.19993e-13
5.03821e-13
1.45757e-14
5.84011e-14
1.45757e-14
1.45757e-14
9.98471e-13
1.32857e-06
1.04059e-06
1.69396e-06
1.52914e-06
1.82406e-07
1.39602e-06
1.2215e-06
1.3421e-05
5.44938e-06
5.44938e-06
5.95491e-06
6.232e-06
6.47311e-05
1.33528e-05
2.31092e-05
5.95357e-06
3.55315e-08
7.94256e-07
3.55315e-08
3.55315e-08
3.55315e-08
3.56232e-08
3.69652e-08
1.73972e-07
3.72108e-08
6.52936e-05
1.94972e-05
4.20148e-06
2.45938e-06
3.16012e-06
0.000107041
4.50887e-05
2.88785e-05
4.69487e-06
4.05329e-06
1.52315e-08
1.52315e-08
1.5323e-08
1.77781e-08
1.52315e-08
9.94912e-06
8.43307e-05
0.000580926
2.07632e-05
2.31103e-05
1.02346e-05
1.03267e-05
0.000496615
0.00163562
0.00162644
0.000467239
0.000150416
0.000238223
0.000425572
0.000239478
0.000274512
0.00159237
0.000903015
0.000503776
0.00165239
0.0016672
0.000506549
0.00163507
0.000850255
0.00109945
0.00109298
0.00109274
0.00484829
0.00485048
0.00231013
0.00322195
0.000338236
0.000346553
0.000344695
0.000264697
0.157085
0.00439714
0.00445252
0.000236952
0.99521
0.971904
0.964411
0.874411
0.8371
0.971927
0.966245
1
1
1
1
1
1
1
1
1
1
1
1
1
0.999985
1
1
0.999977
1
0.999497
1
1
1
1
1
1
1
0.999999
1
0.999999
1
0.999999
1
1
1
1
1
1
0.999999
1
1
1
1
1
1
1
1
1
1
0.999321
0.993686
1
0.999999
1
1
1
0.953773
0.937443
0.724763
0.963337
0.970051
0.985696
0.985749
0.945763
0.966592
0.966597
0.999972
0.989174
0.942766
0.972411
0.943561
0.36762
0.361191
0.700985
0.475825
0.889751
0.361916
0.889747
0.278133
0.559676
0.431504
0.243454
0.338394
0.762019
0.898669
0.927982
0.871776
0.929223
0.62274
0.865705
0.935838
0.174391
0.189981
0.482418
0.234768
0.960628
0.179733
0.963679
0.957402
0.0777273
0.000257813
1.37184e-05
0.000571517
0.0504368
0.00465007
0.0110985
0.00300526
1.37785e-05
5.25618e-05
3.49672e-06
1.39126e-05
6.36121e-06
1.66588e-05
4.52007e-05
0.000119204
0.000104805
7.5062e-07
1.14012e-06
1.16996e-06
8.61786e-07
8.2188e-07
9.34231e-07
2.13221e-06
7.623e-07
7.464e-07
1.73704e-06
7.28573e-07
7.29224e-07
7.54781e-07
1.79299e-06
9.25693e-06
9.37739e-06
3.27296e-06
3.13675e-06
3.28973e-06
2.23051e-11
2.56552e-11
2.56552e-11
2.03771e-11
7.1958e-11
3.34795e-11
2.12466e-11
6.94597e-16
2.79345e-16
1.14967e-13
8.93745e-18
2.25103e-16
2.44864e-13
7.01011e-14
7.17427e-25
7.88506e-24
3.80372e-25
6.66165e-26
5.91588e-27
2.1364e-25
2.59049e-25
9.35017e-34
2.33359e-32
3.28756e-32
7.04314e-34
8.4528e-34
9.3027e-34
1.76582e-33
1.71635e-29
2.88513e-28
9.1663e-29
1.18625e-28
5.47638e-32
1.93576e-29
3.2621e-32
1.12999e-35
1.12999e-35
3.26157e-31
1.1299e-35
1.12776e-35
-1.79763e-34
-9.44654e-35
1.11196e-32
1.36545e-35
1.22401e-35
1.46332e-35
1.1454e-27
3.17068e-30
3.5063e-31
3.38149e-31
3.42105e-31
4.56538e-31
4.56538e-31
5.22656e-31
7.61078e-31
7.88447e-31
6.28013e-32
8.54642e-32
5.57345e-32
7.84874e-22
4.43522e-22
1.96964e-21
3.47931e-22
3.97971e-22
8.37964e-22
2.59363e-22
2.31911e-26
1.0006e-26
6.69098e-26
2.11011e-29
8.94747e-26
5.70373e-27
9.35784e-31
3.76901e-22
1.53386e-27
2.09822e-22
2.38475e-22
5.23352e-22
5.84225e-27
1.93382e-22
6.13146e-25
1.29066e-24
2.7589e-23
2.88192e-22
1.34289e-19
1.30988e-19
4.87512e-20
2.96139e-20
6.89958e-21
1.59727e-22
1.19941e-21
2.00301e-21
1.25834e-21
8.93847e-21
1.13598e-21
2.59759e-21
1.58003e-18
1.72935e-18
2.173e-18
7.18373e-19
7.18373e-19
7.18373e-19
5.41293e-15
5.0259e-15
5.41293e-15
5.54379e-15
5.70776e-15
1.69758e-14
1.57215e-14
1.25864e-11
5.92649e-12
2.03925e-11
3.27727e-11
3.26684e-11
3.47057e-11
3.16422e-11
1.81214e-10
9.24702e-10
8.95146e-11
4.99063e-11
5.17188e-11
3.85104e-11
2.59501e-10
3.89885e-11
3.647e-11
2.46398e-08
2.70109e-08
2.56531e-08
2.70748e-08
1.13505e-08
3.95213e-08
4.0085e-08
9.75036e-06
6.15158e-06
2.4048e-06
1.73184e-06
2.55123e-07
1.75533e-06
8.27556e-07
1.54314e-07
9.36115e-06
4.24866e-06
1.55136e-07
1.54314e-07
7.35955e-07
1.49115e-06
1.49115e-06
3.06134e-07
1.24856e-06
4.18885e-07
1.31383e-06
2.05493e-06
6.30999e-07
4.52231e-07
9.46461e-07
2.10994e-06
2.10046e-06
2.10994e-06
7.23806e-07
6.50418e-07
1.23377e-09
4.78707e-10
9.99628e-10
6.45713e-10
2.28018e-10
5.86944e-10
3.65596e-10
8.32631e-10
1.49956e-09
5.62442e-22
3.47295e-22
1.53208e-22
2.44888e-22
3.52616e-22
2.46499e-22
1.54814e-22
4.39654e-26
2.18549e-22
5.0411e-22
3.71039e-22
2.95771e-22
3.20859e-25
3.69172e-22
6.12888e-23
1.2781e-22
1.29112e-22
4.08731e-23
6.13104e-23
5.56269e-23
6.78862e-23
2.86366e-22
5.29754e-23
1.38959e-21
1.18365e-21
1.38959e-21
3.24316e-21
1.18365e-21
1.18365e-21
2.55738e-20
3.02508e-12
4.34827e-14
1.93958e-13
2.97547e-14
1.24525e-13
3.00251e-14
2.96955e-14
1.72138e-11
2.52049e-11
2.52049e-11
1.72147e-11
1.7056e-11
3.47773e-11
3.28611e-11
3.45176e-11
3.4764e-11
1.69051e-11
1.98007e-11
6.26918e-11
3.68485e-11
4.49206e-11
3.00147e-11
3.24305e-11
6.26918e-11
7.36835e-11
2.09532e-10
6.34035e-11
7.57788e-11
9.98321e-11
1.00145e-08
6.25289e-11
9.3395e-11
6.26942e-11
3.56232e-08
2.00807e-06
3.74435e-08
1.52315e-08
1.06827e-06
1.16659e-05
0.000527586
0.00356025
0.00391126
0.00408096
0.00336862
0.00629012
0.00229769
0.999999
1
0.999999
1
1
1
0.999998
0.999973
1
1
1
1
1
1
1
1
1
1
1
1
1
1
1
1
1
1
1
1
1
1
1
1
1
1
1
1
0.997682
0.999611
0.987522
0.98757
0.998747
0.999305
0.998485
0.997854
0.999514
0.997044
0.999943
0.999953
0.99997
0.999969
0.926139
0.923089
0.922887
0.994897
0.993866
0.999544
0.999857
0.913051
0.695112
0.912468
0.272879
0.896129
0.191973
0.554133
0.0511523
0.00026909
0.0891051
0.0688546
0.850878
0.00324975
0.320106
0.862643
0.937999
0.960124
0.88899
0.960457
0.859092
0.958366
1.80915e-05
0.132444
0.0175483
0.0869858
0.169991
0.0492372
0.51121
1.19121e-05
1.12511e-05
1.20967e-05
1.08186e-05
1.093e-05
1.06096e-05
1.07191e-05
4.70635e-07
4.25372e-06
6.68827e-06
3.73266e-08
1.52222e-08
8.56556e-09
3.95095e-07
1.64885e-07
3.1324e-08
1.52252e-06
7.42649e-08
1.52535e-08
6.8469e-09
5.38961e-07
4.59386e-14
3.68005e-09
9.02798e-10
7.81148e-14
3.3704e-14
4.59458e-14
7.04987e-14
2.74082e-14
2.31241e-17
3.99542e-19
7.4092e-18
3.99542e-19
4.36538e-18
3.26125e-19
8.54957e-22
1.92487e-23
8.72416e-19
8.90123e-23
1.92487e-23
1.92487e-23
6.09423e-23
9.98571e-27
-2.35528e-28
7.54778e-24
4.63858e-29
1.34421e-28
8.06823e-25
2.57113e-24
1.48125e-23
9.20515e-28
7.53502e-24
4.63944e-23
4.24075e-26
5.9118e-26
3.02064e-26
4.22356e-26
-4.35351e-25
7.44746e-36
8.80462e-34
1.04271e-35
7.44746e-36
7.44746e-36
8.46758e-36
7.44746e-36
1.9881e-34
3.97388e-29
2.10559e-32
3.0669e-35
1.984e-34
3.03179e-33
1.9514e-34
2.28607e-36
1.77057e-36
2.29262e-36
-1.10241e-35
4.89325e-36
2.95778e-34
4.18606e-30
5.20649e-33
1.13615e-33
1.25889e-33
3.23629e-33
1.79034e-32
1.13615e-33
3.50974e-33
2.7028e-36
9.32606e-36
-2.40239e-33
3.84386e-32
1.13615e-33
1.89397e-30
5.55294e-34
1.39316e-32
6.04627e-34
4.0351e-25
7.67851e-25
1.04842e-24
4.66123e-25
5.1989e-26
1.95958e-24
3.9563e-25
1.66278e-19
1.60554e-24
6.49336e-20
6.58572e-19
1.99774e-19
2.53748e-21
2.27734e-21
5.86378e-21
1.28247e-20
5.78126e-20
1.26467e-20
2.13921e-21
6.30727e-18
6.30727e-18
8.57196e-19
1.16095e-17
1.74175e-13
2.52063e-13
7.41039e-14
1.84988e-16
2.09686e-17
2.58662e-16
2.09686e-17
2.09686e-17
2.84832e-17
1.00779e-16
2.36487e-15
3.16295e-14
1.90698e-14
2.36503e-15
3.0044e-15
3.86439e-16
4.00516e-16
9.35774e-16
1.49211e-15
2.37549e-15
1.33589e-15
8.87128e-15
7.13663e-10
2.36487e-15
4.35303e-10
4.56574e-10
4.3856e-10
4.7146e-10
1.04958e-09
5.5233e-12
9.61832e-12
2.69371e-11
7.08975e-11
4.42685e-11
7.78474e-11
1.94221e-10
5.06168e-15
1.42454e-14
6.10672e-16
3.36375e-14
8.71138e-12
2.23851e-11
2.02985e-11
2.26314e-11
2.59056e-11
2.93805e-11
2.56296e-14
1.18071e-11
3.36375e-14
5.03211e-11
4.68531e-11
4.68531e-11
5.41445e-11
6.11884e-11
8.11546e-11
5.07855e-11
2.61443e-11
2.30866e-11
3.28249e-11
5.5726e-11
3.44652e-11
4.80894e-11
5.67842e-11
2.4154e-11
2.30863e-11
5.43324e-11
4.44413e-11
3.82922e-11
9.66008e-10
4.1621e-10
4.19256e-09
4.53179e-09
5.26507e-09
5.04224e-11
1.38243e-11
1.38243e-11
1.38562e-11
1.38881e-11
2.22926e-09
3.20021e-10
9.59601e-09
3.67979e-09
6.83905e-09
2.45334e-09
8.12634e-10
2.83093e-08
9.83505e-08
1.08665e-08
7.95063e-09
2.02514e-08
9.6302e-11
4.44218e-09
5.89349e-09
5.02043e-09
1.48007e-06
5.37578e-07
5.62994e-07
9.82513e-07
4.73551e-08
5.319e-07
5.33717e-07
7.67035e-06
1.26634e-05
3.62732e-06
6.70863e-07
1.52333e-06
6.60071e-07
6.59939e-07
5.83924e-07
5.7998e-07
6.64946e-09
4.48582e-07
1.44316e-07
1.07583e-07
6.36163e-09
8.51726e-10
3.82455e-09
1.26472e-07
1.4229e-09
9.87079e-08
4.14164e-08
5.10916e-08
6.13708e-07
3.86975e-09
6.36226e-10
7.73743e-10
6.30923e-10
7.82607e-10
6.63207e-10
2.78484e-09
7.32624e-10
4.25629e-15
2.78677e-13
5.25596e-11
1.19626e-14
9.2842e-15
2.72029e-15
4.25629e-15
3.40991e-24
4.79519e-24
1.55465e-24
1.55465e-24
2.6688e-22
1.55465e-24
4.10494e-22
2.09833e-24
1.639e-23
3.48572e-30
5.15647e-25
1.62871e-24
3.48572e-30
3.9927e-32
8.65791e-26
2.07091e-26
3.29042e-25
2.93181e-24
7.05409e-29
7.05425e-29
7.05409e-29
1.01292e-27
7.02429e-28
5.07807e-28
3.03578e-28
1.19715e-26
3.81335e-27
9.29654e-27
7.46612e-26
1.23074e-26
3.4256e-27
2.61827e-25
1.28162e-27
2.36768e-27
1.24059e-27
5.61288e-27
1.37966e-27
1.28162e-27
1.37966e-27
3.00239e-22
1.29348e-22
4.42361e-22
5.9024e-23
1.20514e-22
1.1763e-22
6.71155e-23
7.7464e-24
5.15791e-23
2.76587e-24
9.41082e-24
1.45997e-23
2.76587e-24
2.76587e-24
1.36736e-21
1.33821e-21
2.27158e-21
1.45607e-21
5.16879e-21
1.42948e-21
1.36739e-21
1.87148e-17
1.87148e-17
1.87148e-17
5.80538e-15
2.53586e-15
4.35784e-16
2.96024e-15
1.14824e-19
5.84583e-20
1.78135e-19
3.33846e-20
3.21714e-20
5.89843e-20
3.34245e-20
2.23729e-17
1.93599e-17
1.81909e-14
9.06104e-16
3.14438e-13
1.14913e-15
1.23281e-11
2.13461e-12
1.78952e-13
8.68614e-12
3.23914e-11
3.717e-12
1.00603e-12
9.71276e-13
8.80718e-12
5.00095e-13
6.28532e-11
4.11796e-11
3.00657e-11
0.256303
0.0902738
0.892255
0.0143846
0.0349927
0.0867595
0.141243
1
0.999987
0.999997
1
0.999998
1
1
1
1.00001
1
0.999997
0.999997
0.999997
0.999997
0.999994
0.999986
0.999757
0.999999
0.999998
0.999999
0.102572
0.112682
0.0263397
0.0291233
0.00325949
0.00345785
0.00807731
0.02883
0.159717
0.150273
0.0275358
0.02883
0.589649
0.343483
0.000327298
0.000207002
8.33613e-05
0.000275985
0.000327298
0.000314477
0.000112946
0.307498
0.695737
0.179345
0.739066
0.7139
0.155213
0.215369
0.461225
0.636035
0.00763617
8.81332e-05
0.000582194
0.780029
0.39938
0.956955
0.413583
8.80065e-05
6.46194e-05
8.78788e-05
8.81332e-05
8.78788e-05
0.000135684
0.000358188
0.000152172
0.000153467
2.36347e-05
2.66263e-05
9.22895e-05
2.38552e-05
4.36745e-05
1.91737e-05
2.30054e-05
0.000112359
2.37951e-05
5.98006e-07
5.60408e-07
1.02746e-06
3.60625e-06
3.88139e-08
4.97038e-07
3.39504e-08
1.85866e-20
8.65885e-23
3.22017e-23
8.71296e-23
1.83144e-21
3.44803e-23
2.18688e-23
1.39273e-23
7.11063e-27
2.41966e-27
2.48413e-27
2.41561e-27
2.38021e-27
1.73396e-27
4.73774e-34
2.14843e-33
4.92501e-34
2.88471e-33
1.33785e-32
3.35974e-33
1.14893e-34
3.61761e-36
3.39094e-36
3.6651e-36
1.40211e-35
1.07298e-35
2.99385e-35
1.40615e-35
2.56467e-35
2.56467e-35
2.56467e-35
2.53306e-33
8.01212e-35
3.39169e-36
6.92217e-34
3.39169e-36
7.40903e-34
4.01811e-35
8.01212e-35
2.62507e-35
5.99411e-32
2.47942e-30
5.96964e-34
2.48022e-33
8.34057e-33
1.13932e-32
1.19681e-32
9.75019e-34
8.49258e-36
5.7497e-34
5.34917e-33
8.44131e-26
1.07671e-23
9.89142e-24
6.0222e-26
1.23118e-25
6.77988e-24
1.25477e-22
3.69795e-22
9.88703e-21
1.5563e-18
1.30207e-23
6.78344e-24
2.21253e-19
9.49179e-19
8.86975e-20
3.59137e-19
8.21868e-20
2.21253e-19
7.58695e-20
2.03315e-15
4.70038e-13
4.90693e-17
1.44656e-13
7.33275e-14
1.91897e-17
4.90693e-17
8.66419e-16
9.99607e-16
2.67993e-15
4.69611e-14
7.05108e-15
1.52921e-15
6.62153e-16
6.49951e-13
9.92438e-09
9.69986e-09
2.39236e-09
1.82531e-08
1.80318e-07
7.33477e-08
4.00941e-08
7.82904e-09
1.40272e-08
4.78225e-09
3.81953e-09
1.9806e-08
4.36256e-09
3.82922e-11
5.59686e-11
1.05327e-10
2.32245e-09
9.84735e-10
9.97493e-10
7.15028e-10
6.88827e-10
7.02275e-09
1.37801e-08
4.52588e-09
4.26509e-09
4.49582e-10
4.26489e-14
-1.13661e-32
-2.55612e-31
1.58331e-08
4.27328e-14
3.88688e-10
2.43995e-09
1.29538e-07
2.40314e-08
8.27675e-08
2.94285e-09
0
1.03814e-07
1.38973e-10
3.52605e-08
6.3401e-27
-3.0097e-18
5.55593e-12
1.7168e-17
3.94049e-10
3.56624e-07
1.92922e-06
2.28008e-10
1.36347e-10
5.86423e-10
3.53029e-07
0.221028
0.757117
0.999986
0.999986
0.999997
0.999986
0.999855
5.96914e-05
5.78042e-05
5.93855e-05
6.01232e-05
0.000288598
6.31531e-05
0.0713145
0.0043459
0.0289315
1.96196e-05
0.000465811
0.000433722
0.260287
0.00260265
6.30309e-20
8.11151e-20
6.5797e-18
5.05552e-20
8.93316e-19
6.30308e-20
4.74962e-20
1.0873e-05
7.73209e-07
4.07386e-05
2.29744e-06
7.73209e-07
2.71332e-05
0.000141581
1.42102e-07
2.21922e-06
7.59442e-06
1.39567e-07
1.68995e-06
6.96378e-06
1.4295e-07
1.00907e-05
1.61936e-05
1.01592e-05
1.5491e-05
1.45807e-05
1.63323e-05
1.63306e-05
1.63327e-05
1.63306e-05
5.5823e-10
1.28809e-09
3.0868e-09
4.66775e-08
6.05579e-10
6.79381e-12
4.69295e-10
6.21748e-10
2.12006e-12
2.07509e-11
2.05124e-11
1.08698e-15
4.2669e-12
1.79893e-12
2.40852e-19
2.43646e-19
5.26247e-19
1.75591e-18
9.25387e-19
1.79157e-19
8.52544e-20
2.58435e-27
6.63734e-26
1.70704e-30
1.14743e-31
1.755e-27
1.37497e-26
8.85934e-31
7.45294e-32
7.55077e-32
8.98755e-32
1.60544e-31
2.30837e-31
7.97376e-32
1.8394e-31
2.13668e-31
1.47883e-31
2.78962e-31
1.91837e-30
1.33321e-31
1.34944e-31
3.52106e-31
3.59551e-28
7.79457e-27
1.11256e-29
1.3516e-31
1.89839e-27
1.34599e-28
3.89239e-31
2.04301e-28
1.40134e-31
4.96338e-28
1.3034e-31
9.09209e-31
1.25519e-31
1.25519e-31
1.25519e-31
4.75899e-29
6.41258e-29
1.26886e-28
9.95036e-29
6.53381e-29
1.89465e-28
2.1483e-25
2.27252e-28
2.56918e-28
6.34533e-29
6.38238e-29
5.67496e-24
3.41554e-24
8.65821e-24
1.41435e-24
1.53139e-24
1.38834e-24
1.4052e-24
6.22539e-21
2.82708e-19
6.73174e-20
7.24918e-20
2.67486e-17
8.61781e-21
6.62966e-20
2.57387e-24
6.45807e-21
2.09367e-22
4.83434e-20
6.23116e-17
1.86017e-18
9.26712e-16
1.87758e-15
1.64742e-14
1.71284e-16
1.80268e-16
2.65841e-17
1.96748e-15
0.689876
0.918627
0.690093
0.510635
0.449834
0.555042
0.367514
0.991695
0.972379
0.991452
0.990743
0.917557
0.924152
0.959521
0.994714
0.998671
0.999356
0.999473
0.998729
0.9989
0.999583
0.243598
0.601465
0.593366
0.479186
0.176846
0.323358
0.869309
0.995772
0.995772
0.995772
0.995772
0.995763
0.995763
0.994223
0.964279
0.990542
0.986403
0.991425
0.990542
0.990542
8.09662e-24
1.21269e-24
1.895e-24
2.99183e-24
2.63508e-24
2.88721e-23
5.29468e-24
3.39242e-25
2.61303e-26
2.20955e-26
7.92597e-26
8.21326e-26
1.57863e-26
6.70427e-27
6.27801e-28
1.46367e-28
5.62029e-27
9.90557e-31
8.27673e-29
2.28193e-27
3.04569e-27
3.35585e-31
3.35585e-31
3.35585e-31
3.35585e-31
3.35585e-31
4.2857e-31
3.38086e-31
5.31574e-33
5.88603e-33
5.88603e-33
1.34478e-32
1.17084e-32
6.40657e-33
5.88603e-33
6.03528e-33
2.34765e-33
1.08706e-31
1.17272e-29
3.38083e-29
2.74964e-28
5.48287e-30
4.27182e-29
2.82555e-28
9.17313e-28
6.7043e-28
7.46846e-28
2.90638e-27
7.81979e-27
2.80393e-28
4.75785e-27
1.78879e-26
-6.60489e-26
-1.90793e-25
-9.52249e-48
3.98967e-30
3.03802e-27
0
0
2.73166e-25
1.12229e-24
1.10277e-24
0
-2.93473e-24
1.02925e-24
1.68976e-40
2.29913e-06
1.36875e-06
1.38877e-06
1.29469e-06
1.62664e-06
2.20054e-06
2.30751e-06
1.23151e-06
2.00565e-06
1.23151e-06
2.00991e-06
3.42688e-06
1.23151e-06
1.42911e-06
6.70385e-07
7.34475e-07
1.93211e-06
9.10428e-07
2.10784e-06
9.52226e-07
1.35305e-05
2.8872e-06
4.13444e-05
9.14212e-06
6.47507e-07
4.46773e-07
0.865803
0.879139
0.999778
0.922551
0.920997
0.450374
0.978121
2.93303e-05
1.97044e-05
2.09648e-05
6.41745e-06
3.94314e-05
1.78488e-05
1.6593e-05
3.94872e-06
6.75303e-08
8.40697e-07
8.84371e-07
4.0216e-08
5.06372e-08
8.8825e-06
4.20387e-20
3.68076e-57
5.08734e-22
7.64001e-12
7.70825e-61
1.106e-11
0
1.27384e-12
3.86787e-50
4.09493e-12
4.78106e-14
-1.35589e-73
3.34944e-15
2.82833e-14
3.29905e-11
-3.47632e-45
1.39483e-11
2.94193e-17
2.53318e-16
5.39403e-09
-2.275e-34
1.9816e-11
2.16232e-08
0
6.00273e-07
7.53608e-08
3.91701e-06
8.15881e-06
1.50645e-05
4.54327e-07
1.35746e-05
1.30759e-05
1.30043e-05
7.32776e-19
1.34947e-15
1.74008e-18
5.09009e-17
2.29545e-15
7.32776e-19
7.32407e-19
3.28624e-24
4.88049e-27
3.2845e-27
2.85784e-27
2.95272e-24
3.32626e-27
3.19715e-27
4.3534e-31
4.76638e-31
7.42643e-31
3.26892e-31
3.43973e-31
1.30195e-30
1.76511e-30
1.18364e-33
6.45988e-39
1.95262e-36
1.61916e-41
2.20419e-37
4.99588e-39
3.30793e-37
5.8045e-39
6.45988e-39
3.40352e-44
3.40873e-44
7.33106e-44
5.033e-44
3.85743e-44
8.79576e-44
8.83758e-44
4.23876e-37
9.00193e-34
6.05963e-37
1.87108e-35
4.23876e-37
2.44904e-34
2.01434e-36
4.24359e-36
7.93308e-34
8.69318e-33
2.11656e-35
1.99839e-36
2.28945e-36
1.55331e-36
8.0558e-36
1.01244e-36
1.90046e-36
1.59809e-32
8.72611e-34
9.22276e-34
2.11069e-34
2.51417e-32
5.51443e-35
7.89845e-30
1.45201e-31
1.35773e-28
5.53541e-32
5.49229e-32
1.67775e-31
5.60573e-32
9.65949e-30
5.60573e-32
5.53541e-32
1.40124e-31
1.2616e-31
2.77571e-29
1.55169e-25
1.55728e-25
2.59499e-25
2.9439e-24
5.45121e-25
5.71601e-25
4.6305e-25
1.49572e-16
2.76688e-15
1.08662e-16
1.01352e-17
1.34607e-17
2.1832e-16
8.03094e-18
0.00122324
0.00159075
0.000859605
1.11138e-05
0.0405221
0.926661
0.92408
0.566726
0.543774
0.465979
0.545166
0.839754
0.000537078
0.000819608
0.00161206
0.0013416
0.000427699
1.82673e-05
8.713e-06
0.155078
0.85363
0.979819
0.0173323
0.0814647
0.00854329
0.00731432
0.00104924
0.00104967
0.0100396
0.0782803
0.0219429
0.54389
0.0730831
0.544381
0.313327
0.185003
0.0705252
0.11233
0.328145
0.00200776
0.320919
0.084128
0.0019049
0.0542296
0.251747
0.995772
0.9914
0.913819
0.983198
0.994398
0.994438
0.988285
0.99526
0.989243
0.965211
0.995594
0.995713
0.995607
0.995607
0.995542
0.993329
0.995016
0.993155
0.995016
0.994232
0.994575
0.993734
0.995012
0.93868
0.984452
0.918898
2.90474e-26
2.90474e-26
2.27067e-26
1.98888e-26
1.07353e-26
2.8346e-26
3.85871e-26
3.96017e-26
1.4113e-23
7.47117e-24
1.57059e-21
1.86139e-22
1.39865e-22
3.92597e-22
4.49409e-22
1.21724e-22
3.60462e-22
9.38153e-13
2.82374e-12
1.65092e-11
6.53865e-12
3.59111e-12
7.81276e-11
4.14982e-13
1.1791e-16
9.97215e-17
8.77154e-16
1.78851e-16
6.97517e-16
4.88187e-16
1.28569e-14
5.71799e-05
5.71657e-05
5.71824e-05
3.10134e-05
3.07718e-05
3.41592e-05
3.08502e-05
2.63404e-05
1.48536e-05
3.14969e-05
5.07239e-05
9.68614e-06
0.00013458
9.80666e-05
0.000209756
3.49546e-05
0.000267711
1.76509e-05
1.69759e-05
0.000449918
0.00237781
0.0001681
0.000323409
0.000175154
0.000170851
0.000679874
0.000190838
0.000178155
2.18834e-08
2.50809e-08
3.95792e-07
1.53861e-07
1.8539e-07
2.51824e-08
2.44268e-08
1.32457e-08
5.11486e-08
1.25176e-08
1.77722e-08
2.23285e-08
1.1646e-08
1.20774e-08
4.61126e-08
3.00087e-08
6.52856e-10
3.53948e-10
1.28011e-09
3.87924e-08
5.139e-09
1.29771e-07
2.76077e-08
1.91789e-07
8.24888e-07
2.88846e-07
5.3971e-07
5.98224e-07
2.11902e-07
3.78073e-07
6.0992e-07
3.0874e-07
7.1601e-12
1.7955e-06
2.02573e-05
1.01875e-05
1.63786e-05
7.77083e-06
2.9927e-05
3.10195e-05
2.62165e-06
1.97075e-05
8.90202e-06
5.70799e-06
6.44336e-06
2.58156e-05
2.94513e-05
3.11894e-05
3.11872e-05
2.33739e-06
1.52044e-06
2.33564e-06
2.14255e-06
1.58597e-06
2.08739e-06
4.24663e-06
1.14871e-19
1.1872e-19
4.42833e-21
1.96756e-19
2.23477e-19
5.63011e-21
2.59923e-21
9.60286e-18
8.40794e-20
1.18075e-45
6.3358e-46
6.27373e-45
3.11339e-47
1.72426e-44
1.15549e-45
1.03886e-45
2.72485e-46
2.65553e-46
2.15272e-46
2.56498e-46
3.38703e-46
2.2583e-46
1.77721e-46
1.02807e-48
1.02732e-48
8.39667e-49
8.42617e-49
1.07376e-48
5.13373e-49
2.67597e-47
8.04918e-45
2.39422e-44
1.74306e-44
4.11362e-44
2.15498e-44
1.66375e-43
4.26205e-41
7.34377e-45
4.02772e-44
7.55989e-44
1.30442e-39
2.05675e-37
1.84435e-39
4.84113e-40
4.51427e-40
4.32129e-40
8.04328e-36
2.53467e-36
3.78235e-35
8.93331e-31
8.96481e-31
1.91157e-30
2.0897e-30
1.56348e-30
6.68128e-30
2.9459e-30
1.23107e-15
7.53239e-15
1.2259e-15
1.79114e-14
1.76634e-16
1.10563e-15
3.22322e-16
3.96454e-13
3.86121e-13
4.56238e-13
4.52674e-13
3.83207e-13
2.81744e-13
8.20069e-14
1.19365e-08
5.32607e-09
2.90318e-09
2.38934e-07
4.67787e-08
1.79139e-08
2.44791e-08
1.79602e-07
3.78742e-07
2.85184e-07
5.90185e-08
3.75967e-07
5.27879e-08
4.95297e-08
0.0012395
0.00409804
0.000123888
0.00410499
0.00409364
0.0041091
0.003039
0.000132569
0.000134179
0.000188042
0.000481255
0.000134179
0.000579092
0.000426701
0.000415226
0.000100728
0.000450074
0.000131201
0.000132241
0.000184232
0.00162049
0.00107565
0.000151574
0.000140418
0.000970824
0.00040393
1.4867e-06
1.77151e-06
0.000136091
5.0621e-06
5.90821e-06
2.28604e-05
1.75026e-05
1.16954e-06
1.18645e-06
1.15126e-06
1.16742e-06
1.16954e-06
1.58963e-05
1.10098e-06
0.994977
0.97581
0.947706
0.999012
0.998942
0.99899
0.998367
0.999009
0.99902
0.999021
0.998286
0.998031
0.998286
0.99827
0.983465
0.994335
0.999813
0.999814
0.999814
0.999793
0.999814
0.999795
0.999814
0.998949
0.99902
0.99902
1.12719e-13
1.51882e-13
1.49049e-13
3.02529e-13
2.65407e-13
1.56822e-13
2.98783e-13
7.13439e-19
1.37526e-18
1.75796e-18
4.01582e-19
5.17477e-19
3.92333e-19
4.51347e-19
1.2725e-22
1.249e-22
4.32832e-23
1.02902e-19
2.73509e-21
1.72442e-22
4.97379e-23
7.72348e-19
7.27478e-17
5.86868e-16
4.14451e-23
4.39909e-23
2.02585e-22
6.49752e-23
7.16055e-21
5.75388e-22
7.13118e-22
7.13118e-22
5.11726e-21
2.98248e-21
3.42998e-19
2.23021e-19
4.41843e-20
9.84512e-20
4.00406e-20
8.1294e-19
4.43636e-20
1.20713e-18
9.96818e-20
3.68972e-05
2.09175e-05
1.15771e-05
8.82031e-06
8.84983e-06
1.64881e-05
1.55033e-05
3.0554e-05
2.6375e-05
2.31319e-05
4.15595e-05
4.27918e-05
4.31798e-05
4.34055e-05
5.96056e-06
1.12756e-06
8.5653e-06
5.49876e-06
1.63311e-05
8.50603e-06
3.85578e-07
2.12149e-06
9.56664e-06
4.83588e-06
4.5795e-12
5.43059e-12
6.90869e-12
5.76707e-12
3.77975e-12
4.92282e-12
5.43838e-12
7.28859e-08
3.10449e-08
1.28619e-12
6.86337e-11
8.57055e-13
6.03464e-09
1.82043e-08
1.0165e-12
8.92615e-13
1.29575e-06
1.50897e-08
2.44722e-10
9.27526e-13
1.35421e-12
1.04346e-12
1.75959e-15
3.63234e-13
2.03547e-12
1.28095e-12
1.06018e-12
1.04616e-12
2.65975e-12
4.8065e-19
1.56998e-16
2.50557e-18
7.2721e-18
1.63772e-15
5.49435e-17
2.55587e-19
2.55587e-19
3.73225e-19
9.8676e-19
1.14123e-18
1.43152e-18
7.72446e-19
3.82017e-37
3.55169e-36
1.11364e-34
1.26142e-32
8.05163e-35
3.55169e-36
8.22012e-35
1.42146e-51
1.3632e-49
9.42396e-52
3.15095e-52
2.85717e-52
2.84596e-52
4.05417e-51
2.47529e-50
4.05417e-51
9.2689e-49
9.23531e-51
4.05417e-51
4.70261e-50
4.25559e-49
6.75227e-48
1.07376e-48
6.04742e-46
3.1079e-41
1.28198e-41
1.22801e-40
3.68439e-41
3.0548e-39
6.2578e-41
1.05338e-40
3.07154e-40
9.45759e-41
9.62454e-41
1.21219e-40
1.15098e-40
2.56551e-40
2.71163e-40
9.49003e-37
1.25556e-36
7.53955e-37
3.95496e-37
6.98221e-37
9.89633e-37
8.39243e-37
1.40117e-37
1.63311e-37
1.62575e-37
6.37115e-37
1.34306e-37
3.41609e-37
5.28739e-37
9.07179e-34
9.28844e-34
7.19009e-33
3.56274e-31
5.89878e-33
9.3059e-34
3.10454e-33
8.2481e-34
5.67617e-34
1.29778e-33
7.16305e-33