/*--------------------------------*- C++ -*----------------------------------*\
| =========                 |                                                 |
| \\      /  F ield         | OpenFOAM: The Open Source CFD Toolbox           |
|  \\    /   O peration     | Version:  v2012                                 |
|   \\  /    A nd           | Website:  www.openfoam.com                      |
|    \\/     M anipulation  |                                                 |
\*---------------------------------------------------------------------------*/
FoamFile
{
    version     2.0;
    format      ascii;
    class       surfaceScalarField;
    location    "0.15";
    object      alphaPhi0.water;
}
// * * * * * * * * * * * * * * * * * * * * * * * * * * * * * * * * * * * * * //

dimensions      [0 3 -1 0 0 0 0];
oriented        oriented;


internalField   nonuniform List<scalar> 
13152
(
1.51145e-06
3.36807e-05
-2.48887e-06
-3.27033e-05
3.1049e-05
-2.8602e-05
-9.35533e-07
-5.8135e-06
7.05432e-05
-5.7747e-05
5.89541e-05
-3.69595e-06
3.53481e-05
-0.000125798
4.74956e-05
-4.07495e-05
0.000100636
-2.69213e-05
-4.93355e-05
-4.7352e-05
0.000123609
6.27142e-07
-2.8064e-05
5.15558e-07
-4.98397e-05
1.13131e-06
1.3102e-05
8.60355e-06
-4.97695e-05
1.30705e-05
5.47068e-07
-8.45699e-06
-2.58245e-05
-4.96931e-05
-1.44224e-05
-2.44871e-05
-8.57296e-06
4.74825e-05
-9.88367e-08
-1.44519e-05
1.28319e-07
-2.36869e-05
-8.99107e-07
9.41627e-06
-5.09578e-05
2.70897e-05
-4.90264e-05
4.98697e-05
4.89641e-05
-9.61407e-07
4.67492e-08
-2.53242e-05
-4.98228e-05
1.76461e-07
-0.000124917
5.32505e-07
2.66855e-05
5.03757e-05
2.65547e-08
0.000124544
5.97322e-05
2.11922e-05
4.22393e-05
-0.000123164
5.2931e-07
-1.06687e-06
6.02697e-05
2.07859e-05
4.22929e-07
-3.13325e-05
0.000122662
0.000129574
4.85391e-05
-1.18116e-06
-4.8948e-05
1.59012e-06
-2.73267e-05
-4.48672e-05
0.000120733
3.2813e-07
-2.8836e-05
-1.3463e-05
1.33393e-05
4.51802e-07
8.79844e-06
-5.10974e-05
-8.26128e-06
-2.32666e-05
-4.84109e-05
-2.30302e-05
2.15394e-07
4.8534e-05
3.38496e-07
-5.3152e-07
1.99283e-07
-2.13258e-06
2.58274e-06
-6.27302e-07
-3.97983e-07
4.00727e-07
-7.05955e-07
2.13657e-07
1.28323e-06
-1.68872e-06
-2.16092e-07
-5.24628e-07
-3.71398e-07
1.04542e-07
-4.89241e-07
-3.21244e-07
-7.94633e-08
3.97583e-07
-2.46352e-07
-1.52182e-06
-1.26021e-06
-7.03448e-41
2.36139e-40
-2.23564e-41
-1.99283e-40
3.64287e-39
-2.27222e-39
-1.58222e-39
-1.22961e-40
-5.48152e-40
4.82976e-41
1.47097e-40
-2.52029e-39
2.40307e-42
7.61104e-43
-1.20587e-40
1.90355e-44
-9.17334e-40
-9.6776e-36
-4.08423e-35
-6.33638e-36
3.6019e-35
-5.2493e-36
-2.34394e-35
1.52826e-36
-1.39165e-34
-5.36069e-36
8.68171e-34
4.88274e-34
-1.74716e-33
-4.11401e-35
-3.1098e-34
-1.69749e-34
8.94725e-35
1.03601e-35
1.0712e-31
2.15374e-31
6.68755e-30
-7.34328e-30
2.55367e-32
1.95449e-30
-1.95213e-30
6.4848e-32
9.08832e-33
1.48053e-29
5.14472e-28
-5.2755e-28
1.67338e-29
4.10796e-30
-1.65396e-29
5.14941e-28
1.24136e-31
-1.1749e-09
-3.0856e-10
-2.21632e-10
1.61067e-09
-4.75679e-11
-1.06586e-09
2.4927e-12
8.82295e-12
-5.15889e-10
1.79065e-09
-3.52039e-10
-2.45515e-09
2.32657e-10
1.31975e-09
-7.99257e-10
9.27533e-10
-1.7458e-09
1.47841e-10
-4.03732e-11
-3.22012e-10
2.97421e-11
-1.25054e-10
-1.47917e-11
2.59492e-10
-1.41803e-10
-6.46314e-11
6.2745e-10
1.88147e-11
-9.83362e-10
2.07929e-10
3.04836e-10
-2.03232e-10
3.52433e-10
-3.48721e-10
3.85337e-09
9.57404e-09
1.5781e-08
-3.16444e-08
2.97947e-10
1.15431e-09
-4.35992e-10
4.33959e-09
2.39554e-10
1.01286e-08
-1.79424e-09
-1.30432e-08
4.48527e-10
-1.59153e-07
-5.91374e-09
4.80302e-09
4.18003e-09
-1.14669e-06
-1.67945e-06
6.8198e-07
2.14515e-06
9.9667e-08
3.40551e-07
-1.60714e-06
-1.09645e-06
-4.92755e-07
-2.94477e-06
-5.05605e-07
2.91998e-06
-1.54405e-06
-3.11143e-06
1.86431e-06
-4.5048e-06
1.9336e-06
1.87712e-07
4.68015e-09
-2.97561e-07
1.05169e-07
-6.10743e-07
-3.73967e-08
8.35853e-07
7.54368e-08
-6.81499e-07
-2.84452e-07
-6.10131e-07
8.57186e-07
-1.20628e-06
6.24265e-07
-1.47679e-06
9.42092e-07
-3.36456e-06
5.59337e-08
1.30726e-07
5.69279e-08
-2.43588e-07
6.34483e-09
6.29447e-08
-1.33556e-08
6.27828e-08
7.42882e-08
-1.53426e-07
2.73299e-07
4.94543e-07
-5.85186e-07
5.55476e-07
4.33199e-269
9.24132e-23
1.15251e-23
-3.94233e-21
-6.50153e-269
-3.83897e-269
-6.12504e-269
2.95021e-24
8.9463e-23
-2.5686e-270
-8.06945e-270
-1.22194e-269
-2.94821e-60
-6.37701e-60
-1.08374e-23
9.74048e-24
6.8773e-25
3.72427e-05
-1.04742e-06
-3.79406e-05
-3.82747e-07
-4.01931e-05
-4.55069e-05
0.000122339
-1.039e-06
-4.06785e-05
-4.32559e-05
4.37949e-05
-1.82825e-06
4.29778e-05
-0.000126883
-2.15821e-06
4.46222e-07
2.87075e-06
7.39434e-76
0
-1.29313e-75
-2.49376e-75
0
-3.02604e-75
-4.49413e-75
0
0
8.32729e-21
2.43523e-22
-8.57083e-21
-3.11466e-24
8.33042e-21
2.57407e-22
8.20407e-24
2.54292e-22
5.30913e-13
7.85912e-13
-2.97683e-12
-3.96679e-13
5.79046e-14
-3.04101e-13
2.87506e-13
-4.28374e-13
9.54658e-13
1.15341e-12
4.19533e-12
-2.65085e-11
1.01167e-13
-9.99916e-14
-2.14997e-13
-3.56528e-15
2.55908e-12
-4.20076e-11
-6.6705e-12
-6.76431e-11
1.19212e-10
6.72928e-11
-7.02484e-11
-3.30214e-11
-1.25328e-10
1.8994e-10
3.37275e-11
6.8901e-11
-1.77284e-10
7.62698e-11
-7.0023e-11
7.51391e-11
-1.21582e-10
7.34998e-11
8.53404e-11
1.70237e-10
-7.59942e-11
-1.83778e-10
5.92436e-11
-6.34793e-11
3.60561e-11
-1.92268e-12
1.9123e-10
8.24453e-11
-2.38769e-11
-1.66847e-10
4.83307e-11
3.82964e-11
-5.44291e-11
7.1509e-11
-1.83672e-10
-6.16741e-11
-2.86341e-10
-3.21584e-10
5.9933e-10
-1.74466e-10
-5.21451e-10
5.46259e-10
-3.71936e-10
-2.0355e-10
-8.24721e-11
-1.47204e-10
-8.8596e-11
-2.46673e-10
-3.65146e-10
5.00913e-10
3.00527e-10
-1.28343e-09
4.56198e-10
-1.84302e-10
1.47077e-10
-8.80825e-11
4.22286e-10
1.55729e-10
-1.71965e-10
-1.75394e-10
1.29606e-10
-4.09131e-10
-2.08197e-10
8.31304e-10
-1.62894e-10
-3.75974e-10
4.98507e-10
-1.8981e-10
2.41638e-10
4.72056e-10
-2.52423e-10
3.38937e-10
-5.7268e-10
-4.69188e-11
-4.4217e-11
-4.06859e-11
1.31584e-10
-9.99964e-13
-5.52505e-11
9.04868e-12
7.06059e-12
-5.2497e-11
-9.48936e-11
-1.19545e-10
1.67535e-10
-2.83152e-11
-1.21994e-10
-1.83065e-10
5.31949e-11
1.36685e-10
-2.32948e-11
-2.1255e-10
9.26679e-11
-1.44524e-10
9.87881e-11
-2.14513e-10
1.14183e-11
3.31338e-10
-1.5448e-10
1.41916e-10
6.39873e-11
-4.58359e-10
8.42206e-12
8.79732e-11
-3.59472e-11
4.85136e-11
3.07867e-10
1.53876e-11
-2.65923e-12
2.61933e-11
-1.80278e-11
1.76839e-12
-1.30127e-11
1.24662e-10
-1.04584e-11
4.75186e-11
-1.27737e-11
-5.86277e-12
-1.01446e-11
5.23886e-12
1.2428e-11
-2.51393e-12
-1.14247e-10
1.13541e-10
-6.91036e-15
-1.0689e-11
3.04178e-10
-6.06361e-11
-3.58325e-10
-1.1136e-11
7.82308e-12
-6.71244e-11
3.49839e-12
-1.26549e-11
-2.89266e-11
4.37455e-12
5.83696e-11
-1.3588e-11
2.83148e-11
-1.80327e-11
2.93128e-11
-5.33296e-11
5.12179e-11
-4.04441e-11
8.006e-12
-2.63158e-11
1.47172e-10
1.08331e-11
-8.25062e-12
2.10278e-11
-1.65892e-11
-3.5292e-13
1.57312e-11
-1.99971e-12
3.18191e-11
6.25788e-12
-4.85159e-11
2.96218e-11
-2.86323e-13
-3.43174e-11
-4.74856e-12
-2.34914e-11
-1.18818e-11
4.31904e-11
-5.40066e-11
7.35051e-11
2.61724e-19
1.79555e-19
1.95116e-19
-5.74246e-19
-1.78455e-19
4.7511e-19
5.09803e-20
1.40434e-16
-1.40346e-16
-2.65309e-15
2.52222e-16
2.5414e-15
-3.41794e-16
-2.45135e-15
7.43821e-18
-3.48993e-16
2.60198e-16
-6.09045e-14
6.36947e-14
3.40249e-14
-2.99658e-14
3.98236e-13
-4.31874e-14
-1.60963e-14
2.51984e-15
4.63186e-13
-1.21963e-13
3.11785e-14
1.27325e-13
3.62649e-14
-2.25616e-13
4.59301e-14
-4.97266e-14
8.18533e-14
1.55845e-13
1.25807e-13
1.09216e-13
-4.63517e-13
5.85658e-12
-3.85832e-12
5.51937e-12
-7.47191e-14
-4.02958e-11
1.51665e-11
2.46395e-11
5.80608e-11
-8.40077e-11
3.44174e-12
6.85332e-11
1.94364e-11
1.90248e-10
-1.57836e-10
-1.3325e-10
1.16987e-10
-3.57855e-10
1.41919e-10
3.95785e-10
1.07589e-10
-6.21358e-10
4.30254e-10
-1.92686e-10
-3.62322e-10
1.95471e-10
-5.90594e-10
9.31749e-10
-6.73896e-10
1.96386e-10
2.87965e-10
3.55256e-10
-8.39583e-10
1.26059e-10
1.28264e-10
-6.26775e-11
3.23621e-10
9.14585e-11
-4.27093e-10
-1.3493e-10
6.90958e-10
-6.43894e-10
1.5508e-10
-6.89572e-10
8.78859e-10
-9.77387e-10
-3.56082e-10
-9.94251e-11
4.52824e-10
6.22298e-11
4.78945e-10
1.92591e-12
4.38737e-10
-5.43484e-11
-1.51693e-10
-1.59338e-10
7.65936e-10
-1.04353e-10
6.90898e-11
-5.04742e-11
-1.28329e-10
1.99658e-11
-5.0936e-11
-1.10465e-10
1.48962e-10
-1.96582e-10
4.60762e-10
-5.01155e-11
2.6813e-11
-1.38508e-10
1.68395e-10
1.10222e-10
-8.49823e-12
1.2176e-10
2.78438e-11
6.07837e-10
-1.6573e-10
-4.32601e-12
6.64032e-10
3.91054e-10
-6.45392e-10
4.60038e-10
6.01126e-20
-6.05472e-20
-1.58215e-24
4.23983e-22
-2.29037e-19
-2.63767e-22
1.66228e-19
-1.55624e-21
-5.09211e-19
2.83982e-24
2.16109e-25
-1.04793e-23
1.86012e-22
8.40691e-23
-1.51333e-22
6.13345e-23
-1.71345e-21
6.50666e-08
-4.87205e-08
-1.95407e-08
3.19452e-09
-2.28084e-08
2.36604e-08
6.42146e-08
6.924e-08
-1.40768e-07
4.63651e-08
-3.39744e-08
-3.19313e-08
7.35672e-08
-3.54152e-09
-8.80153e-07
-4.99154e-07
1.44855e-06
-9.54576e-08
-9.25464e-07
-1.32185e-07
-2.93403e-07
-2.61616e-07
-2.77233e-07
1.03143e-06
-2.69462e-07
-4.8473e-07
-3.05827e-07
-7.97152e-07
8.25745e-07
1.75891e-07
5.49708e-07
9.85931e-07
1.49687e-06
-3.26923e-06
1.92892e-06
-1.21245e-06
-2.7518e-06
4.64115e-06
-1.62218e-08
1.40168e-09
1.49456e-09
3.31912e-09
-5.56021e-09
1.42204e-09
-3.04852e-09
1.42053e-09
9.80542e-10
1.51748e-09
4.85867e-10
-8.42014e-10
1.1179e-09
-1.13868e-09
2.9375e-09
-1.68878e-09
-3.45744e-09
1.83648e-11
-4.07566e-09
4.84958e-09
-1.32025e-09
-1.52957e-09
-4.63861e-09
6.39e-07
-1.72765e-06
1.92051e-06
-1.05818e-06
-6.0376e-06
3.86896e-08
6.5583e-08
-1.96788e-08
-1.15232e-07
-1.76117e-08
2.86327e-08
2.45332e-08
2.42363e-08
7.44253e-09
7.34591e-09
-3.18218e-10
2.07287e-08
-3.5954e-09
3.46277e-08
-7.62565e-10
1.77485e-08
-2.08306e-08
-4.02422e-16
-7.36684e-16
-7.86014e-16
1.64445e-15
-5.08079e-16
-3.49292e-15
3.20692e-15
-3.73175e-16
-9.45842e-16
1.34034e-15
-1.5593e-15
-3.57678e-15
-1.60049e-15
2.12197e-15
-8.57241e-16
-6.86437e-17
2.27271e-15
1.72969e-06
6.42542e-08
-2.66057e-06
-1.36614e-07
-1.05519e-07
-3.07567e-07
2.34153e-06
-2.39923e-08
-4.03757e-09
2.88808e-07
-4.92974e-08
-2.98154e-06
-2.55086e-08
6.32893e-08
1.59298e-08
1.55987e-08
-6.80443e-08
3.11994e-08
-1.07835e-08
-1.87411e-09
7.99378e-09
-3.47462e-08
4.68175e-11
-4.99249e-11
2.23474e-12
6.95732e-13
-1.3117e-09
1.19551e-11
1.34686e-09
-5.7107e-13
-1.27388e-09
-7.30254e-13
1.4847e-12
2.75863e-12
-2.00263e-14
-1.05901e-13
-7.13868e-14
1.34147e-11
-7.49703e-13
2.11277e-09
-9.26508e-09
-1.64253e-08
2.04284e-08
-1.24198e-08
1.27077e-08
-2.62859e-09
-5.70366e-08
3.08596e-08
-2.65136e-08
7.65693e-09
2.82142e-08
1.73978e-09
-3.31118e-08
6.47958e-08
-1.13548e-07
5.60949e-08
2.67648e-08
1.74496e-08
-1.81349e-08
1.45196e-08
-2.08733e-08
2.52087e-08
2.51366e-08
1.10027e-08
-8.468e-10
-6.33216e-09
3.45185e-08
-1.07698e-08
3.93428e-08
-3.42499e-09
8.33162e-10
-4.98271e-09
-3.40041e-09
-1.09381e-08
-4.57015e-08
2.90254e-08
-1.10547e-07
2.34802e-08
-2.0694e-08
-3.20236e-09
-6.8246e-11
6.40488e-08
5.40173e-09
3.25422e-07
-2.47648e-09
9.53029e-08
-1.76005e-09
-1.09397e-09
-6.03804e-10
1.66728e-09
1.83598e-09
6.50793e-09
2.44016e-09
-1.23978e-08
2.43256e-09
1.17283e-07
-1.2257e-09
5.06924e-09
-2.17078e-10
-3.59869e-09
1.2237e-08
-1.05932e-07
9.72938e-08
-1.20008e-07
7.04519e-08
4.59572e-08
4.46101e-08
-1.5238e-07
-1.17192e-07
-1.4999e-07
3.37634e-07
-4.50366e-07
2.27242e-07
-5.50209e-07
4.4483e-07
-1.15296e-06
8.47102e-08
1.00103e-07
-2.16745e-07
-1.7901e-08
5.09749e-08
5.16363e-08
8.53972e-08
-4.31788e-09
1.5393e-07
4.3116e-08
2.52778e-07
-9.89775e-08
-4.47202e-07
-6.74353e-08
3.63329e-07
-1.14776e-07
-5.93137e-07
1.06475e-06
1.05207e-06
-1.73159e-07
-1.97086e-06
6.20537e-07
-1.36857e-06
8.48579e-07
4.9197e-07
1.20784e-06
4.90499e-07
9.00811e-07
-9.08335e-07
2.28423e-07
1.4897e-06
1.6454e-06
-2.17427e-06
1.6711e-06
7.21993e-08
-1.05285e-07
-4.90388e-10
-6.94423e-09
2.35956e-08
-3.02649e-07
1.99978e-07
-5.36145e-08
2.35899e-08
-1.46331e-07
-8.01251e-08
1.96816e-07
-2.99514e-07
-2.41294e-07
-7.80595e-08
-2.83202e-07
-5.06684e-07
-2.60406e-08
-9.70693e-08
2.62127e-10
1.41265e-07
-2.88998e-08
5.14847e-09
-3.39136e-09
-3.06603e-08
-6.25824e-08
-1.05856e-08
8.97161e-09
6.02733e-09
7.09981e-10
-1.55671e-08
-2.98487e-09
1.59655e-09
1.01084e-08
1.79165e-09
-4.28419e-09
5.69308e-09
-3.48132e-08
9.9345e-09
5.70189e-07
2.58083e-07
-1.4577e-07
-6.51064e-07
-1.503e-07
5.02313e-08
6.71148e-07
1.48551e-07
-3.77162e-08
-6.91346e-08
3.36283e-08
2.20329e-07
-9.98365e-08
-7.67131e-09
-3.41249e-08
1.49496e-07
-2.33761e-07
2.26637e-08
-1.20675e-07
4.23889e-08
-1.09064e-08
-1.23618e-07
1.60235e-08
6.15099e-08
1.28807e-07
-8.19101e-07
2.15402e-08
-4.69042e-08
1.60404e-09
-1.04348e-07
1.00662e-07
-1.36701e-08
-2.84931e-08
-3.2386e-08
-1.11588e-07
-1.08768e-07
1.2956e-07
-1.1775e-07
5.5153e-08
2.55232e-05
3.39982e-07
-2.40933e-05
-7.19295e-07
-3.30681e-05
-1.207e-05
7.13844e-05
-3.51103e-05
2.50289e-06
1.32068e-05
3.57089e-05
-7.22247e-05
1.30187e-05
-4.55084e-10
1.07969e-06
-9.32199e-11
2.25366e-06
6.37573e-07
-5.28231e-05
-9.13523e-07
5.30997e-05
-5.33782e-05
5.22702e-05
1.7459e-06
5.14243e-05
-0.000157625
5.45466e-05
-5.25309e-05
-2.92797e-06
-5.2015e-05
0.000159662
-1.52293e-06
1.77843e-06
-2.62921e-06
6.15687e-13
1.97461e-12
-2.60595e-12
-5.95093e-13
2.76141e-12
-3.11121e-11
2.64449e-11
-4.77541e-12
8.19903e-12
1.88047e-12
6.15132e-12
-1.09431e-11
4.9086e-13
-8.58832e-14
1.64523e-11
-4.80527e-11
9.48172e-12
1.19231e-15
6.31872e-16
2.75099e-16
-2.32939e-15
-1.60059e-16
2.26038e-16
7.65487e-16
-3.27463e-16
3.30742e-16
-3.23806e-15
2.1503e-16
2.68184e-15
2.5118e-15
-6.69652e-15
1.60793e-15
-8.5585e-17
1.85636e-15
4.60018e-18
3.51843e-17
-4.31179e-18
-6.82554e-17
4.33506e-17
-8.20066e-17
1.50114e-17
-2.67216e-17
8.4838e-17
-1.1436e-16
8.16994e-17
-1.5851e-18
5.36869e-17
-2.63243e-16
1.00873e-16
-1.50772e-16
1.34295e-16
2.07335e-25
-1.57315e-26
-1.31641e-23
1.26649e-23
-2.78639e-25
-2.2685e-25
4.80087e-25
-4.82783e-27
-2.15811e-24
5.41475e-25
-4.51786e-24
-8.967e-24
-2.69112e-25
4.60931e-25
-3.18943e-24
1.17862e-24
-4.21366e-29
2.40171e-24
-2.2302e-23
-5.90277e-25
1.37975e-24
-3.44146e-24
1.15724e-32
-2.30323e-34
-1.29618e-31
1.02414e-31
-9.31884e-33
-5.14219e-33
5.16246e-32
-1.30227e-34
-2.80598e-32
-2.49329e-32
1.77376e-32
-2.02098e-35
3.93294e-32
-1.25419e-31
-1.54392e-31
1.59191e-31
-2.60456e-31
-3.84389e-36
-4.22272e-38
2.12505e-38
1.24519e-36
8.08456e-36
1.15279e-35
-3.10044e-35
4.5255e-36
4.71086e-38
9.77512e-37
-2.03574e-36
5.81427e-38
-8.59998e-37
2.34031e-36
2.16409e-36
4.59306e-36
4.50273e-36
1.84256e-37
3.37921e-36
-1.62064e-37
-1.06418e-35
1.30702e-36
-2.07288e-36
1.89256e-37
-2.1567e-36
5.94039e-36
-1.15521e-35
4.37181e-36
1.37595e-35
-4.03204e-35
-5.46104e-38
1.09766e-35
-1.60109e-37
1.95866e-40
-1.96361e-38
-3.69243e-41
1.15212e-39
-6.7467e-38
1.81795e-38
5.86687e-40
6.37846e-38
-3.85673e-37
6.46183e-40
-2.94646e-39
1.21933e-41
-1.97261e-39
1.60752e-39
-9.00221e-39
9.61105e-39
1.32966e-38
2.24708e-37
6.26613e-37
2.60487e-37
-1.53559e-36
1.60645e-39
9.17355e-38
4.51707e-39
2.03906e-37
3.67959e-39
9.78319e-38
5.13358e-37
-5.22151e-37
1.97176e-37
-9.84786e-38
-2.37289e-37
3.23459e-39
-2.02897e-39
-1.04361e-39
2.21447e-39
2.02118e-40
2.64808e-39
1.97937e-41
-9.75409e-37
9.74683e-39
-3.70352e-37
-4.499e-36
-1.79753e-37
-8.87475e-38
-2.48848e-38
2.29943e-37
3.0821e-38
-4.32279e-37
-1.40498e-36
4.10469e-39
-3.49512e-37
9.45178e-37
-4.11664e-37
-1.07887e-36
-1.63237e-37
3.29706e-37
-6.48473e-37
2.35413e-37
-1.61583e-36
-6.89927e-38
4.09139e-36
-2.43583e-35
9.85609e-37
4.31893e-36
-1.30851e-35
-1.54565e-37
-4.2744e-36
4.2151e-36
7.98892e-35
1.11477e-34
-3.0674e-34
1.61177e-35
1.2066e-35
-8.59992e-36
9.72668e-35
7.3485e-36
-2.43548e-35
-8.94606e-38
-1.18115e-36
-1.20192e-31
-2.4177e-33
3.56072e-32
4.44499e-33
2.35665e-31
2.20216e-31
-1.7645e-30
7.50336e-32
-1.65395e-34
-1.90481e-32
-3.92248e-33
4.09917e-32
-1.98974e-32
6.18052e-33
-6.06088e-33
-2.07714e-32
2.0452e-32
-3.66081e-32
1.25666e-32
6.4279e-32
-2.19548e-32
5.80589e-32
-3.32645e-32
-1.04662e-31
-2.12171e-32
5.31012e-33
-2.78098e-32
-1.20387e-32
-7.4432e-32
-2.49769e-32
4.83096e-33
-2.72547e-32
-3.65045e-32
7.37385e-33
-1.20837e-33
6.05031e-32
-9.6333e-32
3.37552e-32
-3.76912e-30
1.82863e-29
-8.18837e-30
-2.04297e-29
1.30626e-28
-7.31364e-29
-8.00601e-29
-3.75971e-27
-9.76849e-29
-2.99267e-29
4.86513e-30
-1.92793e-30
6.08536e-29
-3.75423e-28
2.94683e-27
-5.96784e-27
2.79818e-27
-6.53512e-19
-3.42596e-18
9.72776e-19
1.40512e-18
-2.34142e-18
1.96811e-18
-2.2527e-20
5.42707e-18
-1.486e-17
5.54598e-19
-1.52719e-18
1.7856e-18
-1.34948e-18
2.80153e-18
3.12081e-19
-1.81829e-18
-9.53248e-20
-1.12529e-18
-1.04328e-19
-1.66e-18
2.19199e-18
4.68242e-19
-2.06058e-14
3.71797e-14
1.27829e-13
-2.21951e-13
5.8079e-14
4.83161e-14
-1.5357e-13
2.33753e-14
3.85e-14
-3.03295e-15
-5.03285e-14
6.01654e-14
-9.63609e-14
9.22232e-14
-8.56965e-14
6.2573e-14
-1.17588e-13
1.88843e-13
-1.3311e-13
-4.89136e-13
3.58767e-13
-3.08564e-13
6.29091e-14
4.4119e-13
-2.40482e-13
1.27092e-12
-1.40182e-13
-6.53425e-13
7.95458e-14
1.49834e-12
-5.77355e-13
9.62702e-13
-3.96238e-13
3.56024e-13
8.50248e-14
1.4633e-12
-1.87003e-12
-1.74892e-13
3.26811e-13
2.74814e-13
3.32825e-13
-6.98295e-13
1.53586e-13
-1.0376e-12
1.26704e-12
-3.32336e-13
7.83033e-13
-3.81051e-13
4.6519e-13
6.25603e-14
-9.04763e-11
3.42238e-11
1.37075e-10
-7.3003e-11
6.55784e-11
-2.93047e-10
-5.78966e-12
-5.03455e-10
7.46219e-10
-1.10828e-10
7.20786e-11
2.34011e-11
-7.3906e-11
-1.83246e-11
-2.53524e-11
-4.52263e-11
1.30095e-10
5.04155e-11
-7.56865e-11
-4.33441e-10
1.44894e-10
3.39323e-10
-5.31009e-11
-4.75145e-10
-7.36613e-11
-2.26675e-11
-2.18224e-10
6.29232e-11
-9.54873e-11
-3.09837e-10
1.37946e-10
-1.63885e-10
-1.12343e-10
2.52919e-10
-4.81565e-10
-1.51552e-10
5.71061e-10
3.55685e-10
-1.41029e-09
2.90945e-10
-4.45087e-10
-2.32227e-10
1.92148e-10
-1.10165e-09
1.91894e-10
-5.9561e-11
-1.3726e-10
1.9546e-10
-1.96877e-10
-8.31403e-11
5.44608e-10
-7.3756e-11
-2.79851e-11
1.08179e-10
6.16057e-11
-2.64078e-10
2.32353e-10
-9.10331e-11
-1.68272e-10
4.57206e-10
-2.5514e-10
-2.01381e-16
-1.28213e-16
-3.18457e-17
4.75972e-16
9.73384e-17
-2.34624e-17
-6.49135e-20
-1.27651e-19
1.24105e-16
-5.28141e-20
3.36382e-17
-6.3829e-18
7.16428e-20
-2.00551e-19
1.2524e-19
-1.9338e-19
1.90563e-18
4.04325e-20
4.45576e-20
-7.68925e-20
-1.9801e-20
3.52509e-21
-1.71598e-21
4.55585e-20
-2.0638e-19
2.74335e-19
1.9986e-20
1.47851e-19
-1.83086e-19
6.0145e-23
-8.48481e-24
2.79286e-22
8.31701e-20
9.56657e-20
2.68434e-22
7.06717e-23
-1.52941e-21
-1.49875e-21
-1.10742e-19
-6.23856e-17
-5.71893e-18
3.55781e-18
1.52992e-17
2.36417e-17
-4.67108e-17
-4.42847e-17
-1.51775e-18
2.67574e-18
2.40606e-18
2.02769e-18
-5.11326e-17
-1.82414e-19
2.52162e-18
7.05669e-19
-2.18694e-20
1.00585e-18
5.24381e-17
2.34053e-16
3.65227e-16
-9.76461e-16
3.3259e-17
8.4238e-17
-3.5912e-16
2.76294e-17
9.77682e-17
9.71949e-18
-9.18397e-17
3.27601e-17
-5.86899e-17
4.87678e-17
4.38793e-17
-3.23561e-16
2.29009e-16
2.78045e-17
1.74906e-17
-5.43361e-17
-1.78473e-18
-2.41572e-16
-2.80689e-17
7.0564e-17
-1.84757e-15
1.86644e-16
1.90541e-16
-1.21223e-15
-7.59883e-17
-1.4821e-16
4.92429e-17
3.25983e-15
-1.74567e-14
6.23351e-16
6.21939e-18
1.76596e-18
7.51556e-19
-5.93146e-17
4.42121e-19
1.29999e-17
-5.06255e-17
6.8683e-19
6.50263e-20
-1.05387e-19
-5.03355e-18
1.1661e-18
-8.68953e-19
1.00367e-19
-1.11007e-18
2.6472e-19
-3.81334e-17
1.23766e-11
-4.54092e-12
-2.44399e-11
3.04789e-12
-1.71682e-11
-9.66983e-12
2.83939e-11
-1.29211e-11
-4.41666e-12
-3.35632e-12
-4.12017e-11
2.21525e-11
-7.68005e-12
-1.84047e-12
8.62477e-13
-1.58771e-11
-8.09519e-12
7.43254e-11
6.15242e-11
2.77096e-11
-2.20967e-10
3.26713e-11
3.54134e-10
-3.5869e-10
2.09623e-11
3.05762e-11
7.58798e-11
-1.37815e-10
1.93753e-11
-1.23711e-10
1.907e-10
2.12987e-10
3.92005e-10
-2.07505e-09
5.59271e-11
1.25131e-10
-1.01709e-10
1.61386e-10
-1.51095e-10
-4.09622e-13
-4.63512e-13
-9.37492e-14
9.24343e-14
4.40065e-14
6.40473e-13
-1.99798e-12
-3.58899e-14
3.74385e-13
2.00574e-13
-2.842e-12
1.21388e-13
-5.19937e-14
1.44634e-13
2.7017e-13
-4.91429e-13
1.27771e-13
-3.82389e-13
1.27187e-12
-5.46979e-12
2.85753e-13
8.90299e-11
2.34807e-11
7.11442e-10
-4.87988e-10
6.07456e-11
-3.9295e-12
-3.56861e-11
8.12078e-12
4.11577e-11
3.08493e-11
-3.88971e-11
6.05418e-13
-1.5949e-11
6.85078e-11
3.47882e-10
3.51963e-10
-1.68799e-09
3.53497e-11
1.15549e-10
-2.04943e-11
2.30293e-10
-1.92239e-11
-3.78499e-13
-3.0713e-11
4.08051e-11
-1.18323e-13
-4.71715e-15
1.13504e-13
1.81472e-13
-5.73685e-13
5.74566e-14
-1.09884e-13
1.62054e-12
-2.08349e-11
2.28871e-12
-8.14849e-13
1.08741e-10
7.83807e-10
3.40193e-10
8.31053e-12
-1.60653e-09
5.29494e-10
8.65395e-10
6.53751e-11
1.38654e-10
1.79011e-10
1.09595e-10
-2.26593e-11
4.77182e-11
-3.70085e-11
2.02102e-09
2.3492e-09
-1.17484e-09
-9.66125e-10
-7.71101e-09
2.46479e-09
1.00195e-08
2.88464e-10
1.34529e-09
1.00464e-10
-1.6081e-09
-2.66143e-09
-1.83129e-09
5.46279e-09
-8.38151e-10
-1.45166e-08
-1.12298e-09
-3.82304e-09
-2.13298e-08
-3.03359e-09
-8.12242e-10
-3.41387e-08
-4.41614e-09
-1.56511e-08
-1.23895e-08
8.3722e-09
-6.79158e-09
1.15257e-08
1.41116e-08
1.45374e-08
3.17014e-10
6.42016e-09
2.83e-08
2.37712e-08
3.25981e-08
3.53254e-08
-1.13982e-07
-2.08067e-08
4.56394e-08
5.04948e-08
9.20631e-09
-1.59425e-07
3.28624e-09
2.80866e-08
3.68946e-09
-3.40476e-09
3.51336e-08
1.12304e-08
4.27652e-09
7.73287e-09
2.73217e-08
1.90942e-07
2.54132e-08
-2.11818e-07
9.73689e-08
5.78324e-07
1.17028e-07
1.8118e-08
-2.24475e-08
5.64057e-07
-1.20922e-06
2.0784e-06
-1.98938e-06
7.21558e-07
1.84804e-06
-2.29817e-06
-8.88436e-07
6.46579e-07
4.1728e-07
-3.35056e-06
7.30946e-07
3.98439e-06
-2.51588e-06
6.41919e-06
2.02879e-07
1.21657e-07
-3.21545e-07
8.62059e-07
1.30818e-06
-4.04865e-07
-2.73298e-06
1.82967e-06
-7.04635e-07
-1.24744e-06
3.26025e-06
-2.728e-07
-8.36702e-07
-8.78319e-07
4.22467e-07
1.83052e-07
1.70956e-07
-1.88598e-06
-1.96044e-06
1.13547e-06
-4.52247e-06
-1.03122e-07
-2.48994e-07
-8.89972e-08
4.41113e-07
6.32509e-08
-2.12794e-07
4.64212e-08
-3.14084e-07
1.28341e-07
-2.42229e-07
-1.68417e-07
3.2173e-07
-8.0128e-07
3.46256e-07
1.7295e-06
-1.90689e-07
-1.85289e-06
-1.21817e-06
3.07613e-06
7.97549e-07
-1.78952e-06
-5.88461e-07
-2.52053e-07
-4.59789e-07
1.40625e-07
2.571e-09
4.77342e-07
-3.38704e-07
-4.33441e-07
2.94803e-07
-1.43737e-06
-1.86725e-07
2.10143e-06
-9.12613e-08
-1.68481e-06
9.11731e-07
-2.69824e-06
1.35307e-06
-1.74535e-06
2.47035e-06
-1.90294e-06
9.46389e-07
8.65293e-07
2.28669e-07
-3.81642e-06
3.32486e-06
-5.79443e-06
2.5259e-06
-3.57738e-07
-6.10663e-07
-1.61304e-07
1.1297e-06
-1.01083e-07
-4.87695e-07
2.31039e-07
-5.28695e-07
5.02993e-07
-1.79057e-06
7.99878e-07
1.47716e-06
1.63482e-06
-4.04949e-06
-4.67815e-06
-5.95473e-07
-6.43396e-08
4.35443e-07
1.84826e-06
9.55439e-07
-1.16677e-08
-1.31655e-06
3.72779e-07
-2.32666e-06
-4.98919e-07
3.78102e-06
3.44874e-07
-2.68321e-06
1.338e-06
-5.45927e-06
2.80472e-06
-3.43925e-06
4.27833e-06
-7.66829e-06
4.57391e-06
-1.58108e-05
-1.22114e-06
-1.27471e-06
-2.18078e-06
-1.07172e-06
-2.23412e-06
2.0298e-06
-1.48113e-06
3.00404e-06
-8.30159e-06
4.91732e-06
-7.70771e-06
-2.51504e-06
5.19825e-06
-2.17017e-06
1.38318e-06
3.4531e-06
-2.12655e-06
-2.98813e-06
5.32284e-07
-1.89077e-07
1.05531e-06
-1.53608e-06
2.25703e-06
2.47136e-06
-6.35338e-07
1.1079e-06
2.45214e-06
-1.50812e-06
1.04262e-06
-4.32126e-06
9.21505e-07
-1.22386e-06
-4.41903e-06
4.46575e-06
-2.01431e-06
-7.97904e-06
1.08367e-05
-1.53865e-06
-1.80385e-06
1.26582e-06
4.21419e-06
-7.01909e-06
6.07746e-06
-6.81915e-06
4.36331e-06
-8.60181e-06
5.86148e-06
2.06289e-05
1.95307e-05
7.88299e-07
-5.20146e-05
-4.42846e-06
7.05142e-06
4.36823e-06
-1.30327e-05
8.41551e-06
1.01825e-05
1.09951e-05
-2.90045e-05
9.77917e-07
9.25015e-06
2.99835e-05
-3.61385e-05
2.64764e-05
2.13685e-05
3.74875e-05
2.33747e-06
-6.09508e-05
2.76268e-06
-1.45593e-06
7.33046e-06
9.53482e-06
9.80525e-06
8.51089e-06
-9.87947e-06
-9.88342e-06
-9.94911e-07
7.19644e-06
-1.48622e-05
1.00613e-05
-3.37584e-05
6.5256e-06
-1.9877e-05
-4.66696e-05
6.11825e-05
-1.89507e-05
-3.01567e-05
5.38616e-05
-2.25202e-05
-1.76407e-05
-4.03758e-05
-5.22296e-05
6.22942e-05
-2.2119e-05
-5.06262e-05
1.77121e-05
-5.60802e-05
-5.45223e-05
-4.9788e-06
2.83688e-06
-5.42627e-06
2.28875e-06
1.37939e-05
-6.13517e-06
-2.05799e-05
-3.887e-05
5.18471e-05
1.3056e-07
5.59256e-06
-1.47235e-05
4.20376e-05
-6.4472e-05
6.6006e-07
2.36801e-06
1.85551e-06
1.96688e-05
2.24948e-05
-3.76755e-07
-1.93811e-05
-3.79836e-06
-2.40487e-08
-3.8195e-08
1.44477e-08
3.86467e-08
-1.8816e-08
-2.78284e-10
-5.03853e-09
-3.23765e-07
2.29332e-07
9.18067e-07
-8.43756e-07
-1.22654e-08
1.07609e-06
1.59289e-07
-3.41946e-10
-1.2355e-06
-3.83799e-09
8.07913e-08
5.07633e-10
-1.15233e-09
1.10868e-08
6.16401e-10
4.67055e-11
-6.48719e-10
-1.16635e-10
-1.29275e-09
-3.83402e-10
1.73595e-09
-2.70638e-09
8.29097e-10
8.12054e-10
-2.36928e-09
-7.73172e-11
-5.85261e-09
4.82876e-09
1.19013e-08
-2.10296e-08
3.53545e-09
5.15458e-11
6.4136e-11
3.73242e-11
-1.563e-10
-2.62305e-11
4.13772e-11
6.34042e-11
1.03142e-10
-4.92572e-11
5.12978e-11
-1.44717e-10
1.38132e-10
-5.23578e-11
1.65172e-10
-1.1927e-10
-1.77544e-10
-6.25808e-11
-6.96447e-11
-3.49078e-11
1.74416e-10
3.51787e-12
-1.0027e-10
2.11968e-11
-7.74219e-11
6.14819e-12
-1.15293e-10
-1.38757e-10
2.14751e-10
-3.57894e-11
-1.85869e-10
1.32968e-10
-2.51145e-10
-2.58733e-12
7.89945e-10
3.34393e-10
-1.19697e-09
-1.94478e-10
6.46826e-10
-8.92345e-11
1.75087e-10
4.29128e-10
5.36591e-10
-1.2666e-15
1.32205e-15
1.06992e-16
-1.711e-15
6.94346e-15
-2.08836e-14
1.1193e-14
-1.65014e-15
8.13077e-15
-9.53703e-16
4.30144e-16
1.51548e-16
2.20539e-16
-5.01278e-15
2.99037e-15
-2.52913e-14
7.36027e-16
-2.50565e-19
-7.30117e-19
-5.59751e-19
1.50156e-18
-1.89238e-19
3.42422e-21
-9.86912e-20
-9.71664e-18
-2.55689e-18
-3.37986e-19
3.39683e-19
1.1004e-21
8.88037e-19
-1.33618e-18
1.09292e-17
-3.30476e-17
6.46961e-18
-6.29335e-29
-1.03139e-30
6.03881e-30
2.79633e-30
6.83883e-29
2.12907e-28
-9.65838e-28
1.48702e-29
-1.10619e-30
5.78436e-31
1.68361e-28
3.62709e-29
4.87881e-30
1.50491e-31
-2.69866e-29
2.54403e-29
1.1472e-28
-1.41667e-37
-1.0254e-38
2.37222e-40
2.96975e-38
1.34964e-36
2.1824e-37
-4.52511e-36
3.86332e-37
-2.66472e-36
9.97537e-39
-2.94205e-38
2.76469e-40
-3.57134e-38
4.15144e-38
3.86317e-38
8.14719e-38
2.48795e-37
-7.04209e-35
3.3626e-33
-6.23177e-33
4.19411e-36
1.56012e-32
-2.36325e-31
2.03139e-31
-2.99262e-33
9.93063e-33
4.79644e-34
5.60841e-32
-7.33318e-32
4.11308e-34
2.76484e-33
-1.846e-31
1.27678e-36
-1.72952e-40
-7.98609e-36
-1.02944e-36
9.01425e-36
9.29805e-42
4.05163e-42
-1.19128e-39
-7.81164e-35
5.53759e-37
-1.51821e-39
8.97724e-40
4.82594e-42
1.36314e-38
-1.68532e-38
1.2896e-34
-2.06998e-34
1.21416e-35
4.65229e-35
1.03369e-35
1.5347e-38
1.31196e-37
-1.64576e-37
3.00501e-39
1.85016e-39
-4.29523e-33
4.34176e-33
-8.46045e-33
-6.29121e-32
1.42849e-35
-1.87822e-37
7.54006e-37
-2.90053e-35
-1.05754e-35
-1.40538e-35
-1.59875e-37
-1.70162e-35
-3.46813e-34
3.57136e-35
3.01777e-34
1.04716e-34
-4.76485e-34
-2.02627e-35
9.02966e-37
7.00133e-35
7.59548e-35
-1.0564e-37
2.3271e-36
1.73211e-36
1.74193e-27
-3.44335e-26
1.71035e-26
-3.76439e-31
-3.20799e-26
1.53164e-26
1.37247e-27
4.30782e-26
-2.1645e-25
-1.17819e-26
-1.1884e-26
2.82698e-26
-2.20408e-26
3.6018e-27
-2.42862e-27
6.3795e-27
-6.67863e-31
-5.74019e-31
-2.33581e-30
-4.89732e-31
-3.63936e-31
-8.54754e-31
1.74817e-31
-2.9454e-31
-8.97049e-30
-1.01449e-30
7.67872e-31
-4.91138e-32
2.43554e-30
-1.83888e-29
-2.80216e-31
1.64306e-30
-2.43816e-33
-1.01989e-27
1.67594e-26
5.60766e-27
-5.11224e-26
4.14999e-27
-5.16905e-27
-8.3248e-31
-5.36542e-27
1.32749e-26
-3.18684e-26
8.75729e-27
2.03696e-26
1.12008e-26
-1.3098e-25
5.71972e-27
-2.0491e-29
3.11373e-27
-3.17379e-30
-7.5587e-29
-2.57549e-28
-3.02775e-27
1.13155e-24
-3.37723e-24
2.53139e-24
-2.8629e-25
-1.45458e-23
3.7299e-24
1.3718e-24
1.52777e-23
-4.02791e-23
-8.82502e-25
-8.95808e-25
2.69994e-24
-1.7463e-24
1.12266e-24
-1.57661e-24
1.10709e-23
-3.56357e-26
-8.04885e-27
3.22618e-26
-1.11674e-25
5.97124e-27
8.79491e-26
-1.86675e-25
-3.53038e-26
-1.19373e-25
1.67364e-25
-6.9178e-25
-1.09458e-25
1.77302e-26
-1.48204e-25
2.24743e-22
1.59812e-22
-3.5036e-23
-4.07732e-22
-9.85323e-23
-2.09134e-23
-1.6192e-23
1.57754e-23
-4.66441e-24
-1.25911e-22
6.16163e-23
-6.91419e-23
-2.62119e-22
-2.46904e-20
1.14377e-19
-3.68071e-20
-9.55362e-20
2.66721e-19
-1.58663e-19
-1.79664e-19
-1.34661e-18
-4.73579e-19
-8.27363e-20
9.36763e-20
-3.21761e-20
7.934e-19
-1.09587e-18
2.38251e-18
-3.90815e-18
1.15464e-18
-1.40441e-16
-1.6332e-16
5.25739e-18
2.85504e-16
9.4824e-17
-1.73724e-16
-5.72557e-17
-4.12527e-16
1.63482e-16
-3.5744e-16
-2.36e-16
6.22793e-16
-8.93577e-17
-4.06732e-16
1.16883e-15
-1.62442e-15
1.00926e-15
-1.20979e-15
1.22425e-15
3.73359e-15
-8.68282e-15
2.54435e-15
2.58968e-14
-4.70174e-14
7.20246e-16
8.92302e-16
2.93339e-16
-2.52827e-15
2.47432e-15
-1.3045e-15
2.04907e-15
4.12847e-15
2.07981e-15
-3.39358e-15
5.10455e-15
1.41582e-14
1.90175e-15
-2.20843e-16
1.79458e-15
-9.60155e-13
-1.33519e-12
7.48107e-15
2.33152e-12
-4.64578e-13
3.52625e-13
-3.87245e-13
-1.53369e-12
-4.29705e-13
-1.27673e-12
9.1937e-13
1.06321e-12
-1.87882e-13
2.83057e-12
-4.37641e-12
3.84302e-12
-2.98874e-10
-5.14179e-10
1.86881e-10
-1.44396e-10
7.90791e-11
-1.80999e-11
3.24461e-11
-5.26816e-10
-3.31194e-11
6.28943e-11
-1.53656e-11
-3.57453e-11
-1.00514e-10
-6.42607e-11
7.19103e-11
-6.43797e-12
-2.99398e-15
5.78782e-10
-3.01175e-10
7.75062e-10
1.61248e-11
-2.50171e-11
4.25437e-12
8.64622e-11
-4.34997e-12
-5.63899e-11
-9.56147e-11
-2.41517e-11
2.17736e-10
-3.83118e-12
-7.31065e-11
-7.41909e-11
7.17236e-11
-1.44314e-12
1.99058e-11
-1.56075e-10
-1.11385e-10
1.65476e-10
1.54231e-10
-1.69837e-11
-9.86765e-11
1.2841e-11
-1.19778e-10
-1.29033e-12
-8.16187e-11
-4.35207e-11
1.51263e-10
4.10902e-11
-2.31605e-10
1.68737e-10
2.70576e-11
5.47001e-11
4.08945e-11
-4.31661e-11
4.28094e-11
1.89686e-10
-3.49457e-11
8.18812e-11
-6.87257e-11
5.71087e-15
-3.94704e-16
-2.79803e-15
1.39616e-15
-3.0095e-15
-1.6975e-16
3.81895e-15
-1.93629e-15