/*--------------------------------*- C++ -*----------------------------------*\
| =========                 |                                                 |
| \\      /  F ield         | OpenFOAM: The Open Source CFD Toolbox           |
|  \\    /   O peration     | Version:  v2012                                 |
|   \\  /    A nd           | Website:  www.openfoam.com                      |
|    \\/     M anipulation  |                                                 |
\*---------------------------------------------------------------------------*/
FoamFile
{
    version     2.0;
    format      ascii;
    class       volScalarField;
    location    "0.15";
    object      p;
}
// * * * * * * * * * * * * * * * * * * * * * * * * * * * * * * * * * * * * * //

dimensions      [1 -1 -2 0 0 0 0];


internalField   nonuniform List<scalar> 
6576
(
-585.566
-645.682
-604.915
-600.135
-583.92
-549.235
-591.856
-580.743
-566.211
-580.838
-515.654
-529.432
-539.645
-536.565
-511.489
-513.574
-609.533
-556.035
-528.86
-444.557
-589.212
-520.68
-524.565
-675.725
-452.493
-363.703
-202.065
-602.564
-654.392
-652.783
-607.43
-669.896
-563.671
-428.23
-420.594
-399.876
-466.303
-423.522
-480.137
-450.241
-539.578
-607.555
-507.196
37.7159
7.32115
48.2126
16.1883
31.3081
77.7361
49.0953
22.6568
50.7737
-2.90724
-2.9127
-2.93247
-2.86145
-2.87255
-2.89654
-2.8838
-2.90747
-2.86239
-2.84577
-2.82047
-2.86222
-2.90777
-2.85619
-2.55041
-2.59072
-2.63105
-2.64238
-2.59645
-2.71203
-2.65289
2.88492
2.75415
3.06661
2.79485
2.9553
2.99808
2.95921
2.78766
2.76877
2.77488
2.81361
2.95115
2.82088
2.76769
8.72235
8.11064
8.64706
8.73068
9.92768
8.46025
9.19262
115.783
107.764
160.523
38.4565
88.9815
128.322
82.4723
246.669
213.789
213.294
220.062
256.446
202.168
242.735
191.799
174.248
213.117
161.796
185.499
184.547
-2.96444
-2.98203
-3.05433
-3.02216
-3.25678
-3.11972
-3.09026
-57.1129
-122.569
-398.585
-230.562
-144.51
-66.9132
-3.00199
-2.43386
-3.21466
-2.95699
-3.63431
-3.38992
-3.7951
-3.76005
1.64643
2.03467
1.48009
2.17243
2.34456
2.17141
1.8579
-2.08645
-1.3192
-0.0297254
-1.9455
-0.63519
-0.318888
-1.80972
-6.52782
-5.85203
-7.09139
-4.63051
-4.35084
-4.81442
-4.94117
-9.33995
-12.0956
-10.4604
-8.94497
-11.8135
-10.175
-8.30241
-10.638
-8.24846
-12.7927
-13.1276
-13.2124
-12.6579
-11.8446
-11.9647
-12.4352
-14.2346
-15.415
-14.1017
-13.9103
-14.7891
-13.6757
-14.0376
-14.041
-13.3271
-9.31211
-8.65167
-8.73043
-9.42238
-8.3161
-7.9241
-9.8154
-9.77114
-8.06867
-6.55054
-6.80724
-6.64742
-7.14718
-8.18107
-6.65468
-7.15036
-6.41028
-5.97684
-6.10236
-6.06433
-7.00773
-6.41167
-5.94573
-4.43174
-4.32171
-4.71935
-5.68591
-4.62948
-4.80218
-4.99678
-3.4386
-3.85856
-3.96175
-2.98411
-3.44689
-3.82175
-4.17902
-4.17608
-3.96243
-4.05265
-4.52465
-4.37102
-4.38424
-4.63442
-5.30144
-4.79895
-6.06312
-5.33914
-5.84281
-6.78127
-5.94956
-8.02569
-9.73767
-8.74792
-7.80334
-7.48632
-9.56005
-8.73578
-12.9473
-12.8784
-14.2562
-11.9292
-11.2917
-13.0248
-11.7695
-13.3964
-13.4478
-12.6348
-13.3767
-14.4931
-13.37
-14.3774
-13.806
-12.8267
-8.9182
-7.77534
-7.02022
-10.8377
-10.0452
-9.13909
-8.72501
0.794556
0.650391
0.916473
1.05933
0.959978
0.85125
1.0047
194.423
169.098
161.243
180.668
154.918
118.35
146.172
133.563
160.262
53.7136
85.7036
54.257
51.6403
25.507
34.8075
9.56905
1.40637
1.52664
1.51326
1.4484
1.5077
1.67929
1.56211
1.46823
1.15211
91.5021
56.0976
66.7725
0.21912
-0.493705
0.969632
-1.2685
-0.352641
-2.18703
-2.89863
-1.34239
-1.45018
-1.32302
-1.3545
-1.2809
-1.23904
-1.29937
-0.340853
-1.41163
-1.11732
0.224304
-0.779906
0.443327
0.263599
-0.3069
0.374936
-1.88087
-2.07012
-2.10632
-1.53379
-1.7504
-1.79862
-1.89115
2.73906
2.71979
2.62917
2.0872
2.68551
2.72266
2.50955
3.31782
2.11484
2.67154
1.12452
1.38105
1.00753
1.23005
1.80218
1.58314
1.73929
1.61918
1.79367
2.14984
2.63435
1.46443
0.921387
1.95155
1.60592
205.352
203.614
216.562
179.098
183
191.075
196.541
194.545
195.185
208.483
184.354
170.112
122.339
150.604
162.093
174.205
43.3229
14.3643
61.1522
77.0625
105.157
45.0098
75.6175
4.31587
3.25946
5.02364
5.31481
6.08442
6.61329
5.0346
-7.47589
-8.67916
-7.40823
-12.3616
-10.2745
-11.1124
-9.29909
-7.63923
-8.66833
-8.64894
-8.40008
-10.6945
-10.5072
-11.4205
-9.39298
-10.3208
-1.60674
-6.6098
-4.43618
-6.61339
-10.2242
-5.18704
-9.83775
-6.76654
-2.20817
12.8363
-17.8442
12.3746
-17.8387
8.18445
3.56619
6.46515
7.14111
2.39692
-1.6821
17.7588
-8.58725
11.017
22.2075
-5.96331
-6.76641
-5.81792
-5.63751
-5.12122
-5.88796
-5.15277
-4.17378
-4.68009
-4.00595
-4.15083
-3.83497
-3.60768
-3.75993
-2.98401
-3.42954
-3.08838
-2.63414
-2.82932
-3.08925
-2.88116
-1.9775
-1.98141
-1.82162
-1.90047
-1.88869
-1.64587
-1.57849
-1.72785
-1.70286
-2.12037
-2.14656
-2.04072
-2.02156
-1.97051
-2.08909
-2.05636
-2.23168
-1.976
-2.17062
-2.19495
-2.26359
-2.10227
-2.20122
-2.2312
-2.24554
-2.28709
-2.1627
-2.08934
-2.17979
-2.20092
-2.72485
-2.67576
-2.53136
-2.70097
-2.76047
-2.68035
-2.50127
-2.45072
-2.52385
-2.53115
-2.53775
-2.5484
-2.47065
-2.50158
-2.7644
-2.61683
-2.69174
-2.49589
-2.50325
-2.20627
-2.92826
-2.91426
-2.90982
-2.89042
-2.9217
-2.91673
-2.87599
-2.89213
-2.9072
-2.91529
-2.80834
-2.87005
-2.86834
-2.89151
-2.92683
-2.92828
-2.89809
-2.90625
-2.82695
-2.8842
-2.91588
-2.91744
-2.90184
-2.88769
-2.855
-2.89028
-2.92618
-2.91247
-2.9188
-2.92092
-2.9017
-2.88555
-2.82438
-2.88673
-2.90758
-2.92561
-2.92542
-2.93504
-2.92331
-2.90437
-2.90526
-2.93574
-3.34854
-3.21083
-3.27735
-3.53471
-3.20835
-3.46356
-3.22655
-3.22317
-3.36232
-4.30344
-4.54689
-4.30978
-4.53586
-3.76448
-4.80985
-4.31687
-5.03542
-4.46407
-4.72094
-5.16706
-5.15513
-4.45323
-4.67192
-6.27054
-6.24291
-5.6465
-7.0834
-5.8901
-5.51229
-6.38545
-13.5565
-14.2633
-14.6231
-12.8937
-12.4532
-15.2417
-15.2718
-15.0242
-14.7843
-14.3288
-14.8097
-14.853
-14.1826
-12.7858
-12.5395
-13.0425
-11.8088
-12.7964
-14.309
-7.53025
-6.935
-6.09358
-8.45464
-5.74725
-7.58469
-9.70904
-0.502669
-0.521087
-0.539845
-0.48643
-0.530004
-0.527638
-0.484705
-0.646184
-0.621483
-0.578662
-0.672958
-0.707575
-0.647283
-0.685725
-0.640952
-0.59892
-0.570941
-0.667313
-0.661338
-0.727024
-0.654034
-0.7584
-0.689193
-1.0845
-1.03501
-1.09633
-1.12655
-1.08045
-1.04329
-1.08678
-0.853186
-0.900402
-0.913611
-0.834838
-0.891908
-0.852469
-0.922667
-0.662883
-0.662898
-0.726202
-0.746563
-0.759243
-0.699934
-0.693783
0.207464
0.0848128
0.209117
0.275299
0.168897
0.333078
0.232281
0.642592
0.713292
0.64036
0.657627
0.475927
0.764166
0.657067
0.747703
0.616401
0.536466
0.673266
0.680267
0.758646
0.712628
0.699341
0.608093
0.643605
0.536164
1.06855
1.11582
1.01127
1.05025
0.930334
0.987777
1.07173
0.89584
0.991279
0.897491
1.01893
1.1068
1.01507
1.01056
0.916599
0.873365
1.32086
1.34347
1.30563
1.30031
1.16933
1.25097
1.64447
1.53667
1.82857
1.45166
1.52371
1.41876
1.14337
1.29618
1.36343
1.16385
1.63541
1.46279
1.55451
2.07074
1.70549
1.30484
1.56961
0.395711
1.75764
-2.2788
2.20548
2.33028
2.98581
2.26986
1.6521
3.82271
3.01074
1.92997
1.57297
1.35512
1.42529
1.55527
89.4526
64.6688
59.4421
35.9835
17.7173
37.4686
56.0542
172.435
156.952
182.008
181.569
209.205
229.618
263.924
249.813
239.66
220.875
193.362
224.709
190.395
198.543
232.232
187.688
147.032
216.861
180.776
201.529
236.437
205.771
332.511
318.034
348.109
330.333
309.795
326.044
355.003
334.065
309.736
257.235
266.091
278.211
250.839
240.151
272.178
245.492
226.891
229.816
208.741
465.404
406.862
436.07
520.398
444.001
443.117
548.829
254.543
230.914
294.687
352.123
327.342
240.989
269.283
96.5521
115.619
35.0976
190.239
128.404
86.4912
144.087
144.65
99.854
213.422
261.323
305.371
178.011
214.724
172.504
108.775
139.576
133.796
49.6253
97.2758
-26.3545
-128.645
-45.0401
-26.9449
-29.5413
-48.9944
-34.7706
-98.7543
-213.837
-105.012
-128.369
-36.6121
-136.297
-65.5581
-44.1601
-7.73154
-10.9998
-30.2029
0.337633
-11.2742
-5.36724
16.0744
-10.8886
-17.8394
-9.34802
-8.35825
-7.76573
-8.43938
-6.6605
-6.35373
-7.2998
-7.81774
-8.21285
-11.2367
-11.7204
-10.941
-11.9146
-12.3997
-12.4986
-12.7418
-3.29504
-3.61889
-1.92868
-5.63647
-3.79229
-2.6155
-4.49093
-4.70426
-3.77497
-6.2323
-6.01912
-4.79594
-6.81201
-8.05976
-11.5966
-12.5221
-9.62037
-7.14471
-7.52256
-1.63185
-2.03979
-2.1658
-1.38491
-1.14696
-1.58408
-1.70423
-1.37083
-1.04318
-1.20186
-0.959
-0.931087
-1.22074
-1.30061
-0.329347
-0.211125
-0.454684
-0.359719
-0.45948
-0.665452
-0.524016
-0.962176
-0.620202
-0.897026
-0.974106
-1.12518
-0.886743
-1.00351
-0.933419
-1.03988
-1.19646
-0.747242
-0.896203
-0.920563
-1.02711
-1.61679
-1.38141
-1.3819
-1.44665
-1.16999
-1.32003
-1.4239
-1.46613
-1.17422
-1.44161
-1.47653
-1.41864
-1.30513
-1.94654
-2.03143
-1.91662
-1.92059
-1.77049
-1.99801
-1.68395
-1.87673
-2.1692
-2.15952
-2.12885
-2.34909
-2.43565
-2.29059
-2.47489
-2.48207
-2.38177
-2.39743
-2.79307
-2.79697
-2.76445
-2.72853
-2.68135
-2.75279
-2.77295
-2.87054
-2.84639
-2.85595
-2.87467
-2.79378
-2.82792
-2.86081
-2.90462
-2.9156
-2.88606
-2.918
-2.93665
-2.91104
-2.90609
-2.95475
-2.94594
-2.92885
-2.94305
-2.93084
-2.9355
-2.92211
-2.99115
-2.94292
-2.9791
-2.94315
-2.99448
-2.97493
-2.97217
-2.96577
-2.97351
-2.93647
-2.9468
-3.02003
-2.99379
-2.97832
-3.02872
-2.9476
-2.98217
-2.95637
-2.98111
-2.97802
-2.97356
-2.98762
-3.28023
-3.30128
-3.26891
-3.24817
-3.12389
-3.23615
-3.2641
-3.1293
-3.046
-5.92738
-5.54984
-6.26073
-4.79497
-5.23547
-5.72808
-5.31858
-8.40017
-7.93264
-7.91216
-6.75921
-6.9289
-7.61203
-7.33657
-8.97763
-9.755
-10.4881
-8.07055
-7.41084
-6.97166
-7.25297
-6.98395
-6.95761
-7.07644
-7.40321
-7.54724
-9.80896
-8.8379
-7.80129
-9.31481
-9.7284
-9.16279
-9.72641
-9.18446
-8.70252
-0.596884
-0.617546
-0.641811
-0.616655
-0.629874
-0.663539
-0.682958
-0.662894
-0.650231
-0.89549
-0.884238
-0.8572
-0.896791
-0.923232
-0.896059
-0.875125
-0.92955
-0.901181
-0.907387
-0.902172
-0.924701
-0.930605
-0.911485
-0.984026
-1.00365
-0.984926
-0.97973
-0.998511
-0.969644
-0.997109
-0.995158
-0.973101
-1.00356
-1.00942
-1.01522
-1.00451
-1.01421
-1.01376
-1.00681
-0.141019
-0.193861
-0.198516
-0.249678
-0.19916
-0.264037
-0.220454
0.0366816
0.0600078
0.145493
0.0327303
0.000424751
-0.0389995
0.0325142
-0.00137131
0.0763775
-0.0249516
0.0305161
0.119358
0.0417246
0.0431061
-0.0140886
-0.0574594
0.245413
0.352943
0.337891
0.342783
0.457935
0.385155
0.468863
0.194754
0.367927
0.295862
0.723445
0.830767
0.762952
1.00281
1.15519
1.09621
3.50061
2.86413
3.07012
2.79544
3.38861
3.44184
2.7571
284.547
301.744
272.581
419.447
409.988
353.983
484.854
370.717
349.601
425.448
481.817
396.24
432.984
628.035
654.677
678.726
639.911
719.407
689.658
799.123
596.136
645.349
588.5
1013.42
1040.32
971.944
1171.16
961.105
981.191
1178.45
1075.44
848.881
843.738
832.72
790.439
890.897
397.642
570.205
551.502
561.935
641.593
606.213
497.203
682.475
563.238
752.163
802.571
836.909
738.394
771.718
398.193
230.856
401.503
426.501
507.936
383.85
493.442
96.0566
37.0466
62.9485
48.9466
41.4115
67.5173
98.4299
-5.19711
-6.26675
-4.81525
-8.07569
4.06254
-8.60984
-2.10752
6.44614
-41.9672
-17.6823
-14.2519
-25.5323
1.36317
-11.6921
3.82857
1.44895
10.4807
15.1372
12.2374
3.75295
8.17973
2.8671
3.02815
2.90418
2.98281
2.83438
2.88196
2.77037
2.87322
2.80662
2.90746
2.909
2.89741
2.91115
2.88048
1.65293
1.76382
1.9871
1.1005
1.75574
1.36986
1.07112
0.600653
0.523577
0.0673229
0.750934
1.02364
0.801146
0.538137
0.678091
0.321094
0.680429
0.743648
0.786352
0.36291
0.558943
0.540225
0.812942
0.793204
0.819167
0.887239
0.729993
0.568214
0.625088
0.866864
0.855586
0.851333
0.938208
0.644336
0.794529
-0.0375531
0.237599
0.215428
0.0561616
0.28837
0.344657
0.468485
0.416531
0.24608
0.905749
1.22378
1.00781
0.923339
0.712425
1.0323
0.916852
0.94914
0.879497
0.686028
1.01013
1.15026
1.01642
0.88664
0.377864
0.608628
0.391422
0.357902
0.134486
-0.0294487
0.247875
-0.548661
-0.33087
-0.403304
-0.099136
-0.306356
-0.206175
-0.371338
0.342698
0.596389
0.425608
-0.500997
-0.305586
-0.388362
-1.09237
-1.01954
-1.01509
-1.76994
-1.69303
-1.6003
-1.59716
-1.6493
-1.41854
-1.5204
-1.88696
-1.74181
-1.87456
-1.94053
-1.70247
-2.24102
-2.2297
-2.13478
-2.05782
-1.95442
-2.10317
-2.14953
-2.17857
-1.93522
-1.99121
-2.28287
-2.38823
-2.09618
-2.09257
-2.52471
-2.59445
-2.46283
-2.7392
-2.56539
-2.49737
-2.60475
-3.2972
-3.19447
-3.11663
-3.54401
-3.39511
-3.01777
-3.12682
-3.02188
-2.99474
-3.02403
-3.02841
-3.02078
-3.77966
-3.67381
-3.85639
-3.69659
-3.99198
-3.69887
-3.6834
-3.14781
-3.07856
-3.09993
-3.14077
-3.11452
-3.2047
-3.1512
-2.98945
-2.98118
-2.97635
-2.97218
-2.91859
-2.94658
-3.07235
-3.00136
-3.01117
-3.01845
-2.99999
-2.94611
-3.05403
-3.02181
-3.03005
-3.0555
-2.98677
-2.99402
-3.11793
-3.06566
-2.93057
-2.98083
-2.96135
-2.99853
-3.01483
-3.02217
-2.98848
-2.99595
-2.99785
-2.99888
-2.96767
-2.9632
-2.9563
-2.97211
-2.9775
-2.9787
-2.97275
-2.97585
-3.06473
-2.99105
-3.06519
-2.99691
-2.98155
-2.98085
-2.96161
-2.94517
-2.92637
-2.9147
-2.93437
-2.93177
-2.87268
-3.08052
-3.10649
-3.26246
-3.13384
-3.28689
-3.02704
-3.14337
-1.41668
-1.29036
-1.26181
-1.43767
-1.44586
-1.39879
-1.38803
-1.22971
-1.17126
-1.06443
-1.18976
-1.14919
-1.20432
-1.09303
-1.58195
-1.64911
-1.60251
-1.54461
-1.65784
-1.56438
-1.64445
-0.868527
-0.963136
-0.892854
-1.03835
-1.04036
-1.00287
-1.01172
-0.9117
-0.902771
-0.802167
-0.766282
-0.80745
-0.826235
-0.785516
-0.761932
-0.806979
-0.889611
-0.956388
-0.880109
-0.983047
-0.982192
-0.921317
-0.919778
-0.950325
-0.960081
-0.989914
-1.03537
-1.03727
-1.01376
-1.0134
-0.969778
-0.965224
-1.08454
-1.11159
-1.05809
-1.0761
-1.11553
-1.07335
-1.11655
-1.11312
-1.06393
-0.992447
-1.02754
-0.976857
-1.04664
-1.04376
-1.01451
-1.00603
-1.04352
-1.03376
-1.01529
-1.05176
-1.06686
-1.04975
-1.0327
-1.05495
-1.04619
-1.07546
-1.01434
-1.03506
-1.05784
-1.03595
-0.859047
-0.848586
-0.81269
-0.862127
-0.891713
-0.867082
-0.836348
-0.88327
-0.861802
-0.836704
-0.855083
-0.878083
-0.823691
-0.850251
-0.728278
-0.763725
-0.723924
-0.70877
-0.664687
-0.697066
-0.73184
-0.359077
-0.397038
-0.401308
-0.348597
-0.386481
-0.412253
-0.387383
-0.50081
-0.56361
-0.557231
-0.628923
-0.582906
-0.55817
-0.605921
-0.318716
-0.391527
-0.377642
-0.461967
-0.323741
-0.408086
-0.0854476
-0.173133
-0.197194
-0.177462
-0.11466
-0.215727
-0.240258
-0.278975
-0.186795
-0.224638
0.153783
0.0888041
0.0635075
36.4783
15.7806
58.8603
10.2877
9.62781
26.2616
26.5028
985.241
919.551
942.631
1086.27
849.453
859.038
935.818
1132.79
1031.29
1120.13
1105.35
1055.7
1065.8
1206.62
1090.14
1103.39
1314.85
1201.2
1115.35
1091.24
31.8405
15.713
30.1023
10.4546
18.1037
12.9626
8.26041
50.3306
114.535
55.3301
52.5798
65.1754
103.278
35.054
1.59276
1.48325
2.03738
1.89651
2.2286
1.75434
1.87
7.37804
-22.2456
17.1766
40.7739
43.394
10.8429
-6.5526
12.7594
-17.3996
9.07995
0.24523
-3.51079
14.6358
-0.567951
-22.7449
-25.654
1.57066
1.43493
2.28555
2.37362
1.65171
2.12957
2.15792
2.06732
1.87403
2.40511
2.35459
2.21458
2.30719
2.31514
2.19257
2.10069
2.23716
2.1427
2.58552
2.60587
2.50364
2.55248
2.59673
2.49484
2.57358
2.19079
1.9614
2.16969
1.95042
2.11706
2.13046
2.23026
2.12601
1.90766
2.11805
1.91077
2.06068
2.08061
2.17789
1.89057
2.15922
2.08285
2.18821
2.26867
2.14862
1.9856
1.38221
1.56496
1.55946
1.74098
1.56039
1.64615
1.77168
2.15955
2.33556
2.1605
2.18162
2.29006
1.36698
1.58399
1.57893
1.51613
1.33235
2.35063
2.17325
2.34352
2.27111
2.12667
1.35144
1.52544
1.57454
1.44329
1.2826
0.900612
0.694939
0.878362
0.261269
-0.0594145
0.169332
0.509997
0.401758
1.11418
1.00392
0.889243
0.793006
0.971207
0.937439
1.05674
-0.684708
-0.513768
-0.567329
-0.309249
-0.409638
-0.377316
-0.485361
-0.58892
-0.314626
-0.209485
-0.338542
-0.474042
-0.122113
-0.0863272
-1.83567
-1.7912
-1.66224
-1.40076
-1.40684
-1.55204
-1.5508
-4.65575
-4.48597
-5.21037
-4.82479
-4.79066
-4.96696
-5.35161
-4.41634
-4.41306
-4.74912
-4.43767
-4.15957
-4.49171
-4.8058
-2.98847
-2.95418
-2.97114
-2.94175
-2.9555
-2.93895
-2.96233
-2.93272
-2.94039
-2.9902
-2.96648
-2.94047
-2.95557
-2.88853
-2.96078
-2.94091
-2.94085
-2.93945
-2.95926
-2.948
-2.88096
-2.93086
-2.93971
-2.95262
-3.09761
-2.89081
-2.92719
-2.97191
-2.84212
-3.32052
-2.9554
-3.01966
-4.73065
-5.29077
-4.99295
-4.85784
-3.0965
-5.62933
-5.46188
-2.72524
-199.117
-45.4678
-66.4865
-57.4343
-51.0949
39.0092
-1.57041
-2.14825
-2.23051
-1.52488
-2.48232
-3.43024
-1.29367
-5.62535
-9.51824
-6.7101
-5.27377
-7.52755
-3.28321
-4.97123
-3.89474
-3.90421
-3.35262
-3.08394
-2.86658
-2.47515
-3.14751
-2.40632
-2.80046
-2.92214
-4.45378
-2.53136
-2.74478
-2.99582
-1.44456
-1.57636
-1.57315
-1.55225
-1.66417
-1.68325
-1.62955
-2.17207
-2.12406
-2.0609
-1.95978
-2.02967
-2.3239
-2.18183
-1.96148
-2.03151
-1.2498
-1.31423
-1.35696
-1.35769
-1.46997
-1.3753
-1.29362
-1.33438
-1.3385
-1.41026
-1.3955
-1.37649
-1.4666
-1.43276
-1.42228
-1.45369
-1.36848
-1.39981
-1.373
-1.33013
-1.31361
-1.27409
-1.22282
-1.22233
-1.27975
-1.29399
-1.24697
-1.23873
-1.15707
-1.18197
-1.14169
-1.12938
-1.10511
-1.13191
-1.15562
-1.02429
-1.04779
-1.05115
-1.05125
-1.08121
-1.08167
-1.05956
-0.927097
-0.896113
-0.938682
-0.94083
-0.960223
-0.952296
-0.92192
-0.971196
-0.939417
-0.971825
-0.941371
-0.892152
-0.940021
-0.936793
-0.967827
-0.983664
-0.860361
-0.828839
-0.826786
-0.824262
-0.777354
-0.776815
-0.808804
-0.822938
-0.877431
-0.842525
-0.65763
-0.702197
-0.711503
-0.732281
-0.701209
-0.760231
-0.726575
-0.734123
-0.725445
-0.768324
-0.717114
-0.675076
-0.711083
-0.746769
-0.69097
-0.647803
-0.681529
-0.566876
-0.499452
-0.542251
-0.587835
-0.564187
-0.530772
-0.618984
-0.641576
-0.608911
-0.585623
-63.1399
-76.9668
-172.616
-131.721
-127.459
-68.9058
-73.0097
155.001
208.454
196.794
197.169
156.944
186.411
181.6
920.706
847.738
867.2
790.351
470.475
709.767
875.032
206.055
139.285
234.269
89.1342
93.7101
73.9468
201.646
1125.15
487.813
824.385
1206.3
757.411
1135.28
949.385
346.323
368.557
340.88
460.164
-34.9402
255.484
3.14819
3.01588
3.14704
3.11757
3.00124
3.19235
3.10107
3.09672
2.96093
3.10786
3.0733
2.95794
3.16018
3.07317
2.93772
3.09758
3.07881
3.06895
3.15231
3.05098
2.93607
3.1121
3.08293
2.95017
3.13211
3.30277
3.17217
3.0578
2.50857
2.70456
2.69372
2.8858
2.74293
2.78019
2.66419
2.67344
2.44122
2.61027
2.62851
2.45478
2.62229
2.59035
2.68107
2.45706
2.58015
2.64125
2.47364
2.6494
2.69912
2.61472
2.46543
2.60006
2.54516
2.72568
2.70856
2.75548
2.65727
2.67472
2.5248
2.83922
2.97165
3.01686
2.67121
2.77628
2.8833
2.93272
-8.28372
-7.61533
-8.36487
-5.93463
-5.58874
-5.92498
-6.5348
-9.67352
-10.8045
-9.50207
-9.61116
-10.8109
-9.69307
-8.38345
-8.15061
-9.09758
-8.8069
-9.66239
-9.67878
-4.75492
-5.98992
-6.01828
-5.51943
-4.21052
-4.48502
-4.79427
178.336
18.4593
53.4779
64.1948
7.102
-10.3211
0.741202
-6.4709
-6.16499
-7.25502
-8.04074
-4.77795
-8.71002
-10.8429
-4.71653
-4.55664
-2.57863
-3.97895
-2.93251
-2.69717
-3.36324
-3.16863
-3.4227
-3.18434
-2.86027
-2.89785
-2.80861
-2.88429
-2.80944
-2.83511
-2.77359
-2.91391
-2.93158
-2.81632
-2.83348
-2.81798
-2.91934
-2.80515
-2.83122
-2.83686
-2.88348
-2.96152
-2.9288
-3.17368
-2.98524
-3.07862
-2.91204
-2.80763
-2.68228
-2.978
-3.03487
-2.89416
-2.95265
-2.95388
-1.74539
-1.82536
-1.77067
-1.81864
-1.86734
-1.80301
-1.77305
-1.71282
-1.65425
-1.63345
-1.70777
-1.73949
-1.6782
-1.65289
-1.60347
-1.55984
-1.54954
-1.63161
-1.66466
-1.59805
-1.57904
-1.48554
-1.47251
-1.52522
-1.56025
-1.58805
-1.53864
-1.56321
-1.49399
-1.51173
-1.66098
-1.61459
-1.61166
-1.66555
-1.62437
-1.59812
-1.63415
-1.25958
-1.2461
-1.216
-1.30876
-1.27511
-1.27358
-1.24361
-1.19182
-1.16126
-1.16753
-1.22404
-1.26239
-1.26787
-1.29533
-1.25809
-1.31854
-1.27905
-1.11425
-1.14629
-1.13933
-1.14822
-1.10173
-1.20591
-1.03832
-1.05339
-0.997377
-1.0594
-1.08639
-1.05148
-1.03828
-1.0107
-1.03605
-1.06048
-0.917758
-0.929532
-0.890014
-0.963989
-0.986373
-0.950217
-0.934222
-0.959145
-0.961247
-0.986094
-0.789714
-0.777258
-0.808895
-0.840054
-0.844118
-0.821467
-0.828047
-7.208
-8.51887
-8.17891
-7.66565
-8.78788
-13.7504
-48.6303
3.78492
-39.5982
-18.5106
-40.3739
-68.7768
-6.46759
-6.26352
-5.97347
-5.63112
-5.38851
-5.87214
-5.5732
-8.80055
-38.0506
0.981001
-5.65337
-16.5265
-4.22986
-3.15121
-5.6364
-7.06657
-7.75446
-7.22909
-6.2292
34.2923
29.1424
54.343
16.1151
64.4646
19.7467
46.5991
-1.2242
1.75544
28.6029
-0.563823
-1.44332
-6.44183
43.1482
1195.82
503.913
670.157
5038.13
4076.84
4552.96
4363.1
3915.24
4877.75
4550.57
3311.49
1732.95
4234.03
2867
3966.85
4136.64
3548.88
3370.91
3038.53
2503.74
3031.25
1652.46
2611
3715.32
5478.5
4813.09
4.08559
4.18318
4.06825
4.02208
3.89552
3.95161
4.07407
4.07494
4.13418
4.27425
3.73847
3.64227
3.57845
3.63903
3.74242
3.54557
3.65391
3.55506
3.49061
3.64518
3.36043
3.39901
3.49273
3.45192
3.6167
3.57964
3.52068
3.61708
3.65041
3.6032
3.5713
1.86371
1.88143
1.02352
1.99261
3.05241
2.54162
2.08561
-1.85395
-4.76393
-3.11083
-2.79344
-2.91128
-2.09544
-2.26429
-2.64744
1.82906
-1.17089
8.95396
4.94126
7.18057
9.77315
-6.33812
-4.76705
-5.70972
-9.43206
-6.46958
-6.48816
-6.67021
-2.02685
-1.64259
-1.76286
-1.50991
-1.19516
-1.84379
-1.99866
-2.20026
-1.92944
-2.01079
-1.92554
-1.94273
-1.86555
-1.6365
-1.80337
-1.90018
-2.00561
-2.18551
-2.1584
-2.28384
-2.00656
-2.50026
-2.2958
-2.71019
-2.71681
-2.68002
-2.80131
-2.60975
-2.64552
-2.73183
-2.94951
-2.84817
-2.8572
-3.24705
-3.07732
-3.09351
-3.20063
-3.13707
-3.22792
-3.0381
-3.22178
-3.06818
-3.1809
-2.93585
-3.01868
-3.0221
-2.97478
-3.16728
-3.08034
-2.91987
-2.93395
-2.92387
-2.87958
-2.87804
-2.87956
-2.87556
-2.46975
-2.39124
-2.38377
-2.44036
-2.37053
-2.30435
-2.35722
-2.32511
-2.38463
-1.83192
-1.89
-1.86101
-1.87249
-1.91636
-1.87287
-1.83933
-1.73245
-1.7069
-1.75938
-1.71193
-1.74175
-1.74532
-1.78295
-1.58798
-1.63056
-1.64047
-1.67347
-1.6318
-1.70823
-1.6595
-1.54583
-1.50404
-1.50245
-1.45424
-1.50012
-1.47987
-1.45118
-1.57067
-1.50292
-1.52218
-1.38424
-1.33573
-1.38308
-1.37285
-1.39979
-1.43378
-1.2412
-1.26016
-1.22174
-1.16983
-1.15025
-1.129
-1.16614
-1.14591
-1.1175
-1.13813
-1.08671
-1.09385
-1.13042
-1.10888
-1.11222
-1.15964
-1.1587
-1.1399
-1.17226
-1.1147
-1.12664
-1.14927
-1.09279
-1.08486
-1.49812
-1.42889
-1.41001
-1.56047
-1.59041
-1.5095
-1.49559
-1.68878
-1.66414
-1.62452
-1.78173
-1.59652
-1.82941
-1.70055
-5.88584
-4.94311
-4.8259
-3.65777
-3.88227
-6.29593
-5.13032
-14.4738
-14.8485
-13.8556
-15.3724
-14.9234
-14.6206
-14.9727
-7.03964
-8.51202
-9.12048
-11.6902
-9.0874
-13.004
-13.4454
-13.0145
-11.3387
-12.0649
-12.1688
-11.2059
-8.19213
-8.1235
-6.9502
-7.98067
-9.13801
-7.66825
-8.22897
-7.63308
-8.03918
-6.03412
-7.32727
-7.95534
-7.40406
-6.05248
3747.65
3467.37
3472.08
830.937
992.151
1180.28
596.085
720.97
493.139
581.451
626.906
1448.69
1772.23
1176.28
1203.25
540.461
428.354
868.854
853.878
661.932
609.179
1108.2
803.188
727.177
473.136
496.028
5.23662
5.45718
5.35969
5.60124
5.75905
5.45641
5.57678
5.08327
5.16622
5.03825
4.94095
5.05799
4.8564
4.99096
4.55424
4.56737
4.43206
4.75099
4.62406
4.68014
4.55555
5.08958
5.13655
5.28464
4.3464
4.48121
4.5436
4.30845
4.43131
4.47486
4.53401
4.4593
4.4321
4.33467
4.47879
4.61995
4.441
4.4066
4.27535
4.52882
4.40238
4.66053
4.52593
-0.780825
-0.728645
-0.65993
-0.531528
-0.53925
-0.652015
-0.715891
-0.752945
-0.827555
-0.761606
-0.732445
-0.818054
-0.737777
-0.8335
-2.21878
-2.0598
-2.09153
-2.02671
-2.07438
-2.20511
-2.09072
-2.88601
-2.86813
-2.91532
-2.5688
-2.50172
-2.54991
-2.6015
-2.5263
-2.50257
-2.55713
-2.85697
-2.90748
-2.84983
-2.79851
-2.75531
-2.85218
-2.9055
-2.84424
-2.80299
-2.87674
-2.93473
-2.87856
-2.92907
-2.89862
-2.89719
-2.85824
-2.86734
-2.83996
-2.83912
-2.84853
-2.83158
-2.80664
-2.86514
-2.92557
-2.84208
-2.81587
-2.85705
-2.86632
-2.91092
-2.85648
-2.84944
-2.91061
-2.85397
-2.81876
-2.85904
-2.28517
-2.33484
-2.26539
-2.26996
-2.24027
-2.28621
-2.32815
-1.93651
-1.86822
-1.93317
-1.91118
-1.95547
-2.01119
-1.77541
-1.72718
-1.78425
-1.79907
-1.83924
-1.76011
-1.80524
-1.84716
-1.60975
-1.6254
-1.58567
-1.44968
-1.50003
-1.46994
-1.4302
-1.44785
-1.49089
-1.46649
-1.47754
-1.52329
-1.48266
-1.50134
-1.46859
-1.52978
-1.49035
-1.34161
-1.36318
-1.35596
-1.40631
-1.37902
-1.40241
-1.37662
-1.3261
-1.35588
-1.31921
-1.32759
-1.36717
-1.37663
-1.33916
-1.26624
-1.24487
-1.22875
-1.1903
-1.21132
-1.23923
-1.21893
-1.19566
-1.18274
-1.15213
-1.18368
-1.17295
-1.13819
-1.14612
-1.0315
-1.01811
-1.02587
-1.04555
-1.03954
-1.02569
-1.03275
-0.958621
-0.944595
-0.968316
-0.978766
-0.984629
-0.965456
-0.959528
-1.00735
-1.00331
-0.999822
-1.0031
-1.0031
-1.00234
-1.00494
-1.00293
-1.00322
-0.984536
-0.969154
-0.962934
-0.954216
-1.00001
-0.974848
-1.06238
-0.972129
-0.921238
-0.973368
-0.927671
-0.998146
-1.06658
-1.0942
-1.04036
-1.01352
-1.00738
-1.0452
-1.0627
-1.02221
-1.00973
-1.17851
-1.34671
-1.19988
-1.41789
-1.23506
-1.40453
-1.25447
-1.82152
-1.74929
-0.640822
-3.75896
-4.64412
-2.99486
-2.79152
-6.73955
-3.7007
-5.51519
-2.87981
-3.26865
-4.82218
-5.18178
-13.8906
-12.4139
-13.7919
-11.8592
-11.0262
-13.1868
-12.8223
-14.7192
-14.2501
-13.5422
-14.266
-13.3231
-16.4305
-16.0263
-7.29047
-12.0962
-10.5879
-15.9867
-10.4321
-12.6734
-10.5853
299.636
431.962
724.391
946.187
949.485
883.549
945.134
1091.78
1106.57
981.098
1042.7
1225.83
816.48
893.937
1011.08
854.715
1026.37
1047.7
1006.56
843.342
893.387
830.814
825.053
851.384
851.867
846.842
904.263
774.546
872.622
926.724
924.664
900.134
1040.4
894.461
757.936
660.442
771.611
739.98
796.484
584
670.023
520.356
549.962
578.861
337.803
407.452
415.273
394.639
297.868
90.2994
233.261
300.371
129.238
263.967
187.444
161.464
301.235
10.113
11.661
22.2427
13.9702
15.0858
30.5482
41.9559
30.3269
32.4534
6.96652
7.0322
6.73535
7.18322
7.07867
7.08234
6.94071
6.88104
6.8783
6.7393
6.7868
6.81262
6.68916
6.70595
6.75774
6.5325
6.71613
6.76307
6.81812
6.49681
6.61147
6.62998
6.66408
6.58869
6.57217
6.41338
6.53168
6.61822
6.05567
5.87039
6.08915
6.19308
6.05444
6.15305
6.26922
5.87613
6.04251
6.03692
6.05186
6.13767
5.94052
6.04959
5.99935
5.88045
6.05812
6.21519
6.11582
5.44364
5.59523
5.62715
5.57464
5.66983
5.66367
5.79143
5.3758
5.54226
5.56008
5.51658
5.37583
6.04565
6.06627
5.88832
6.14126
6.23977
6.14843
6.05069
6.83381
6.74207
6.87574
6.86428
6.83098
6.70588
6.78921
6.90952
6.85544
6.88785
6.88257
6.78043
6.91758
6.88086
7.26666
7.61212
7.71595
7.54032
7.38992
7.4358
7.24755
52.695
65.7761
94.2073
8.49521
10.9301
17.5801
8.7162
6.56886
9.84561
9.45683
8.34909
7.69546
8.19112
22.8744
40.1642
62.1333
59.5039
87.9803
68.3083
48.6415
6.86658
6.98159
6.99497
6.9959
6.95523
7.0251
7.04654
7.00404
7.00839
6.68135
7.14403
7.1035
7.12543
6.95064
6.46978
6.45035
6.57756
6.5643
6.55432
6.57541
6.60502
2.97961
2.91966
2.89433
2.90226
2.83997
2.88726
2.92256
2.64482
2.72934
2.73987
2.71404
2.76567
2.80495
2.74813
3.04444
2.99571
3.01001
2.96911
3.03088
3.0091
2.9732
3.00166
2.95185
2.93
2.94825
2.94947
2.89056
2.91375
2.91059
2.86836
8.29949
-12.102
-14.0269
5.79223
-6.28479
8.18861
3.13707
1.0385
-9.16995
8.35598
6.40826
-12.3692
5.93158
2.7397
1.84415
-16.7299
-2.52538
-0.789354
-13.6069
2.51079
0.838557
2.01056
-0.42839
1.51111
-0.627088
-1.17884
-1.72102
2.53016
-1.00716
-0.669844
-1.10245
-0.846354
-0.946244
-0.573958
-0.555838
-0.596755
-0.577056
-0.559608
-0.572665
-0.58151
-0.643614
-0.621203
-0.64339
-0.669491
-0.63208
-1.22157
-1.26164
-1.19674
-1.31765
-1.33811
-1.28515
-1.26645
-1.52723
-1.54647
-1.5131
-1.60039
-1.65753
-1.64259
-1.60238
-1.76854
-1.8918
-1.80395
-1.81415
-1.9001
-1.82887
-1.77856
-2.22442
-2.16351
-2.13307
-2.10758
-2.13902
-2.21501
-2.16855
-2.38163
-2.2997
-2.33647
-2.41141
-2.47356
-2.6027
-2.53185
-2.57307
-2.63128
-2.57749
-2.53991
-2.58316
-2.78919
-2.85215
-2.82975
-2.75253
-2.79834
-2.80286
-2.75412
-2.93446
-2.87352
-2.87806
-2.83154
-2.76414
-2.80767
-2.89927
-2.84258
-2.8729
-2.81993
-2.78512
-2.83644
-2.89726
-2.90061
-2.93241
-2.8686
-2.84543
-2.76164
-2.80735
-2.83906
-2.8591
-2.93279
-2.88037
-2.88585
-2.57142
-2.64352
-2.61555
-2.61216
-2.66458
-2.61741
-2.57112
-2.63571
-2.70107
-2.61784
-2.64473
-2.58892
-2.61107
-2.58043
-2.65556
-2.76005
-2.68361
-2.4558
-2.37359
-2.44155
-2.42482
-2.47523
-2.55795
-2.34246
-2.29016
-2.27495
-2.21015
-2.24415
-2.34657
-2.30287
-2.24983
-2.28568
-2.28612
-2.22266
-2.2943
-2.29453
-2.35029
-2.26473
-2.31548
-1.61136
-1.62834
-1.6663
-1.72133
-1.69105
-1.64129
-1.66203
-1.70668
-1.71922
-1.75033
-1.77115
-1.71599
-1.78275
-1.73246
-1.53493
-1.50728
-1.47297
-1.4506
-1.46257
-1.49949
-1.52347
-1.4861
-1.53055
-1.52527
-1.57723
-1.51956
-1.40163
-1.38502
-1.39918
-1.45878
-1.43623
-1.42793
-1.44845
-1.34828
-1.3844
-1.34078
-1.33314
-1.38341
-1.40043
-1.354
-1.28846
-1.27514
-1.24909
-1.21496
-1.22872
-1.24647
-1.26142
-1.09398
-1.13796
-1.13896
-1.04189
-1.05391
-1.18558
-1.19185
-1.1587
-1.18486
-1.22145
-1.21539
-1.1781
-1.09602
-1.08311
-1.08287
-1.14076
-1.13309
-1.11987
-1.12659
-0.921832
-0.965639
-0.97714
-0.906094
-0.898734
-0.947676
-0.953186
-0.810162
-0.827095
-0.782081
-0.764221
-0.746946
-0.769386
-0.75268
-0.80102
-0.788102
-0.929636
-0.896432
-0.888828
-0.882615
-0.855667
-0.883474
-0.912287
-0.636413
-0.658424
-0.704673
-0.568371
-0.624737
-0.807376
-0.793139
-0.839325
-0.745872
-0.765513
-0.797569
-0.775121
-0.445006
-0.521178
-0.435524
-0.444753
-0.507703
-0.458856
-0.385345
-0.662191
-0.830227
-1.00865
-0.773015
-1.13653
-0.807732
-1.20466
-0.290668
0.0841224
0.344293
0.302888
0.820241
0.385474
-0.301365
-10.3364
-10.8522
-7.82
-5.97022
-6.26541
-6.94658
-7.09618
-2.72028
-3.43852
-4.21743
-4.76756
-3.01136
-6.0771
-4.23603
-3.88371
-9.07287
-12.5212
-2.5276
0.792954
-11.825
-10.6516
-11.5485
-11.6407
-11.4951
-11.7601
-11.36
43.1252
16.4403
14.6287
70.5221
-0.621481
2.65236
12.7879
952.914
858.678
875.666
792.223
727.446
744.118
697.516
698.737
691.642
689.238
713.559
817.757
697.486
391.969
406.602
361.245
335.356
325.8
364.967
371.154
474.923
548.497
489.94
499.088
636.312
508.412
6.76507
6.80322
6.74986
6.69738
6.76227
6.65566
6.73652
6.49813
6.48075
6.35782
6.60919
6.53678
6.59296
6.48229
6.767
6.79679