/*--------------------------------*- C++ -*----------------------------------*\
| =========                 |                                                 |
| \\      /  F ield         | OpenFOAM: The Open Source CFD Toolbox           |
|  \\    /   O peration     | Version:  v2012                                 |
|   \\  /    A nd           | Website:  www.openfoam.com                      |
|    \\/     M anipulation  |                                                 |
\*---------------------------------------------------------------------------*/
FoamFile
{
    version     2.0;
    format      ascii;
    class       volScalarField;
    location    "0.15";
    object      p_rgh;
}
// * * * * * * * * * * * * * * * * * * * * * * * * * * * * * * * * * * * * * //

dimensions      [1 -1 -2 0 0 0 0];


internalField   nonuniform List<scalar> 
6576
(
2600.19
2539.2
2555.39
2573.34
2614.13
2635.65
2568.45
2568.72
2620.11
2593.2
2697.7
2659.35
2624.56
2652.21
2552.84
2575.31
2481.82
2557.4
2560.02
2683.62
2514.41
2669.74
2678.14
2551.55
2634.74
2711.24
2848.33
2621.37
2532.68
2534.29
2591.93
2480.32
2586.54
2647.5
2630.57
2688.15
2624.18
2691.53
2585.76
2640.23
2552.53
2521.42
2597.2
201.214
146.895
205.972
132.989
203.115
209.865
205.352
207.338
209.179
0.0191165
0.0136581
0.00439455
0.0386279
0.0275333
0.0140461
0.0267886
0.0206413
0.0394445
0.0481763
0.0603412
0.0448698
0.020336
0.0456384
0.195496
0.181474
0.154274
0.156087
0.175739
0.112718
0.145581
4.08967
4.01524
4.28363
4.05665
4.15279
4.20183
4.18962
3.93259
3.88084
3.90095
3.97915
4.11024
3.95255
3.93382
9.07044
8.48086
9.03939
9.22345
11.7384
8.8461
9.61158
257.625
261.511
275.931
228.443
255.151
272.841
250.415
261.559
254.955
262.343
261.228
271.335
264.355
278.645
226.834
222.421
221.876
223.107
220.534
219.582
-0.0538826
-0.0451644
-0.143778
-0.0958215
-0.330445
-0.219691
-0.190234
1650.41
2490.47
2360.63
2542.75
2643.38
2704.98
2794.15
0.492476
-0.288328
-0.0201314
-0.734301
-0.489917
-0.88457
-0.849517
3.48141
3.8565
3.3282
3.99485
4.14012
3.96696
3.67975
-0.130282
0.623821
1.90014
-0.0169231
1.2683
1.58466
0.118778
-4.46143
-3.80023
-5.00013
-2.61771
-2.31203
-2.74916
-2.8986
-7.26585
-9.99548
-8.4
-6.8861
-9.71852
-8.12512
-6.27551
-8.56953
-6.209
-10.6262
-10.9128
-11.0241
-10.531
-9.68469
-9.77771
-10.2736
-12.0636
-13.2177
-11.9439
-11.7656
-12.6181
-11.5574
-11.8929
-11.8964
-11.2035
-6.92744
-6.2385
-6.36341
-7.05378
-5.92277
-5.572
-7.48866
-7.42981
-5.70347
-4.0671
-4.33702
-4.13779
-4.66924
-5.74144
-4.17132
-4.69324
-3.93727
-3.4919
-3.59234
-3.60516
-4.5741
-3.95444
-3.46203
-1.86048
-1.73501
-2.16141
-3.15405
-2.07084
-2.24176
-2.46417
-0.614017
-1.06027
-1.17655
-0.238353
-0.67484
-1.02344
-1.40701
-1.50028
-1.27348
-1.39001
-1.88827
-1.70836
-1.72159
-1.99805
-2.71323
-2.18418
-3.48683
-2.74974
-3.27603
-4.24392
-3.38631
-5.55336
-7.29953
-6.27114
-5.3181
-5.00996
-7.10993
-6.25901
-10.5723
-10.4906
-11.9075
-9.52745
-8.86334
-10.6496
-9.36773
-11.1224
-11.206
-10.3664
-11.0549
-12.2119
-11.0617
-12.1112
-11.5509
-10.545
-6.76576
-5.66194
-4.881
-8.68261
-7.87301
-7.02137
-6.58436
2.73462
2.60359
2.8434
2.95998
2.8869
2.77818
2.90535
215.068
216.02
214.734
214.451
214.978
211.255
212.801
213.33
213.753
209.772
215.607
212.931
207.063
207.721
201.813
127.202
1.89286
1.97018
1.93803
1.83961
1.92912
2.27351
2.44399
2.15136
2.11703
205.913
210.412
205.002
2.23802
0.168526
2.07375
-0.679114
0.33437
-1.46433
-2.35086
-0.194999
-0.329063
-0.215039
-0.233384
-0.133503
-0.117923
-0.204526
280.515
17.7064
1.53121
127.871
6.67347
3.32023
2.93113
1.71934
2.47692
-0.672167
-0.874533
-0.932808
-0.28545
-0.528551
-0.576778
-0.695581
3.68275
3.55981
3.96406
3.0182
3.55609
4.53695
4.45729
8.78747
3.17276
4.6507
2.10824
2.41211
1.51007
1.76973
2.96826
3.14434
2.05259
24.4294
4.5147
2.47463
2.93116
1.83798
2.01837
2.27636
1.96349
221.994
220.256
222.693
222.016
225.918
223.482
228.948
214.252
214.892
215.052
217.199
216.095
214.305
216.295
214.645
213.619
201.534
164.933
211.918
220.064
219.276
204.868
209.437
6.14312
9.97839
13.7532
13.6168
44.6926
16.2301
12.23
-5.72453
-7.69791
-4.09301
-11.396
-9.3376
-10.1323
-8.34794
-6.65914
-7.57885
2.5622
3.26512
0.558544
-6.26083
-10.2084
-2.25964
-3.90143
0.52138
-4.88789
6.8192
-4.98098
-7.27846
-2.87725
-1.18467
5.48187
1.4908
695.241
724.972
1433.17
928.75
688.698
31.7515
664.147
1527.08
1535.44
1557.57
1523.78
1472.04
1517.85
1555.25
-3.59396
-4.38334
-3.40897
-3.28129
-2.73869
-3.50363
-2.74342
-1.7476
-2.22762
-1.54035
-1.69836
-1.40878
-1.15521
-1.28119
-0.614751
-1.04714
-0.679714
-0.251749
-0.473203
-0.706855
-0.472491
0.400519
0.422883
0.543264
0.464404
0.502467
0.705866
0.746972
0.63703
0.635744
0.367139
0.367223
0.433654
0.465952
0.490723
0.424699
0.431144
0.341668
0.557939
0.38959
0.381027
0.33867
0.447427
0.374762
0.343903
0.342699
0.327434
0.399265
0.446348
0.382174
0.387319
0.0587251
0.0946766
0.212796
0.0852354
0.0520154
0.10586
0.258657
0.202342
0.15549
0.150823
0.141587
0.157223
0.250739
0.193522
0.0629719
0.171126
0.109352
0.168561
0.174339
0.431903
-0.00423744
-0.0165172
-0.0164579
0.00732405
0.00232243
-0.0102255
0.00423572
-0.00314782
-0.013836
0.00435495
0.0412223
0.005798
-0.00125798
0.00185589
-0.0188707
0.00595965
-0.0164036
-0.0167497
0.0231371
-0.00783124
0.0064691
-0.0213692
0.00737682
-0.00475773
0.00822398
-0.000779401
0.0102491
0.0108172
0.00449506
-0.0107672
-0.0046881
0.0048959
0.0266496
-0.00942331
-0.0040021
0.000742529
0.000941634
0.00183183
-0.0232308
-0.00429569
0.00532634
-0.0251501
-0.668329
-0.543763
-0.636562
-0.841363
-0.488725
-0.783356
-0.520066
-0.542963
-0.708389
-1.74148
-2.01122
-1.73469
-1.94763
-1.14997
-2.2479
-1.72864
-2.45594
-1.84517
-2.12833
-2.60069
-2.5625
-1.83431
-2.07928
-3.80931
-3.76855
-3.15898
-4.59589
-3.37632
-2.99852
-3.89794
-11.2909
-12.0267
-12.3709
-10.5766
-10.1583
-12.9895
-13.0438
-12.7496
-12.4887
-12.0067
-12.5486
-12.5626
-12.0043
-10.6345
-10.3715
-10.8221
-9.6197
-10.6129
-12.0888
-5.35432
-4.78506
-3.93048
-6.25446
-3.57362
-5.41041
-7.50897
1.24469
1.21314
1.23379
1.20838
1.19108
1.21972
1.23638
0.982936
1.04705
1.0636
0.916748
0.908407
0.955561
0.943396
1.01444
1.0302
0.935557
0.812909
0.858298
0.753198
0.852465
0.748099
0.843582
-0.0203134
0.0554494
0.0072647
-0.00981218
0.0625594
0.0734496
0.00368229
0.263552
0.242612
0.189989
0.255624
0.22483
0.211717
0.167794
0.401303
0.427564
0.377398
0.396452
0.357495
0.390528
0.422955
1.00995
0.913373
0.998736
1.05163
0.970467
1.08299
1.00837
1.32067
1.35962
1.32632
1.35714
1.20208
1.44856
1.3351
1.43225
1.31592
1.26246
1.37352
1.36685
1.41632
1.39658
1.3833
1.31833
1.34342
1.26216
1.67047
1.6651
1.5919
1.63156
1.53841
1.64235
1.66224
1.51949
1.57388
1.51918
1.59871
1.65767
1.59221
1.58771
1.52002
1.4987
1.81943
2.02864
1.78841
1.7842
1.68695
1.74209
2.14461
2.48639
2.78649
1.98053
1.90823
1.81996
1.64266
1.74663
1.77637
2.07153
2.30182
2.02896
2.41355
3.03962
2.2727
2.22746
2.16895
0.941563
2.21936
-1.76217
3.97122
3.94309
3.85498
3.43381
1.98607
4.12338
3.34632
2.2456
36.8457
2.77213
2.92841
1.92898
207.13
205.131
211.494
185.35
182.718
203.474
195.7
222.36
220.015
218.795
274.287
275.646
282.921
282.318
294.483
284.33
291.821
236.906
241.976
241.821
242.086
249.5
252.252
237.87
255.149
245.308
233.061
241.692
237.303
350.287
335.811
355.375
374.385
353.848
347.387
376.346
381.684
357.354
272.25
281.106
282.716
292.131
281.442
302.958
302.549
263.677
279.741
271.804
480.294
448.028
485.119
535.288
485.167
505.304
584.74
321.126
323.232
348.178
392.476
393.971
333.894
335.912
259.46
263.423
177.982
304.151
268.599
254.846
286.548
306.191
290.348
365.818
405.837
422.335
339.041
355.26
482.437
239.405
272.681
382.561
231.116
436.317
121.307
303.923
86.8501
260.051
157.787
63.3016
130.047
251.757
226.999
374.573
287.835
443.614
169.335
336.375
414.889
100.463
99.2916
255.315
133.399
506.2
99.0061
547.852
542.587
29.6926
-8.43932
-7.65239
-6.69249
24.6414
-2.87783
1.58649
-4.56554
-7.12516
-7.46614
-10.3533
-10.8545
-10.0419
-10.993
-11.4797
-11.4547
-11.7404
-1.3623
-1.67224
-0.0214351
-3.65092
-1.83311
-0.682404
-2.52919
-2.77149
-1.86853
-4.28449
-4.06012
-2.86324
-4.85297
-6.07236
-9.51489
-10.4135
-7.56413
-5.12828
-5.47947
0.522811
0.128004
0.0282677
0.756614
0.968284
0.557439
0.46357
0.827624
1.11586
0.970318
1.21318
1.21481
0.951432
0.897847
1.81218
1.90412
1.69998
1.7818
1.70832
1.52863
1.64378
1.29584
1.5984
1.34785
1.28654
1.16174
1.34763
1.25714
1.32635
1.23303
1.10273
1.47311
1.35043
1.32607
1.24579
0.787192
0.983162
0.98267
0.913542
1.16392
1.01388
0.936285
0.911574
1.14686
0.918894
0.897114
0.928721
1.01596
0.522512
0.477039
0.552429
0.535328
0.659148
0.48418
0.745681
0.579181
0.421671
0.418212
0.488298
0.212868
0.13945
0.245094
0.13963
0.106172
0.180189
0.190808
0.0316786
0.00150015
0.0208758
0.0436606
0.064564
0.0194037
0.0255171
-0.0852108
-0.0479188
-0.0312005
-0.102487
-0.0478733
-0.0557292
-0.0623394
-0.0115544
-0.00938606
-0.00612499
-0.145816
-0.15132
-0.165135
-0.0813417
-0.156283
-0.173754
-0.130388
-0.048224
-0.0228775
-0.00126391
-0.0404325
-0.0831844
-0.0349634
-0.0711411
-0.00890736
-0.0865216
-0.0669649
-0.0773526
-0.0840924
-0.047153
-0.0101101
-0.00993574
-0.119955
-0.0937127
-0.0677328
-0.118131
-0.0235836
-0.0844301
-0.0630061
-0.0570921
-0.0802753
-0.0933406
-0.0811163
-0.507108
-0.554442
-0.482655
-0.448772
-0.298215
-0.436754
-0.490984
-0.329907
-0.220321
-3.36538
-2.97469
-3.72501
-2.18041
-2.64723
-3.16604
-2.73026
-5.91501
-5.4431
-5.41871
-4.26745
-4.41452
-5.1202
-4.82074
-6.61243
-7.38131
-8.15281
-5.66593
-5.0325
-4.58757
-4.8934
-4.61122
-4.57454
-4.66482
-5.01987
-5.13546
-7.54459
-6.61619
-5.55369
-7.0135
-7.45074
-6.87199
-7.46192
-6.94939
-6.44132
1.43951
1.39257
1.40772
1.43288
1.39338
1.42541
1.37971
1.38664
1.42558
0.834357
0.858748
0.859509
0.793642
0.793478
0.820651
0.815308
0.712711
0.767356
0.721735
0.713812
0.665007
0.68538
0.730775
0.526854
0.48095
0.539092
0.544288
0.499231
0.593789
0.540048
0.528861
0.577193
0.402215
0.40949
0.364275
0.453815
0.417846
0.392017
0.425248
0.830325
0.803759
0.801732
0.774218
0.79846
0.775625
0.792931
0.930193
0.940381
0.99959
0.927931
0.921902
0.882477
0.927715
0.905278
0.956751
0.909543
0.925596
0.985534
0.934177
0.935558
0.90464
0.877035
1.06085
1.1421
1.12442
1.13194
1.22082
1.15855
1.21599
1.02508
1.15884
1.09991
1.40402
1.47319
1.43039
1.57827
1.69179
1.66507
4.08242
4.71999
4.87537
4.59635
4.82238
6.02562
4.01266
321.333
351.669
335.644
463.24
466.92
424.053
554.923
467.061
445.947
495.518
487.072
427.771
464.516
644.677
671.319
684.857
682.829
762.324
722.066
831.531
632.923
695.273
651.563
1028.31
1081.49
1020.99
1207.07
1023.29
1022.36
1193.34
1110.48
857.64
891.911
867.755
851.75
925.932
594.257
740.934
707.194
704.66
759.688
750.632
667.74
852.904
760.213
909.354
947.081
955.146
909.184
916.233
653.735
509.814
644.023
674.852
729.915
659.624
743.03
443.966
320.276
398.647
146.002
335.781
140.968
295.155
29.941
-5.37769
57.0761
42.6567
600.375
-5.52275
222.666
762.131
755.005
835.912
764.486
840.977
753.94
802.566
4.83173
129.305
28.9835
104.058
189.534
54.5246
512.384
3.99713
4.18401
4.02112
4.08506
3.96331
3.98398
3.84595
4.06935
3.98088
4.12424
4.13089
4.14554
4.133
4.07652
3.49695
3.59445
3.84678
2.98377
3.61262
3.22673
2.95526
2.5451
2.48116
2.05118
2.68224
2.92866
2.73245
2.49572
2.64005
2.30933
2.62925
2.70561
2.72204
2.35115
2.5209
2.52846
2.76177
2.75517
2.78113
2.82292
2.69196
2.55645
2.61333
2.81569
2.81755
2.8133
2.87389
2.63258
2.75649
2.05142
2.30029
2.26498
2.13199
2.33792
2.38107
2.47862
2.43981
2.29563
2.84844
3.12706
2.93736
2.86866
2.68402
2.95135
2.86217
2.89359
2.83708
2.66989
2.94144
3.05529
2.94773
2.84422
2.42654
2.63103
2.44273
2.40658
2.20944
2.06127
2.31232
1.63315
1.82467
1.74961
2.01436
1.83342
1.92309
1.7842
2.38962
2.6039
2.4594
1.69571
1.8517
1.78207
1.20945
1.25599
1.24731
0.63436
0.684983
0.764581
0.754583
0.728718
0.906926
0.831344
0.477916
0.636208
0.529736
0.41121
0.622994
0.268383
0.253428
0.335214
0.399031
0.476149
0.353681
0.333598
0.18193
0.385859
0.356147
0.0907685
-0.0408749
0.2249
0.25479
-0.0109278
-0.120086
0.0246819
-0.251694
-0.104159
-0.00986464
-0.0909709
-0.616987
-0.501117
-0.397005
-0.876941
-0.754325
-0.188648
-0.323974
-0.232172
-0.165615
-0.22119
-0.225565
-0.244213
-1.14326
-1.01112
-1.18056
-1.00762
-1.32929
-1.03618
-1.04699
-0.344965
-0.249442
-0.310232
-0.337927
-0.285398
-0.401859
-0.37464
-0.0963806
-0.101253
-0.0701421
-0.0788189
0.00105207
-0.0576043
-0.205266
-0.107999
-0.135332
-0.16889
-0.0920276
-0.0118664
-0.172354
-0.0972075
-0.131728
-0.165813
-0.0884535
-0.121977
-0.267663
-0.189111
-0.00259176
-0.0528453
-0.0228605
-0.0968272
-0.11313
-0.109954
-0.102549
-0.0897405
-0.104787
-0.118959
-0.0413125
-0.0368418
-0.0194285
-0.0720367
-0.0774135
-0.0681029
-0.0621523
-0.102941
-0.218098
-0.104995
-0.21856
-0.124002
-0.0823484
-0.107941
-0.0375688
-0.0474253
-0.0329965
0.00932034
-0.0366364
-0.0514811
0.034096
-0.277681
-0.277375
-0.472729
-0.331023
-0.510347
-0.197929
-0.340549
1.0569
1.16774
1.17007
1.04782
1.06359
1.08558
1.07006
1.17089
1.22791
1.30017
1.22047
1.23678
1.20588
1.29088
0.906952
0.826636
0.911229
0.917667
0.829979
0.923334
0.869292
1.35086
1.29567
1.35309
1.23359
1.25808
1.24289
1.26034
1.33534
1.31663
1.35247
1.34894
1.33405
1.36782
1.38226
1.37957
1.3608
1.22124
1.19387
1.25701
1.15408
1.18121
1.18953
1.21734
0.981911
0.94588
0.955461
0.923148
0.94752
0.94475
0.971387
0.962458
0.993288
0.859896
0.872267
0.899486
0.82893
0.81577
0.844818
0.827891
0.857591
0.880505
0.803093
0.807417
0.844958
0.775172
0.804338
0.781028
0.815786
0.58561
0.582231
0.574422
0.590501
0.601684
0.592511
0.583289
0.587311
0.582934
0.593085
0.575369
0.580932
0.584422
0.580044
0.559869
0.557192
0.566811
0.569927
0.566618
0.564972
0.56943
0.57944
0.574632
0.586592
0.581351
0.584627
0.586467
0.586183
0.598671
0.589501
0.589887
0.591902
0.60971
0.603607
0.595109
0.714963
0.703278
0.699947
0.725442
0.713835
0.70214
0.700734
0.680744
0.64422
0.653227
0.620949
0.640689
0.64966
0.628185
0.744532
0.711135
0.72502
0.68011
0.739507
0.707714
0.871006
0.809597
0.798674
0.807896
0.844421
0.782769
0.771376
0.758935
0.798563
0.786995
1.00513
0.966429
0.954271
100.643
39.7402
258.167
14.5284
20.4934
50.4504
61.9747
1029.04
976.482
1012.7
1156.34
945.798
955.384
1005.89
1138.05
1062.82
1151.66
1121.99
1072.35
1071.93
1249.53
1133.05
1135.79
1347.25
1237.99
1165.27
1154.3
48.6063
32.6232
34.8869
16.5171
18.8493
13.7429
10.0874
55.1595
142.66
85.7739
57.5737
69.6128
206.641
104.381
2.49932
2.26015
2.76323
2.81833
3.15259
2.63489
2.64488
221.687
480.057
140.093
535.46
540.025
115.262
132.397
321.727
391.695
16.2596
1.12198
-2.2571
663.864
321.737
748.406
297.201
2.44152
2.31506
3.14202
3.21599
2.52247
2.97888
3.20916
2.95922
2.73663
3.33304
3.31221
3.19034
3.22187
3.27493
3.08968
2.97429
3.23083
3.03043
3.60214
3.64874
3.50755
3.57215
3.63906
3.48506
3.58963
3.94254
3.73942
3.9083
3.72845
3.86881
3.88221
3.95574
3.87776
3.68568
3.85666
3.68879
3.81243
3.83235
3.90336
3.66593
3.89515
3.83192
3.92123
3.97541
3.88163
3.74489
3.24904
3.40552
3.3971
3.55526
3.40094
3.47065
3.5699
3.88648
4.03622
3.89181
3.90856
3.99072
3.23989
3.43063
3.42119
3.36277
3.20526
4.04107
3.90311
4.03396
3.98782
3.86966
3.23457
3.36916
3.40512
3.30014
3.16573
2.84769
2.68143
2.83857
2.31082
2.02955
2.23202
2.52013
2.43817
3.01483
2.93084
2.82931
2.74621
2.89813
2.86437
2.95739
1.47871
1.62337
1.58295
1.80162
1.7275
1.73355
1.65178
1.50443
1.75244
1.84445
1.72853
1.6193
1.94496
1.95446
0.46351
0.481702
0.597524
0.819594
0.839787
0.694594
0.722106
-2.17263
-1.97655
-2.74037
-2.36795
-2.3075
-2.53596
-2.8946
-1.75356
-1.73723
-2.1127
-1.775
-1.47062
-1.82899
-2.16941
-0.0822608
-0.061114
-0.0912217
-0.0483952
-0.0358638
-0.0499711
-0.09526
-0.0393621
-0.0645394
-0.140623
-0.0585149
-0.00621633
-0.0738944
0.0378225
-0.0344305
-0.00403999
-0.0407445
-0.0393937
-0.0486858
-0.0374223
0.025617
-0.0377386
-0.0595722
-0.0446849
-0.163377
0.00428512
-0.0192447
-0.090168
0.0658135
-0.427487
-0.0492252
-0.139817
-1.96302
-2.54845
-2.20682
-2.09024
-0.355175
-2.86178
-2.66706
611.133
1877.02
2735.04
2727.22
2710.06
2690.15
2806.14
1.39936
0.84398
0.724481
1.47385
1.12829
-0.478766
201.171
8.69026
69.4437
-3.99091
-1.32736
-3.62982
692.85
4.72431
-1.02194
-1.05772
-0.466621
-0.184789
0.006263
0.371363
-0.274688
0.395842
-0.0131215
-0.0646369
-1.62272
0.269086
0.129378
0.168267
0.986314
0.885903
0.915541
0.9049
0.823111
0.843569
0.853891
0.469713
0.50696
0.541245
0.616069
0.570534
0.334196
0.449548
0.643201
0.599874
1.07564
1.03749
1.0079
1.0204
0.9343
1.00269
1.0581
1.01296
0.982566
0.950215
0.951834
0.944569
0.907019
0.914576
0.850613
0.845477
0.891275
0.873081
0.873622
0.916485
0.906728
0.771083
0.809208
0.783424
0.752277
0.764322
0.785064
0.767021
0.590305
0.591679
0.592544
0.591719
0.589714
0.589184
0.591751
0.577689
0.580461
0.57973
0.577005
0.573318
0.588624
0.584463
0.583907
0.588615
0.585461
0.585002
0.591886
0.584985
0.589084
0.580912
0.586415
0.593301
0.584341
0.604655
0.583064
0.586291
0.581534
0.581463
0.585708
0.590953
0.590379
0.59553
0.616162
0.600936
0.595223
0.598607
0.583528
0.592158
0.629029
0.610738
0.60406
0.60693
0.611727
0.594746
0.602126
0.592826
0.588366
0.584901
0.583559
0.59932
0.58959
0.58018
0.620213
0.623966
0.616516
0.639202
0.667212
0.650689
0.620871
0.631381
0.638519
0.60286
0.606544
0.612933
0.609945
233.072
341.462
150.902
114.502
77.6703
184.092
84.9904
528.5
549.135
557.177
518.245
478.438
485.928
517.782
1064.46
1005.19
985.367
961.056
667.296
880.374
1019.49
243.508
239.444
317.48
143.755
118.609
119.357
300.643
1141.72
504.384
830.49
1249.03
800.147
1167.55
981.605
380.108
377.233
375.439
494.898
12.7775
316.215
4.68973
4.5837
4.67543
4.65911
4.56905
4.70761
4.64261
4.63826
4.52874
4.63626
4.61484
4.52575
4.67544
4.61471
4.50554
4.62598
4.62035
4.61049
4.66757
4.59252
4.50388
4.63613
4.62009
4.5136
4.64299
4.78738
4.68306
4.59496
4.16485
4.33457
4.32109
4.47376
4.35717
4.38391
4.29419
4.3052
4.11238
4.25516
4.26202
4.1277
4.26893
4.23699
4.30144
4.12998
4.22679
4.27476
4.14656
4.29604
4.31948
4.26136
4.13835
4.2467
4.21808
4.37233
4.34207
4.37585
4.30392
4.32137
4.19772
4.46835
4.58763
4.60657
4.33975
4.41855
4.52557
4.5487
-6.22071
-5.56738
-6.33003
-3.89999
-3.57975
-3.91483
-4.4981
-7.56009
-8.66311
-7.34917
-7.49608
-8.66644
-7.52702
-6.24329
-5.87622
-6.8362
-6.50332
-7.44006
-7.42746
-2.4536
-3.69966
-3.73887
-3.18006
-1.96993
-2.21069
-2.54668
2317.1
2155.49
2509.69
2379.35
2294.16
1097.49
2429.5
-3.71232
-3.4188
-4.47862
-5.35672
-2.03328
-5.99554
-8.10508
-2.03906
-1.87637
0.0642673
-1.25705
-0.239167
-0.0300723
-0.646115
-0.288788
-0.516553
-0.291322
0.0415236
0.0302496
0.0853033
0.0438054
0.0923466
0.0719561
0.107167
-0.00247937
0.00616207
0.0951093
0.0744724
0.0768193
0.014895
0.0765026
0.0767278
0.0710881
0.0428884
-0.0246555
-0.00245165
-0.263036
-0.0746555
-0.17681
-0.0117528
-0.0246248
0.085976
-0.150777
-0.235158
-0.0844038
-0.117653
-0.0924597
0.680795
0.640237
0.681791
0.633818
0.611399
0.649446
0.653135
0.647672
0.693103
0.68763
0.639581
0.634146
0.669152
0.668187
0.656298
0.68679
0.670814
0.641297
0.63452
0.674854
0.667583
0.655979
0.642739
0.629437
0.607546
0.606024
0.616022
0.617728
0.634388
0.642934
0.537475
0.557587
0.547386
0.532912
0.54781
0.547783
0.538034
0.579762
0.580102
0.583927
0.569993
0.577373
0.578904
0.58259
0.581827
0.572974
0.579847
0.58815
0.57608
0.573219
0.569414
0.580376
0.561971
0.575179
0.580569
0.587941
0.581767
0.586014
0.593087
0.567744
0.575039
0.573107
0.589709
0.582864
0.582154
0.577651
0.577707
0.57901
0.579935
0.581787
0.590499
0.591863
0.591966
0.577551
0.581443
0.578184
0.581042
0.582394
0.580293
0.581722
0.510958
0.497138
0.504915
0.486895
0.509107
0.479205
0.498901
-5.66077
-6.75001
-6.83579
-6.98817
17.9166
485.445
473.46
331.646
282.158
269.556
282.205
405.722
-5.51879
-5.18823
-4.46443
-4.37052
-4.58219
-5.29689
-4.97684
81.3346
444.28
528.782
5.17467
34.3443
0.363306
0.632239
-4.67664
-6.18735
-2.73101
26.7626
4.21021
213.084
55.3958
254.77
144.007
135.262
46.9712
86.7607
72.2162
2.50574
113.106
20.6651
-0.642384
10.2308
112.812
1245.54
540.384
727.79
5052.77
4117.77
4601.74
4424.56
3950.98
4892.48
4590.31
3359.45
1767.84
4242.75
2928.04
4001.73
4171.44
3565.44
3387.44
3044.63
2546.41
3073.93
1684.67
2643.25
3744.92
5483.68
4842.07
5.39852
5.46984
5.38381
5.35078
5.25049
5.29082
5.387
5.38612
5.43223
5.54602
5.11359
5.04367
4.99299
5.04043
5.11754
4.97325
5.05531
4.77252
4.69493
4.83636
4.55161
4.56392
4.65764
4.64311
4.92613
4.9022
4.81697
4.8871
4.9467
4.89949
4.84132
3.92847
3.93227
3.0605
3.97922
5.01147
4.50711
4.07191
0.204559
-2.70177
-1.00133
-0.686065
-0.859607
0.209761
-0.0043587
-0.15785
3.94562
1.40456
11.0218
6.98101
10.0878
16.632
-3.87281
-1.93947
-3.18323
-6.96095
-2.88097
-3.91234
-4.15275
0.561353
0.932471
0.852585
1.02607
1.36718
0.744408
0.563269
0.388863
0.686059
0.565205
0.663603
0.672702
0.697307
0.900079
0.75957
0.689001
0.67889
0.538404
0.539253
0.413887
0.66481
0.224003
0.401913
0.115065
0.0707776
0.119218
-0.0276634
0.137755
0.127214
0.0676585
-0.054686
0.0326357
0.0489965
-0.340027
-0.0899547
-0.170121
-0.224611
-0.212719
-0.233929
-0.068033
-0.302698
-0.0726015
-0.243549
-0.0113056
-0.105232
-0.0121889
-0.00832196
-0.16872
-0.0817795
0.0133164
0.00737916
0.00931592
0.0372382
0.0371551
0.026564
0.0368218
0.24988
0.302108
0.296444
0.266125
0.309675
0.336442
0.309852
0.328823
0.29558
0.489169
0.4705
0.48635
0.47487
0.457279
0.474494
0.481759
0.509807
0.509076
0.496012
0.504052
0.500502
0.496933
0.485584
0.539536
0.523228
0.515948
0.5066
0.521985
0.487602
0.51006
0.530875
0.546389
0.545355
0.569917
0.550312
0.554791
0.557212
0.520925
0.549264
0.54314
0.560213
0.569305
0.561369
0.558463
0.5578
0.550086
0.582375
0.576549
0.575561
0.608199
0.601503
0.609613
0.611885
0.605838
0.607978
0.613616
0.266516
0.233098
0.183388
0.191791
0.214727
0.114751
0.141968
0.0293935
0.0233045
0.0940039
0.0689228
0.0725691
0.155332
0.136984
-0.293777
-0.211419
-0.218822
-0.395286
-0.39917
-0.318291
-0.330652
-0.624407
-0.560121
-0.533751
-0.664925
-0.453073
-0.738894
-0.583756
-3.9156
-0.39224
-3.86623
0.966316
0.865269
-1.66811
-1.57766
-13.4472
-13.8354
-12.7476
-14.1078
-13.9251
-13.1896
-13.7173
-5.79426
-7.57212
-7.8254
-10.6649
-8.03136
-12.0758
-11.358
-11.4155
-10.4815
-11.186
-10.6505
-10.161
-7.52548
-7.4435
-6.22388
-7.31164
-8.44198
-7.01426
-7.55167
-6.95348
-7.37273
-5.394
-6.66083
-7.26259
-6.72782
-5.41239
3797.32
3528.91
3506.94
845.812
1033.27
1229.28
631.937
783.096
508.015
622.577
674.996
1483.65
1780.97
1237.48
1237.71
575.298
444.993
885.492
860.008
704.841
652.089
1140.6
835.589
758.676
478.386
527.528
6.27453
6.45568
6.37132
6.58659
6.71813
6.46804
6.56213
6.186
6.24266
6.1436
6.06995
6.16072
6.00117
6.10945
5.76382
5.77432
5.66791
5.91853
5.81787
5.86344
5.76513
6.19055
6.22439
6.3462
5.59715
5.70568
5.75493
5.56095
5.65753
5.68795
5.73395
5.68552
5.65832
5.58716
5.67342
5.7883
5.64876
5.62751
5.52253
5.72345
5.62328
5.82888
5.72055
1.60306
1.59171
1.62593
1.70835
1.7272
1.63158
1.59217
1.59381
1.53666
1.55482
1.63934
1.58394
1.61029
1.54249
0.415686
0.535722
0.51
0.553698
0.560514
0.436017
0.50287
0.0131863
0.0393227
0.00492939
0.212138
0.239799
0.21789
0.192583
0.241498
0.23895
0.210671
0.0426927
0.0183432
0.0417367
0.0799209
0.0968347
0.0472855
0.0202835
0.0604633
0.0754359
0.0384888
0.00306135
0.0329036
0.00779537
0.027736
0.0291619
0.0523479
0.043252
0.0601165
0.0609553
0.0576752
0.0614856
0.0732857
0.0428226
0.00867182
0.0527372
0.0658102
0.0509086
0.0416451
0.017191
0.0453475
0.0445084
0.0174997
0.047863
0.0620476
0.0480441
0.307456
0.284058
0.314093
0.322664
0.326069
0.306412
0.290754
0.428373
0.457244
0.431713
0.440561
0.422552
0.393113
0.485306
0.494114
0.476458
0.474784
0.460884
0.487462
0.468611
0.452969
0.529153
0.526637
0.526946
0.604254
0.593317
0.597132
0.610592
0.619218
0.602456
0.600583
0.589531
0.570055
0.571278
0.565733
0.572202
0.563566
0.576725
0.59408
0.598782
0.592863
0.581933
0.582949
0.585836
0.585345
0.622728
0.606082
0.616473
0.634378
0.621074
0.611613
0.622806
0.612518
0.607612
0.610588
0.609621
0.614885
0.613243
0.607273
0.687467
0.674118
0.691591
0.699451
0.683902
0.692389
0.710731
0.597629
0.571601
0.590117
0.622992
0.602728
0.590297
0.609517
0.626708
0.66701
0.656428
0.659116
0.626977
0.619874
0.652078
0.477255
0.507568
0.524197
0.507785
0.53406
0.561089
0.532216
0.507953
0.481389
0.539482
0.568002
0.600499
0.505049
0.432979
0.445003
0.318056
0.434584
0.538027
0.45962
0.505317
0.408566
0.340129
0.286237
0.379494
0.41947
0.451887
0.387786
0.344016
0.410782
0.449535
0.144279
-0.0504228
0.109891
-0.14783
0.0612789
-0.134458
0.0418729
6.10088
3.91672
5.3985
7.82649
1.68927
9.47064
9.25566
-2.35485
1.51967
-0.516076
1.54963
-1.5641
-1.4552
-1.71535
-12.7701
-11.2781
-12.7009
-10.7058
-9.84598
-12.0663
-11.6735
-13.5452
-13.0753
-12.3579
-12.8626
-11.6306
-15.2025
-14.9123
-6.03505
26.3026
20.8878
149.34
-2.96471
474.747
77.4781
349.551
495.007
761.148
961.077
990.651
932.598
1007.32
1127.69
1121.46
1022.26
1090.87
1260.86
825.239
955.247
1046.12
889.749
1057.9
1052.96
1038.09
858.232
934.553
879.863
887.24
887.295
893.033
861.732
969.015
865.575
924.236
965.2
936.864
964.886
1078.87
932.937
919.896
861.849
946.747
888.603
968.828
785.258
845.158
682.237
698.623
753.742
539.062
581.94
590.418
595.979
573.431
339.879
365.283
562.995
383.004
487.194
405.114
419.024
537.597
14.9031
16.3717
27.6703
18.7962
25.3146
107.068
139.808
40.9278
42.173
7.51029
7.70374
7.41551
7.68265
7.60156
7.71049
7.49502
7.44611
7.41745
7.3176
7.35213
7.40422
7.28327
7.3241
7.55041
7.36458
7.52194
7.5426
7.62394
7.32889
7.41728
7.40513
7.41295
7.37698
7.3736
7.24108
7.3331
7.39337
6.9622
6.8032
6.98254
7.07333
6.96097
7.0333
7.1232
6.81231
6.93928
6.94682
6.946
7.00553
6.86093
6.94373
6.90926
6.81663
6.94888
7.06654
6.99344
6.47133
6.59665
6.62418
6.57606
6.64497
6.64757
6.74905
6.41809
6.55827
6.56296
6.53259
6.41812
6.95218
6.95966
6.82112
7.02151
7.09375
7.02869
6.95722
7.52137
7.46904
7.57644
7.5387
7.53168
7.43286
7.48991
7.55329
7.53862
7.55789
7.57889
7.50303
7.58763
7.57718
7.83473
10.4
8.94527
8.66312
8.18818
7.83315
10.0567
207.615
207.665
209.816
28.4657
36.9284
51.3777
11.04
9.98359
38.4983
18.9615
11.4452
12.6018
8.48572
193.893
202.02
204.961
198.216
201.839
210.643
215.821
7.38956
7.54335
7.47349
7.49031
7.47305
7.51621
7.51109
7.54061
7.63348
7.3409
7.62783
7.70531
7.71018
7.56946
7.0675
7.0518
7.23998
7.25257
7.18404
7.15031
7.22903
4.22773
4.1415
4.10304
4.09782
4.00925
4.08282
4.1444
3.70913
3.8198
3.84375
3.8045
3.88241
3.94797
3.86486
4.39805
4.32172
4.32294
4.2426
4.33061
4.33515
4.27293
4.30139
4.2253
4.41147
4.38265
4.47363
4.29806
4.29893
4.21329
4.24742
1622.4
1585
1540.79
1167.94
1463.15
1619.8
1606.3
1471.62
1541.03
994.348
947.087
1305.74
1636.63
1614.35
1614.75
1455.55
1644.19
1716.23
1438.06
1740.28
901.802
7.16262
752.74
3.61749
1.33522
3.7464
0.59784
470.998
0.865987
1.19196
1.38014
1.0402
0.913491
1.47563
1.53312
1.46592
1.43311
1.47684
1.49002
1.45488
1.40592
1.44147
1.44555
1.3669
1.37804
1.02505
0.998107
1.02359
0.955243
0.961051
0.987735
0.980169
0.855152
0.82277
0.843
0.781994
0.751124
0.766069
0.780004
0.718944
0.621966
0.670399
0.673341
0.613671
0.658627
0.682659
0.394469
0.429109
0.446407
0.458753
0.453593
0.40388
0.424067
0.298582
0.341088
0.330596
0.281942
0.246066
0.17825
0.209677
0.194741
0.16281
0.190314
0.201619
0.184647
0.0837311
0.0470567
0.0563116
0.0941172
0.0745851
0.0700618
0.0925285
0.00328697
0.0379412
0.033406
0.0579688
0.0859472
0.0686916
0.0230798
0.053491
0.0363105
0.0630089
0.0781103
0.0530643
0.0260294
0.0226806
0.00402056
0.0415548
0.0515833
0.0893834
0.0699555
0.0513802
0.044478
0.00495324
0.031098
0.0256191
0.170111
0.137434
0.152257
0.155652
0.129508
0.150404
0.170418
0.1505
0.111417
0.165737
0.141472
0.17101
0.159365
0.163728
0.132401
0.0673228
0.117491
0.224418
0.267209
0.238665
0.242255
0.218127
0.161686
0.273005
0.299022
0.301089
0.326478
0.318751
0.268888
0.286317
0.313075
0.303503
0.275849
0.313024
0.280804
0.293719
0.264232
0.297237
0.272763
0.608993
0.618292
0.593473
0.577857
0.581862
0.605342
0.610871
0.544333
0.544932
0.52696
0.532412
0.561301
0.520818
0.544824
0.663524
0.664893
0.686067
0.695302
0.709601
0.672684
0.674984
0.629149
0.62411
0.616254
0.616846
0.648236
0.652306
0.65577
0.667886
0.634569
0.630836
0.639143
0.644897
0.705647
0.682671
0.700009
0.733923
0.709931
0.692913
0.713069
0.695401
0.68244
0.695356
0.690072
0.702587
0.684836
0.696164
0.850463
0.845891
0.818616
0.889412
0.851119
0.758865
0.739451
0.746323
0.772717
0.76241
0.742186
0.753206
0.747697
0.747466
0.773979
0.742365
0.723762
0.73698
0.756542
0.92188
0.917487
0.87971
0.924479
0.958115
0.93545
0.903663
0.964417
0.921208
0.953083
0.931528
0.975079
0.952639
0.995622
0.947283
0.986476
0.822109
0.829036
0.849779
0.895406
0.896078
0.868271
0.865734
0.992706
1.01011
0.937586
1.04761
0.964969
0.812987
0.840361
0.807314
0.900766
0.907402
0.875345
0.871517
1.11842
1.01598
1.08849
1.0924
1.00317
1.02575
1.12553
1.18559
0.520359
0.349357
0.574381
0.360527
0.767592
1.90815
3.88679
1.55422
1.83704
1.65028
2.14177
1.68972
1.1124
-2.81325
1.30793
0.485386
6.45811
3.12424
5.21808
4.79568
-1.43775
-2.0295
-2.983
-3.48283
-1.76301
-4.88292
-3.01402
-0.770141
3.08487
-0.672187
-0.510752
2.25122
-4.82864
-7.99407
-10.095
-4.87504
-7.99496
-9.07239
-9.96067
810.67
726.406
798.58
682.979
137.854
780.206
773.939
984.445
863.933
907.198
808.865
744.087
750.249
740.434
741.655
724.049
721.646
763.484
854.544
760.549
406.859
447.768
410.294
371.267
387.987
406.133
386.044
509.958
557.256
538.113
534.123
671.347
569.723
7.44984
7.49996
7.4388
7.40845
7.45828
7.38228
7.43926
7.2873
7.26729
7.17326
7.35679
7.31021
7.35585
7.27145
7.46327
7.59048
7.42821
7.5656
7.49323
7.11335
7.23003
7.29031
7.38132
7.44649
7.49154
8.16492
7.62373
7.49749
7.44974
9.22814
9.28061
9.18901
9.24233
11.1647
11.5435
11.626
8.68403
9.13115
9.77187
7.58915
11.3115
9.12408
9.99691