/*--------------------------------*- C++ -*----------------------------------*\
| =========                 |                                                 |
| \\      /  F ield         | OpenFOAM: The Open Source CFD Toolbox           |
|  \\    /   O peration     | Version:  v2012                                 |
|   \\  /    A nd           | Website:  www.openfoam.com                      |
|    \\/     M anipulation  |                                                 |
\*---------------------------------------------------------------------------*/
FoamFile
{
    version     2.0;
    format      ascii;
    class       surfaceScalarField;
    location    "0.15";
    object      phi;
}
// * * * * * * * * * * * * * * * * * * * * * * * * * * * * * * * * * * * * * //

dimensions      [0 3 -1 0 0 0 0];
oriented        oriented;


internalField   nonuniform List<scalar> 
13152
(
1.51145e-06
3.36807e-05
-2.48887e-06
-3.27033e-05
3.1049e-05
-2.8602e-05
-9.3553e-07
-5.8135e-06
7.05432e-05
-5.7747e-05
5.89541e-05
-3.69595e-06
3.53481e-05
-0.000125798
4.74956e-05
-4.07495e-05
0.000100636
-2.69213e-05
-4.93355e-05
-4.7352e-05
0.000123609
6.27141e-07
-2.8064e-05
5.15558e-07
-4.98397e-05
1.13131e-06
1.3102e-05
8.60355e-06
-4.97695e-05
1.30705e-05
5.47068e-07
-8.45699e-06
-2.58245e-05
-4.96931e-05
-1.44224e-05
-2.44871e-05
-8.57294e-06
4.74824e-05
-9.88364e-08
-1.44519e-05
1.2832e-07
-2.36869e-05
-8.99108e-07
9.41627e-06
-5.09578e-05
2.70897e-05
-4.90264e-05
4.98697e-05
4.89641e-05
-9.61391e-07
4.67492e-08
-2.53242e-05
-4.98228e-05
1.76471e-07
-0.000124917
5.32509e-07
2.66855e-05
5.03756e-05
2.66052e-08
0.000124544
5.97322e-05
2.11922e-05
4.22393e-05
-0.000123164
5.29311e-07
-1.06688e-06
6.02697e-05
2.07859e-05
4.22928e-07
-3.13325e-05
0.000122662
0.000129574
4.85391e-05
-1.18115e-06
-4.8948e-05
1.59009e-06
-2.73267e-05
-4.48673e-05
0.000120733
3.28132e-07
-2.8836e-05
-1.3463e-05
1.33393e-05
4.51804e-07
8.79844e-06
-5.10974e-05
-8.2613e-06
-2.32667e-05
-4.84109e-05
-2.30302e-05
2.15388e-07
4.8534e-05
3.38442e-07
-5.70375e-07
2.11944e-07
-2.25959e-06
2.61802e-06
-7.01148e-07
-7.50251e-07
8.81025e-07
-7.05969e-07
2.16765e-07
1.36052e-06
-1.69081e-06
-4.19961e-07
-5.24629e-07
-3.7444e-07
1.04544e-07
-4.89251e-07
-3.21262e-07
-7.93712e-08
4.00681e-07
-2.46369e-07
-1.52381e-06
-1.26025e-06
-1.70269e-06
1.7342e-05
-5.99257e-06
-9.64676e-06
2.65457e-05
-9.18607e-06
-1.90624e-05
-1.98962e-05
-2.94349e-05
6.087e-06
3.2841e-06
-1.85572e-05
6.25698e-07
-5.31274e-07
-1.99703e-05
6.99803e-07
-4.61211e-05
-6.04279e-06
-1.13348e-05
-1.83977e-06
1.92173e-05
-1.15454e-06
-6.0605e-06
1.17226e-06
-1.12504e-05
-1.23888e-06
1.88217e-05
1.62395e-05
-4.63116e-05
2.16255e-05
-4.04262e-06
-9.24682e-06
2.90325e-05
9.32155e-07
1.05292e-05
1.44371e-05
1.78733e-05
-4.28396e-05
2.42547e-06
1.61172e-05
-8.01346e-06
1.47899e-05
2.07272e-06
4.84851e-06
1.87236e-05
-7.45493e-06
1.57912e-05
6.9306e-06
-1.1878e-05
4.53914e-05
5.98593e-06
-2.80023e-05
-2.92203e-05
-1.098e-05
6.82027e-05
-4.50646e-06
-2.35419e-05
4.61061e-08
8.36587e-07
-3.45634e-05
4.16551e-05
-1.48298e-05
-5.03673e-05
-4.30543e-05
7.37294e-05
-4.78317e-05
5.61405e-06
-9.7225e-05
1.24771e-05
-2.13342e-06
-1.17602e-05
1.41653e-06
-2.07595e-05
-1.53079e-06
3.47674e-05
-1.00253e-05
-1.28676e-05
2.14113e-05
2.53365e-06
-3.57051e-05
1.66082e-05
6.21959e-06
-2.26098e-05
3.76873e-05
-3.01015e-05
1.5473e-05
1.32969e-05
7.58126e-06
-3.63512e-05
4.81857e-06
2.3078e-05
-1.24235e-05
1.77721e-05
3.43417e-07
-3.66041e-05
-5.44331e-06
5.98195e-05
-1.28927e-05
-2.3368e-05
-2.68677e-05
4.45023e-05
-3.21791e-05
-1.1601e-06
-1.70292e-06
6.88955e-07
2.17407e-06
1.00076e-07
3.54105e-07
-1.61428e-06
-1.09648e-06
-5.0637e-07
-3.04975e-06
-5.17532e-07
3.92139e-06
-1.54405e-06
-3.11998e-06
1.86447e-06
-4.505e-06
2.0359e-06
1.87721e-07
4.68148e-09
-2.97573e-07
1.0517e-07
-6.10756e-07
-3.73992e-08
8.35876e-07
7.54444e-08
-6.81519e-07
-2.84461e-07
-6.10156e-07
8.57218e-07
-1.20632e-06
6.24289e-07
-1.47682e-06
9.42105e-07
-3.36466e-06
5.59408e-08
1.30733e-07
5.6944e-08
-2.43618e-07
6.34536e-09
6.29472e-08
-1.33518e-08
6.27856e-08
7.42928e-08
-1.53422e-07
2.73313e-07
4.94545e-07
-5.85181e-07
5.55486e-07
-4.56625e-05
4.44769e-05
2.7872e-06
-1.60153e-06
6.85413e-05
4.04538e-05
6.45481e-05
9.23544e-06
0.000103783
4.54351e-06
1.42829e-05
2.16273e-05
2.18467e-05
4.72449e-05
-1.44778e-05
4.556e-05
2.59236e-06
4.21802e-05
-1.08531e-06
-3.86598e-05
-2.43509e-06
-4.10712e-05
-4.58634e-05
0.000129115
-1.04766e-06
-4.11088e-05
-4.33697e-05
4.41524e-05
-1.83034e-06
4.37875e-05
-0.000128266
-2.16055e-06
4.49499e-07
2.96718e-06
-1.22731e-05
-0.000214282
7.73627e-05
0.000149192
-0.000137089
5.02243e-05
7.4592e-05
0.000157297
0.000235683
4.98959e-05
3.2118e-06
-2.88343e-06
-2.09567e-05
0.000148215
0.00015311
7.39824e-06
0.000367836
2.8391e-05
2.06936e-05
-3.26848e-05
-1.63998e-05
8.23743e-06
-5.34945e-05
7.36481e-05
-3.60012e-05
6.49322e-05
1.3256e-05
5.48436e-05
-0.000100784
3.57991e-05
-3.89429e-05
3.53047e-05
-5.30001e-05
5.41471e-05
-3.5506e-05
-5.93676e-06
-6.8842e-05
0.000110285
5.80999e-05
-6.66432e-05
-2.69627e-05
-9.84204e-05
0.000150584
2.81164e-05
9.48485e-05
-0.000189608
7.03864e-05
-6.92327e-05
5.7067e-05
-8.5101e-05
8.30736e-05
3.66593e-05
0.000104799
-2.65993e-05
-0.000114859
5.36924e-05
-4.97093e-05
3.26762e-05
-8.24343e-07
0.000159315
0.000105931
-2.47321e-05
-0.000130908
2.5494e-05
0.000113113
-7.94261e-05
0.000104096
-0.000130758
-2.42829e-05
-5.39443e-05
-5.76656e-05
0.000135893
-3.28774e-05
-7.47222e-05
8.33167e-05
-6.11076e-05
-2.57141e-05
-1.27572e-05
-3.08511e-05
-1.40573e-05
-2.7664e-05
-5.98153e-05
7.33424e-05
3.64708e-05
-0.000170921
8.87567e-05
-4.11284e-05
2.19131e-05
-1.31063e-05
7.98186e-05
2.74939e-05
-1.84712e-05
-3.19622e-05
2.29395e-05
-4.66854e-05
-1.28188e-05
8.69981e-05
-1.71016e-05
-4.8055e-05
7.481e-05
-2.34555e-05
1.428e-05
8.34695e-05
-4.06165e-05
4.20777e-05
-8.11736e-05
-2.43721e-05
-2.31894e-05
-1.89792e-05
6.65408e-05
-5.3016e-07
-2.85587e-05
4.71666e-06
3.68856e-06
-2.74082e-05
-4.8836e-05
-3.56134e-05
6.54701e-05
-1.50427e-05
-6.2352e-05
-8.99247e-05
2.78295e-05
6.57838e-05
-7.92418e-06
-0.000109409
2.73186e-05
-5.02855e-05
1.95347e-05
-4.40333e-05
1.48326e-05
8.49662e-05
-5.57654e-05
6.26791e-05
3.80291e-05
-0.000144742
7.687e-06
6.98246e-05
-1.34153e-05
2.8079e-05
7.03025e-05
2.80648e-05
-3.45106e-06
8.37211e-05
-8.36974e-05
7.66329e-06
-3.07084e-05
0.000184254
-1.82167e-05
1.55873e-05
-7.38494e-05
-1.85676e-05
-6.60156e-05
2.7331e-05
5.72522e-05
-4.1132e-05
-2.46003e-05
4.71647e-05
-1.68245e-07
-0.000106979
8.06442e-05
-2.88005e-05
-7.6444e-05
-1.69327e-05
4.20078e-05
-7.09766e-05
5.24061e-05
-1.07979e-05
-4.77796e-05
5.26965e-06
5.33079e-05
-2.57962e-05
5.52161e-05
-4.02177e-05
6.68563e-05
-0.000140432
4.71613e-05
-5.55869e-05
1.36952e-05
-6.54315e-05
0.000165901
2.48226e-05
-3.50381e-05
3.6092e-05
-3.5328e-05
-2.42783e-06
4.40965e-05
-6.34068e-06
5.64176e-05
5.14593e-06
-9.68915e-05
5.6381e-05
-2.3912e-06
-8.2958e-05
-1.33777e-05
-3.97574e-05
-4.95413e-05
7.88639e-05
-0.000113475
0.000121867
0.000127171
0.000120638
0.000123621
-0.00037143
-2.59375e-06
0.000117226
1.25388e-05
0.000120657
-2.61341e-06
-0.000133952
-0.000109779
0.000364388
-0.000123514
-1.3052e-05
1.24428e-05
-1.23349e-05
1.98903e-05
-1.568e-05
2.58782e-05
1.42204e-05
-2.44186e-05
5.41282e-05
-2.29308e-05
-4.68773e-05
1.14383e-06
7.88626e-05
-3.98859e-05
2.11534e-05
3.2953e-05
1.82205e-05
-8.2525e-05
2.82893e-05
-3.29996e-05
5.05866e-05
3.8013e-05
2.96411e-05
2.48849e-05
-9.2539e-05
1.50646e-05
5.59013e-05
1.57848e-05
2.89209e-05
-6.90903e-05
3.131e-05
9.36817e-05
6.63506e-05
-0.000110556
2.8904e-05
5.32315e-05
8.91349e-05
3.55721e-05
-2.43488e-05
-3.42573e-05
2.30341e-05
-6.41842e-05
2.16213e-05
7.8135e-05
1.24549e-05
-0.000100988
8.0094e-05
-2.04308e-05
-9.39205e-05
2.6684e-05
-6.01294e-05
0.000108435
-6.81053e-05
1.98561e-05
2.82711e-05
3.37234e-05
-8.18507e-05
1.29372e-05
1.31844e-05
-6.26537e-06
3.1715e-05
9.49321e-06
-4.21777e-05
-1.35156e-05
6.88776e-05
-6.44282e-05
1.59852e-05
-6.97498e-05
8.79493e-05
-0.000100455
-3.80529e-05
-1.3149e-05
4.00069e-05
1.1195e-05
4.87312e-05
2.14036e-07
4.45432e-05
-8.961e-06
-1.99422e-05
-1.73098e-05
7.72589e-05
-3.0277e-05
2.15298e-05
-7.56586e-06
-1.18053e-05
2.06131e-06
-6.21109e-06
-3.16318e-05
1.54819e-05
-2.14789e-05
4.82198e-05
-5.72333e-05
1.81244e-05
-2.16598e-05
6.07687e-05
0.000109872
-7.78947e-06
6.51393e-05
6.28567e-05
9.73317e-05
-3.5522e-05
-1.23975e-06
0.00015934
0.000107367
-0.000150679
0.000171267
3.13779e-05
-1.01816e-05
-2.84755e-05
7.27925e-06
-5.69753e-05
-4.29729e-06
9.26504e-05
-2.95302e-05
-3.76267e-05
5.11109e-05
3.89161e-06
-8.3478e-05
3.51082e-05
2.32819e-05
-5.6735e-05
8.7546e-05
-8.23736e-05
6.50641e-08
-4.87201e-08
-1.95389e-08
3.19491e-09
-2.28033e-08
2.36602e-08
6.42072e-08
6.92401e-08
-1.40764e-07
4.63639e-08
-3.39721e-08
-3.19307e-08
7.35693e-08
-3.54524e-09
-8.80147e-07
-4.9916e-07
1.44855e-06
-9.54605e-08
-9.2545e-07
-1.32182e-07
-2.93409e-07
-2.61615e-07
-2.77813e-07
1.03618e-06
-2.70102e-07
-4.88268e-07
-3.07258e-07
-8.01702e-07
8.31148e-07
1.76714e-07
5.5221e-07
9.94411e-07
1.52045e-06
-3.31657e-06
1.94672e-06
-1.22241e-06
-2.97955e-06
4.67672e-06
-4.80625e-07
7.06871e-06
7.82409e-06
4.60163e-06
-1.94944e-05
8.86962e-06
-5.99527e-06
4.19436e-06
6.55254e-06
1.01412e-05
2.81093e-06
-9.82697e-07
4.72431e-06
-7.80445e-07
1.37326e-05
-1.1893e-06
-3.98427e-06
-8.21692e-07
-4.31711e-06
7.72945e-06
-3.15486e-06
-1.81211e-06
-8.25241e-06
6.43934e-07
-1.74025e-06
1.92746e-06
-1.06674e-06
-6.12356e-06
1.87834e-05
3.40763e-05
-1.79656e-05
-3.48941e-05
-9.06806e-06
1.28765e-05
1.49749e-05
1.77642e-05
7.24404e-06
4.79813e-06
-3.98527e-07
8.47693e-06
-3.04033e-06
2.28133e-05
-6.96397e-07
1.54203e-05
-1.90605e-05
-9.61213e-06
-1.09699e-05
-1.18916e-05
3.24736e-05
-5.20097e-06
-2.55412e-05
2.11301e-05
-4.62129e-06
-1.15495e-05
2.17984e-05
-1.17936e-05
-3.5546e-05
-2.13628e-05
3.12696e-05
-1.12691e-05
-1.4715e-05
-3.46122e-05
7.53647e-05
4.32003e-07
-7.4773e-05
-1.02371e-06
-4.95224e-05
-2.17447e-05
0.000146632
-4.12995e-05
-7.79083e-06
1.85653e-05
-2.1411e-05
-7.19272e-05
-1.9995e-05
1.68156e-05
3.27881e-05
1.75638e-05
-9.16515e-05
4.58865e-05
-2.08892e-05
-6.93567e-06
3.28272e-05
-1.07829e-05
1.7759e-05
-1.3466e-05
7.63613e-06
-1.19292e-05
-4.22249e-05
6.95519e-06
5.30287e-05
-5.2837e-06
-5.04072e-05
-2.11306e-05
4.30539e-06
2.44614e-05
-8.59124e-06
-2.44685e-05
-1.92752e-05
3.05357e-05
-3.31501e-05
1.72613e-06
-3.0124e-06
-5.34529e-06
6.63157e-06
-4.98541e-06
9.35975e-06
-2.64822e-06
-1.38383e-05
5.84044e-06
-2.39116e-05
5.45669e-06
2.78147e-05
1.30071e-06
-2.78605e-05
1.57218e-05
-2.82593e-05
1.58332e-05
8.48639e-06
2.89425e-06
-1.54899e-06
-9.83166e-06
-5.83682e-06
6.95295e-06
7.37026e-06
3.689e-06
-4.74018e-07
-1.44813e-05
2.19082e-05
-1.87927e-05
2.5689e-05
-8.53527e-06
1.36956e-06
-7.31554e-06
-3.22676e-06
-2.41012e-05
-2.60729e-05
2.65352e-05
-2.62524e-05
5.27309e-06
-2.15313e-06
-9.97236e-06
6.85239e-06
3.91927e-06
5.17222e-07
8.36601e-07
-4.76761e-06
6.53376e-06
-3.05109e-06
-6.62723e-06
-2.94035e-07
1.54974e-06
-4.08361e-06
1.64405e-05
1.35278e-05
-3.47359e-05
3.73195e-06
1.92423e-05
-8.0323e-06
1.3314e-05
-1.13169e-06
-3.59627e-09
1.22363e-08
-1.05935e-07
9.72953e-08
-1.20013e-07
7.04503e-08
4.59669e-08
4.4608e-08
-1.52385e-07
-1.17193e-07
-1.50001e-07
3.37645e-07
-4.50377e-07
2.27249e-07
-5.50214e-07
4.44821e-07
-1.15298e-06
8.47076e-08
1.00099e-07
-2.16738e-07
-1.79009e-08
5.09723e-08
5.16363e-08
8.53933e-08
-4.31312e-09
1.53914e-07
4.31139e-08
2.52766e-07
-9.89775e-08
-4.47197e-07
-6.74307e-08
3.63311e-07
-1.14772e-07
-5.93124e-07
1.22103e-06
1.12779e-06
-1.90735e-07
-2.15809e-06
6.43069e-07
-1.57221e-06
2.15017e-06
5.12724e-07
1.25814e-06
5.04474e-07
9.16641e-07
-9.08391e-07
2.36687e-07
1.52593e-06
1.75889e-06
-2.41446e-06
1.80484e-06
4.48215e-06
-3.27501e-06
-9.38617e-08
-1.11328e-06
1.07164e-06
-1.14794e-05
1.48899e-05
-2.62269e-06
4.19321e-07
-6.33097e-06
-1.32709e-06
5.03536e-06
-3.98696e-06
-1.92468e-06
-2.11358e-06
-1.06929e-05
-6.19441e-06
-4.37523e-05
-7.84669e-05
1.58629e-05
0.000106356
-1.97151e-05
2.90459e-05
-5.30832e-05
-6.36505e-05
-3.45314e-05
-8.94473e-05
7.31599e-05
4.53333e-05
5.78668e-06
-0.000148317
-3.05581e-05
1.30633e-05
9.06547e-05
1.81984e-05
-4.29698e-05
2.66449e-05
-7.2097e-05
5.55711e-05
6.39152e-05
2.43192e-05
-1.22806e-05
-7.59538e-05
-2.12098e-05
1.23499e-05
7.27751e-05
2.26449e-05
-1.95355e-05
-6.03309e-05
7.56432e-06
7.54115e-05
-2.38727e-05
-5.59937e-05
-5.1523e-05
7.14373e-05
-8.76764e-05
2.95512e-05
-3.78318e-05
4.59987e-05
-3.77182e-05
-3.58472e-05
2.62876e-05
3.91108e-05
1.51496e-05
-8.88286e-05
2.22694e-05
-5.16988e-05
5.5717e-05
-2.94484e-05
9.08286e-05
-6.97112e-06
-1.74351e-05
-2.72926e-05
-1.29343e-05
-2.34852e-05
1.55775e-05
-1.33622e-05
4.41412e-05
4.95004e-05
6.41602e-07
-4.89131e-05
-1.22889e-06
-4.88885e-05
-5.00013e-05
0.00014839
-5.0799e-05
2.55208e-06
4.50468e-05
5.08901e-05
-0.00014485
4.83219e-05
-4.50405e-06
3.50593e-06
-5.1853e-06
3.59703e-06
6.39327e-07
-5.29648e-05
-9.16588e-07
5.32421e-05
-5.35253e-05
5.24107e-05
1.75397e-06
5.15652e-05
-0.000158055
5.4712e-05
-5.27076e-05
-2.92093e-06
-5.21404e-05
0.000160094
-1.52914e-06
1.79934e-06
-2.67152e-06
1.4112e-05
4.52958e-05
-4.87141e-05
-1.06937e-05
5.11513e-05
-0.00010182
6.47802e-05
-4.34911e-05
0.000139938
6.05433e-05
4.00622e-05
-0.00014932
8.31752e-05
-3.33256e-05
9.94798e-05
-0.000161237
0.000139164
8.07953e-05
4.28115e-05
1.15819e-05
-0.000135189
-1.8078e-05
5.03099e-05
4.85635e-05
-1.26196e-05
3.7353e-05
-8.62162e-05
1.02088e-05
0.000126317
5.67862e-05
-0.00013142
6.7094e-05
-2.29275e-05
0.000114656
5.34004e-06
4.09834e-05
-3.44518e-06
-4.28783e-05
5.38789e-05
-6.71718e-05
1.86329e-05
-2.51116e-05
0.000119974
-6.19153e-05
6.52705e-05
-6.80034e-06
2.43854e-05
-0.000129179
8.26334e-05
-0.00012542
0.000122792
5.40135e-05
-9.24431e-07
-5.65755e-05
3.4864e-06
-4.11308e-05
-1.44078e-05
0.000109552
-4.13609e-07
-4.16416e-05
1.58283e-05
-1.61295e-05
-5.62743e-05
-1.57462e-05
1.71666e-05
-5.50827e-05
5.37521e-05
9.16992e-07
1.19434e-05
-0.000108668
-1.60743e-05
5.40802e-05
-2.02604e-05
4.87668e-05
-1.00678e-06
-5.10468e-05
3.28682e-06
-3.25881e-05
-1.74364e-05
9.87913e-05
-7.77341e-07
-3.28175e-05
-4.90514e-05
4.97766e-05
-1.5025e-06
1.71855e-05
-9.90544e-05
-6.66141e-05
9.89543e-05
-0.000100475
-1.82551e-05
-4.43378e-07
2.17946e-07
1.84806e-05
3.89823e-05
3.89699e-05
-9.62073e-05
3.81421e-05
3.96737e-07
1.05338e-05
-1.079e-05
4.74186e-07
-6.57045e-06
3.55848e-05
7.39516e-06
2.07848e-05
3.89668e-05
1.74571e-06
3.23175e-05
-8.22826e-07
-3.32404e-05
3.09907e-05
-3.37333e-05
4.48831e-06
-3.46051e-05
9.79133e-05
-3.32927e-05
3.28665e-05
3.54006e-05
-0.000101934
-7.9868e-07
2.46603e-06
-2.53727e-06
3.29799e-07
-2.09059e-05
-3.43714e-07
2.09198e-05
-3.66988e-05
3.6234e-05
7.94624e-07
3.4455e-05
-9.20597e-05
9.39076e-06
-9.83956e-06
1.05097e-07
-6.34225e-06
3.66528e-05
-6.67762e-06
3.65694e-05
1.79378e-05
1.0976e-05
2.30038e-05
7.06356e-06
-4.10434e-05
1.28827e-07
1.04704e-05
3.76777e-07
2.27217e-05
4.10909e-07
6.27113e-06
3.73558e-05
-3.65634e-05
3.20759e-05
-1.53343e-05
-3.7262e-05
5.04716e-07
-1.64077e-05
-3.56865e-05
8.8747e-05
1.63527e-06
2.51821e-06
2.24645e-09
-3.72745e-05
7.08844e-07
-1.49553e-05
-9.32732e-05
-1.70958e-05
-2.11662e-05
-4.43068e-06
4.26926e-05
7.78451e-07
-1.6868e-05
-1.00621e-06
9.79012e-07
-2.13668e-05
2.39995e-05
-2.57017e-05
-1.51658e-05
-3.6489e-05
5.60578e-05
-3.96498e-05
4.13976e-06
-8.67183e-05
-8.71236e-08
2.18226e-05
-2.21617e-05
4.26202e-07
9.94773e-06
-9.74025e-06
-2.94594e-07
-1.18832e-05
4.36535e-05
3.38395e-05
3.38575e-05
-8.98587e-05
3.12265e-05
3.03928e-06
-4.17751e-06
2.82948e-05
2.96981e-05
-2.92753e-05
-7.17382e-07
-1.98679e-06
-2.57668e-05
-1.38919e-06
2.51191e-05
2.03685e-06
3.56585e-05
2.62649e-05
-8.76902e-05
3.9215e-05
-4.94574e-06
-9.26519e-06
-2.63699e-06
3.70213e-05
-1.02351e-05
3.00675e-06
-3.07242e-06
-1.34492e-05
1.38846e-05
-2.02868e-05
6.97928e-06
1.62037e-05
-1.02256e-05
4.19696e-05
-5.00005e-05
-4.62459e-05
-3.29564e-05
8.06447e-06
-4.41804e-05
-1.03514e-05
-2.783e-05
-3.74531e-05
7.50336e-06
-4.08252e-05
-2.86578e-05
2.75671e-06
-1.92889e-06
4.75003e-05
-8.63837e-05
9.43176e-06
-3.4677e-06
2.98254e-05
-9.96038e-06
-1.63973e-05
4.79783e-05
-1.57464e-05
-3.56997e-05
-5.17385e-05
-3.24944e-05
-1.16243e-05
3.21741e-06
-1.55345e-06
9.47487e-06
-3.68456e-05
4.05512e-05
-8.28149e-05
1.12742e-05
-1.24679e-05
-3.46712e-05
1.45435e-05
3.25955e-05
-2.99257e-05
4.91685e-05
-3.17106e-05
3.04142e-05
-9.50111e-05
2.38041e-05
-5.17511e-05
4.24906e-05
-2.81413e-05
8.45409e-05
7.70919e-06
-1.90898e-05
-4.03705e-05
-1.77237e-05
-2.70836e-06
-8.82036e-06
4.02651e-05
2.50402e-06
-9.76488e-06
2.01944e-05
4.65258e-05
-5.69553e-05
4.08476e-05
7.43039e-05
-0.000124916
2.48653e-05
3.61767e-05
-2.81595e-06
-4.68989e-05
7.45801e-05
-6.09381e-05
9.42988e-05
-4.34462e-05
7.08513e-05
-5.78584e-05
2.43848e-05
-2.7612e-05
-2.55719e-05
2.8799e-05
-7.00272e-05
1.052e-05
8.3892e-05
-2.3059e-05
6.64431e-05
-1.29828e-05
-7.90322e-05
7.25005e-06
8.79921e-05
-5.34857e-05
7.12558e-05
-8.95275e-05
3.81926e-05
3.55953e-05
4.79035e-05
-0.000121691
-2.24135e-05
2.84467e-05
3.21594e-05
7.98774e-05
-6.66956e-05
1.56475e-05
-8.71567e-05
9.99559e-05
-4.54568e-05
9.32638e-05
-6.98686e-05
0.000104289
-0.000109122
-2.28017e-05
9.91328e-06
2.21036e-05
-9.21522e-06
2.0463e-05
-6.47436e-05
-1.25546e-06
-5.69537e-05
8.11186e-05
-1.79491e-05
1.71101e-05
4.1012e-06
-1.69167e-05
-4.29458e-06
-7.49308e-06
-2.57383e-05
5.03415e-05
7.2229e-06
-1.06148e-05
-4.23303e-05
1.55338e-05
3.40193e-05
-5.51929e-06
-4.74258e-05
-7.75366e-06
-2.45081e-06
-3.01896e-05
3.9929e-05
-2.69142e-05
-7.53108e-05
6.22961e-05
-5.24572e-05
-4.52811e-05
0.000137667
-5.40833e-05
-2.52881e-05
6.58502e-05
3.83725e-05
-0.000158306
0.000101405
-6.08425e-05
-8.92406e-05
0.000145364
-0.000126179
0.000106054
-3.1432e-05
-0.000137421
6.27988e-05
-0.000104009
-7.83068e-05
0.000288369
-9.76059e-05
-3.78348e-05
0.000120824
6.66997e-05
-0.00028513
0.000200741
-0.000117752
-0.000180412
0.000302847
-0.000251134
-4.16081e-06
-4.13651e-06
-3.48386e-06
1.17812e-05
2.01122e-06
-2.3807e-06
-3.79133e-06
-7.46449e-06
5.3392e-06
-2.88132e-06
8.2846e-06
-7.78398e-06
4.18447e-06
-1.08571e-05
7.32338e-06
-1.06034e-05
1.21241e-05
3.85937e-06
3.82104e-06
-3.7364e-06
-3.94402e-06
2.70928e-07
-7.27089e-06
1.08593e-05
-6.8927e-06
1.09847e-05
9.71172e-07
7.18424e-06
-1.18918e-05
7.92446e-06
-1.08973e-05
2.96086e-07
3.17625e-06
3.71189e-06
3.51871e-06
4.70184e-06
-8.68102e-08
-3.66535e-06
-3.80325e-06
-1.43635e-05
-5.55674e-06
2.09033e-06
1.78299e-05
6.26697e-06
-4.10682e-06
-1.65236e-05
-4.8048e-06
5.51504e-06
9.46791e-06
4.2073e-06
-1.7782e-05
-1.67897e-06
1.32372e-05
1.05299e-05
-1.11274e-05
1.4366e-05
6.82276e-06
1.21671e-05
1.79233e-05
-3.69132e-05
3.1569e-06
1.45398e-05
-1.0874e-05
3.3619e-06
1.19621e-05
4.1693e-06
-1.33091e-05
1.25017e-05
-1.73338e-05
3.34652e-05
8.83959e-06
-1.16336e-05
1.34538e-05
1.56308e-05
2.25893e-06
-9.60878e-06
-8.2809e-06
-1.07772e-05
-7.51196e-06
3.392e-05
-1.14433e-05
2.925e-06
7.30695e-06
-7.79177e-06
-9.12395e-06
-1.05126e-05
1.03076e-05
1.76455e-05
-3.68805e-05
1.00579e-05
9.9287e-06
1.1854e-05
1.45412e-05
-3.6324e-05
1.51164e-06
1.31159e-05
-4.69879e-06
1.15551e-05
1.81057e-06
-7.23069e-06
-1.44828e-05
3.32686e-05
-1.23056e-05
6.88546e-06
-3.97761e-06
6.21325e-06
-5.34452e-06
9.40226e-06
-2.68086e-06
-1.06764e-05
3.95497e-06
-1.0135e-05
-1.31593e-05
3.26966e-05
-9.14486e-06
-3.67101e-06
-3.19623e-06
-1.51964e-05
7.7163e-06
-1.12002e-05
-5.15531e-06
2.73656e-06
-2.70779e-05
-1.21346e-05
3.35429e-06
4.70757e-06
1.85296e-05
-2.65914e-05
4.7502e-06
1.6304e-05
-1.76999e-05
3.84678e-06
5.61099e-06
1.19773e-05
-1.65026e-05
8.37215e-06
-1.77038e-05
3.52921e-05
1.6606e-05
1.91876e-05
-1.94897e-05
1.30528e-05
2.20827e-05
-8.12767e-06
1.08127e-05
-1.27786e-05
-2.32675e-05
-1.3255e-05
-2.21882e-06
3.87413e-05
5.40868e-08
-1.49494e-05
-1.22219e-05
-9.79016e-07
3.82931e-06
-2.60827e-06
-1.34429e-05
3.49292e-06
-6.42621e-07
5.17201e-06
5.48599e-06
-1.32663e-05
1.46133e-05
-5.94833e-06
2.28321e-05
-3.22955e-05
3.52266e-05
4.20127e-06
2.57693e-06
9.67999e-06
-1.64582e-05
3.82772e-06
5.06107e-06
-4.68752e-06
1.08109e-06
5.32357e-06
7.00458e-06
-6.17611e-06
2.52628e-07
-2.90381e-06
1.5232e-05
1.16476e-05
1.41219e-05
-1.60894e-05
9.36186e-06
7.3468e-06
-1.11127e-05
2.23307e-05
-7.92691e-06
-3.36126e-06
-9.91912e-06
2.85123e-05
-2.77963e-06
-3.28997e-07
2.77564e-06
1.1333e-06
-6.68856e-06
3.54024e-06
-1.0936e-06
3.68895e-06
-1.04826e-05
1.3859e-05
-6.62979e-06
2.62706e-05
3.42825e-06
3.03546e-06
4.36927e-07
-6.90064e-06
4.25402e-06
6.90369e-06
2.66048e-06
4.62901e-06
6.94892e-06
2.61525e-06
-5.96975e-06
1.75477e-05
-2.91757e-06
2.67097e-06
2.86715e-06
-3.33689e-06
-2.20123e-06
-8.3473e-06
4.88674e-06
6.13153e-06
-1.03716e-06
4.11179e-06
3.50278e-07
-4.30513e-06
-9.13049e-06
-6.67269e-06
2.01083e-05
-2.32464e-06
-9.29602e-06
-2.14698e-06
-9.30815e-06
-1.36945e-05
-2.77141e-05
-1.55164e-06
-2.14389e-05
-1.0487e-05
-1.9374e-05
-2.13468e-05
9.18747e-06
-4.14466e-06
6.88699e-06
8.43201e-06
1.01771e-05
-7.64922e-07
-4.5593e-06
2.20301e-05
1.62035e-05
3.00264e-05
2.71694e-05
-2.36469e-05
-7.7165e-06
5.11101e-06
1.04865e-05
1.91353e-06
-3.60469e-05
-3.75181e-06
6.52177e-06
9.51932e-06
-8.16804e-06
3.75973e-06
1.82852e-05
1.29908e-05
1.54261e-06
1.13446e-05
1.21485e-05
1.01811e-05
-9.01556e-06
7.18319e-06
8.81678e-07
1.39348e-05
3.42943e-06
-2.24061e-05
5.73595e-07
-1.25931e-06
2.13426e-06
-2.07955e-06
7.53771e-07
1.89937e-06
-2.43283e-06
-9.06031e-07
7.78203e-07
4.52935e-07
-3.66397e-06
7.5385e-07
4.17195e-06
-2.66433e-06
6.75915e-06
2.02882e-07
1.21662e-07
-3.21542e-07
8.62069e-07
1.30823e-06
-4.04884e-07
-2.73312e-06
1.82977e-06
-7.04637e-07
-1.2475e-06
3.26036e-06
-2.72794e-07
-8.36727e-07
-8.78356e-07
4.22495e-07
1.83067e-07
1.70973e-07
-1.88606e-06
-1.96051e-06
1.13551e-06
-4.52265e-06
-1.03124e-07
-2.48988e-07
-8.90029e-08
4.41115e-07
6.32543e-08
-2.128e-07
4.64217e-08
-3.14084e-07
1.28351e-07
-2.42238e-07
-1.68513e-07
3.21748e-07
-8.01309e-07
3.46271e-07
1.72956e-06
-1.90676e-07
-1.85297e-06
-1.2184e-06
3.07632e-06
7.97617e-07
-1.7896e-06
-5.89299e-07
-2.5206e-07
-4.59801e-07
1.40633e-07
2.57947e-09
4.77364e-07
-3.38762e-07
-4.33424e-07
2.94822e-07
-1.43739e-06
-1.86757e-07
2.10151e-06
-9.12146e-08
-1.68494e-06
9.11882e-07
-2.69843e-06
1.35313e-06
-1.74543e-06
2.47055e-06
-1.90304e-06
9.46522e-07
8.65307e-07
2.28736e-07
-3.81672e-06
3.32503e-06
-5.79473e-06
2.52613e-06
-3.57752e-07
-6.10674e-07
-1.6133e-07
1.12976e-06
-1.01094e-07
-4.8771e-07
2.31051e-07
-5.28701e-07
5.03021e-07
-1.79061e-06
7.99883e-07
1.4772e-06
1.63492e-06
-4.04968e-06
-4.67835e-06
-5.95482e-07
-6.43643e-08
4.35452e-07
1.84829e-06
9.55501e-07
-1.17039e-08
-1.31662e-06
3.72818e-07
-2.32665e-06
-4.98987e-07
3.78114e-06
3.45012e-07
-2.68336e-06
1.33815e-06
-5.45954e-06
2.80478e-06
-3.43963e-06
4.27879e-06
-7.66877e-06
4.57416e-06
-1.58117e-05
-1.22228e-06
-1.2747e-06
-2.18136e-06
-1.07177e-06
-2.23418e-06
2.08366e-06
-1.48117e-06
3.00411e-06
-8.30199e-06
4.91745e-06
-7.70807e-06
-2.5151e-06
5.19837e-06
-2.17033e-06
1.50831e-06
3.92207e-06
-2.18163e-06
-3.24875e-06
5.96954e-07
-2.02422e-07
1.11378e-06
-1.64972e-06
6.16875e-06
2.53527e-06
-6.54027e-07
1.14589e-06
2.50315e-06
-1.52018e-06
1.01635e-06
-4.35583e-06
9.74284e-07
-1.28914e-06
-4.63677e-06
4.95163e-06
-2.12e-06
-8.48122e-06
1.15755e-05
-1.53916e-06
-1.86999e-06
1.26589e-06
4.21452e-06
-7.01957e-06
6.21553e-06
-6.81963e-06
4.42761e-06
-8.6943e-06
6.00637e-06
3.65223e-05
2.09619e-05
9.11766e-07
-5.8396e-05
-1.24837e-05
1.51785e-05
3.38275e-05
-1.48272e-05
2.33054e-05
2.71363e-05
1.4869e-05
-4.10935e-05
1.66765e-06
4.06471e-05
4.52254e-05
-4.51836e-05
7.01985e-05
2.5354e-05
4.38018e-05
2.63216e-06
-7.1788e-05
4.55277e-06
-5.15902e-06
2.59603e-05
2.55501e-05
2.28045e-05
4.3024e-05
-2.57536e-05
-2.24294e-05
-6.94702e-06
7.59313e-05
-3.61463e-05
5.47493e-05
-5.92677e-05
7.1081e-06
-2.30991e-05
-5.16584e-05
6.76494e-05
-2.06814e-05
-3.20799e-05
5.98695e-05
-2.30086e-05
-2.07719e-05
-4.40382e-05
-5.41216e-05
6.60799e-05
-2.99567e-05
-6.57398e-05
1.79636e-05
-7.09288e-05
-5.693e-05
-2.70962e-05
5.46827e-06
-4.80014e-05
6.96293e-05
2.74532e-05
-2.64069e-05
-2.81425e-05
-4.45699e-05
7.74914e-05
3.2062e-07
4.08274e-05
-6.75549e-05
4.29393e-05
-7.07612e-05
1.12323e-06
2.05893e-05
1.91149e-05
2.064e-05
2.34225e-05
-9.34548e-07
-2.29954e-05
-2.83467e-05
-0.000131316
-4.43612e-05
4.73139e-05
0.000128363
4.69183e-05
-4.25035e-05
-0.000135731
-3.08082e-05
3.33653e-05
8.14425e-05
-4.26214e-05
2.3019e-05
9.17888e-05
2.4539e-05
-4.72269e-06
-6.24377e-05
-2.70753e-06
5.02655e-05
3.63443e-05
-8.35705e-05
8.09507e-05
8.19532e-05
1.19509e-05
-6.36786e-05
-3.02254e-05
-6.71546e-05
-4.25929e-05
0.000191701
-6.6221e-05
1.10173e-05
1.42426e-05
-5.42993e-05
-2.36219e-05
-5.82985e-05
2.99482e-05
5.94398e-05
-0.00017996
1.21585e-05
6.80916e-05
8.5837e-05
4.96582e-05
-0.000203587
-1.93942e-05
2.37309e-05
6.3755e-05
0.000117272
-5.08292e-05
6.65741e-05
-0.000117332
7.4489e-05
-5.46632e-05
0.000184992
-0.000126999
-0.000194673
-0.000111439
-6.39588e-05
-3.86451e-05
0.000214043
3.30007e-06
-0.000131966
1.72276e-05
-6.44563e-05
3.79756e-06
-0.000150912
-9.87608e-05
0.000211028
-4.72616e-05
-0.000235617
8.79946e-05
-0.000199713
-6.96859e-06
8.52201e-05
4.34103e-05
-0.000141737
-3.65565e-05
6.19613e-05
-3.27846e-05
3.96384e-05
0.000121523
0.000147104
-6.19148e-06
3.16485e-05
4.54845e-06
-3.00054e-05
7.00761e-05
-4.80928e-05
-2.81748e-05
-3.26006e-05
0.000134325
-2.73048e-05
2.03499e-05
1.15034e-05
1.50877e-06
-5.8819e-05
3.82065e-05
-8.47905e-05
2.59558e-05
-3.9109e-05
-6.42484e-05
-1.41391e-05
0.000117496
-4.49916e-06
3.60882e-06
-3.82186e-05
-5.10342e-05
-1.77134e-05
-6.28159e-05
5.30388e-05
1.3386e-05
1.26332e-05
-0.000113668
7.77179e-05
-0.000116119
0.000116618
-3.44439e-05
-1.10956e-06
3.07798e-05
4.77364e-06
3.17563e-05
2.79528e-05
-9.4153e-05
3.18768e-05
-1.23005e-06
4.04103e-06
3.07982e-05
-6.88646e-06
3.04862e-05
4.33459e-06
-3.46297e-05
9.69927e-05
-5.06153e-06
-1.93527e-05
-1.11149e-06
1.25344e-07
2.03389e-05
3.86351e-05
3.90201e-05
-9.70079e-05
3.9107e-05
-1.5834e-06
1.08702e-05
-1.10708e-05
3.25843e-07
-6.94329e-06
3.81524e-05
7.12842e-06
2.0821e-05
3.92921e-05
-1.58012e-07
3.30887e-05
-3.31092e-05
1.7853e-07
3.43814e-05
-3.2967e-05
-1.57247e-06
-3.26795e-05
0.00010015
3.31963e-05
3.15217e-05
-9.78273e-05
3.17913e-05
1.5773e-06
-3.02252e-06
6.89097e-07
-1.53076e-05
-4.45237e-05
-3.87643e-05
9.85956e-05
8.23266e-07
3.5798e-07
-1.64888e-05
-4.49884e-05
1.28796e-06
-2.23199e-05
2.23118e-05
3.66139e-07
1.07622e-05
-4.9571e-05
3.32989e-05
-6.75251e-05
3.87624e-05
1.68483e-05
1.28603e-06
3.30059e-05
1.67034e-05
-9.92803e-05
3.319e-05
1.81988e-07
-5.06723e-05
0.000100711
-4.93278e-05
-1.16243e-06
4.098e-05
-4.1083e-07
1.66813e-06
-4.22373e-05
-2.31665e-05
-3.20609e-05
-3.29526e-07
-2.32478e-05
-5.43028e-05
5.33457e-05
6.27623e-07
2.41249e-05
-0.000101676
-3.21075e-05
1.71471e-06
8.04832e-05
0.000101721
-1.22293e-06
3.76525e-05
2.0036e-05
2.18421e-06
-3.17479e-05
3.49169e-05
-5.3532e-06
-3.42548e-05
3.34415e-05
2.99747e-06
3.80039e-05
-0.000104007
-2.90356e-05
-3.68192e-05
9.92963e-05
-3.47703e-05
8.73215e-06
-4.06744e-06
7.30102e-06
-5.96983e-06
-2.52812e-05
-2.96074e-05
-3.28015e-05
-3.11573e-06
-3.09617e-05
8.7962e-06
-2.32838e-06
-3.03948e-05
-2.75222e-05
3.13888e-05
-6.19502e-06
3.48376e-05
-9.27546e-05
-4.48565e-06
8.3616e-06
-5.89837e-06
-3.60572e-06
2.83094e-05
4.53169e-06
-2.92354e-05
3.46317e-05
-2.71467e-05
-1.10907e-05
-2.22998e-05
8.52409e-05
-3.72873e-05
2.70668e-05
1.47522e-05
2.35925e-05
-9.01152e-05
9.23979e-06
-1.2794e-05
1.40068e-05
-1.41531e-06
-1.65355e-05
-2.96116e-05
-8.29927e-05
5.89416e-06
-1.96885e-05
3.18386e-05
-1.80442e-05
-2.83394e-05
2.75199e-05
6.71374e-06
3.96899e-05
-8.77178e-05
-1.73955e-05
-3.6323e-05
8.12383e-05
-3.07804e-05
2.00986e-05
-1.26447e-05
2.15542e-05
-1.71291e-05
-3.85038e-06
2.49753e-05
-2.56462e-05
4.52125e-06
4.20727e-05
-3.46489e-05
-3.10804e-05
-4.89279e-05
1.79554e-05
-7.82505e-05
-4.21672e-05
1.56081e-05
-7.31397e-05
4.61964e-05
2.92253e-05
-4.92404e-06
-7.04976e-05
-3.91289e-05
-2.80757e-05
-2.25409e-05
5.70457e-06
-6.49303e-06
-4.25135e-05
2.09309e-05
-2.33294e-05
-7.07669e-05
-4.12001e-06
2.11011e-05
-5.45586e-06
-1.15252e-05
3.97148e-05
-1.06933e-05
-3.31415e-05
-3.81313e-05
-1.89822e-05
-9.80731e-06
8.94277e-06
-4.59131e-06
1.45925e-05
-3.50931e-05
3.88368e-05
-6.23756e-05
2.87974e-05
-1.20225e-05
-1.11093e-05
4.18506e-07
2.27133e-05
7.26881e-06
-5.83731e-06
-1.3454e-05
-1.18795e-05
8.03907e-06
-1.11049e-05
-7.48115e-06
1.90046e-05
-2.57378e-06
-1.43684e-05
3.36584e-05
-4.81118e-05
3.42164e-05
-2.22737e-06
6.926e-06
4.18134e-05
-4.65121e-05
9.75658e-06
4.84059e-05
-6.03899e-05
7.41386e-06
9.26871e-06
5.74644e-06
-4.17983e-05
4.34657e-05
-3.28235e-05
4.78386e-05
3.66036e-05
4.83749e-05
-4.31651e-05
3.34328e-05
5.15768e-05
4.12002e-05
-4.95658e-05
5.67515e-05
-3.61868e-05
-7.18987e-05
2.60799e-07
0.000107825
-1.71723e-05
1.29872e-05
-3.20017e-05
-2.80325e-05
-6.10385e-05
-6.30607e-05
2.97749e-05
4.6273e-05
-7.07029e-06
6.47418e-05
-9.98445e-05
9.47774e-05
-2.82116e-05
-6.16523e-05
2.17587e-05
-3.01261e-05
2.52043e-05
-2.32898e-05
1.65093e-05
-0.000108288
-6.79712e-05
2.21989e-05
-1.97779e-05
-7.14831e-05
-4.99629e-05
-8.71144e-06
6.37912e-05
-5.50653e-05
-1.44466e-08
0.000102002
-4.0411e-05
0.00018138
8.94999e-05
-0.000148016
1.56361e-05
8.94446e-05
-2.90417e-06
-7.09043e-05
-6.41166e-05
-3.20825e-05
0.000185644
-9.85226e-06
-5.71685e-05
-9.25306e-05
0.000119207
-3.65292e-05
2.74225e-05
-0.000177122
-0.000122419
0.000209544
9.10782e-05
-2.56264e-05
-7.31591e-05
7.7073e-06
-0.000189736
-4.31623e-06
-0.000135527
-7.98353e-05
0.00010757
1.81898e-05
-0.000198919
0.000104374
1.09035e-05
3.18129e-05
2.72876e-05
-4.09107e-05
2.79448e-05
0.000108242
-4.52858e-05
6.89143e-05
-0.000153525
4.97147e-06
-3.97872e-07
-5.23076e-06
6.57157e-07
-3.41918e-06