/*--------------------------------*- C++ -*----------------------------------*\
| =========                 |                                                 |
| \\      /  F ield         | OpenFOAM: The Open Source CFD Toolbox           |
|  \\    /   O peration     | Version:  v2012                                 |
|   \\  /    A nd           | Website:  www.openfoam.com                      |
|    \\/     M anipulation  |                                                 |
\*---------------------------------------------------------------------------*/
FoamFile
{
    version     2.0;
    format      ascii;
    class       volVectorField;
    location    "0.15";
    object      U;
}
// * * * * * * * * * * * * * * * * * * * * * * * * * * * * * * * * * * * * * //

dimensions      [0 1 -1 0 0 0 0];


internalField   nonuniform List<vector> 
6576
(
(0.0526654 -2.469 -0.0970903)
(-0.141163 -2.55192 0.118318)
(-0.0483853 -2.60749 0.0204975)
(0.0680805 -2.42028 -0.0947666)
(-0.00531281 -2.50827 0.00864833)
(-0.120257 -2.65268 0.120796)
(-0.0235484 -2.57194 0.0490411)
(0.0228947 -2.49759 0.000838239)
(0.0252919 -2.08569 -0.0169127)
(0.025291 -2.43319 -0.000775023)
(-0.0189797 -2.52757 -0.0269119)
(-0.0260008 -2.59923 -0.0222295)
(-0.00314315 -2.58267 0.00730738)
(0.0110511 -2.47972 -0.00137401)
(0.0937777 -2.43071 0.0373466)
(0.0157244 -3.03874 -0.0535904)
(0.100367 -1.4404 0.0553339)
(0.0265864 -2.86301 -0.0272826)
(0.0857637 -2.60061 0.0989682)
(0.0259343 -2.47016 0.00439171)
(0.0735212 -2.29321 0.0769027)
(0.00282995 -2.53368 0.0212741)
(0.0156384 -2.44287 0.0126234)
(-0.0082814 -2.50046 -0.0205083)
(0.0037414 -2.67135 0.0220907)
(0.0829089 -2.54816 0.0863317)
(0.100249 -2.49411 0.10282)
(-0.000625768 -2.43071 0.0231753)
(-0.00992517 -2.63469 -0.0502671)
(0.00518999 -1.61352 -0.0114992)
(-0.0797657 -2.61755 0.0948769)
(-0.0412774 -2.42593 -0.014809)
(-0.0151507 -2.58785 -0.00123201)
(0.0172958 -2.42492 0.0484603)
(0.0242737 -2.44324 0.0555039)
(-0.0291465 -2.09501 0.0165425)
(0.00546273 -2.73171 0.0208373)
(-0.0196157 -2.61068 0.0170808)
(0.0278167 -2.46695 0.04019)
(0.0156419 -2.45918 0.0284021)
(0.0028557 -2.1933 0.0517143)
(-0.0253073 -2.46003 0.0106788)
(-0.00237938 -2.34435 0.00874093)
(-0.0813446 -0.0608209 -0.107683)
(-0.0375299 0.0743185 -0.0258749)
(-0.00896458 0.0526894 -0.0175106)
(0.0398071 0.0430479 -0.00827097)
(-0.133405 -0.158742 -0.179237)
(-0.0254596 -0.017651 0.00928155)
(-0.00645061 -0.00512947 0.0291271)
(-0.0412369 0.0598664 -0.0332292)
(-0.0578981 -0.0120761 -0.0613992)
(-0.0075237 0.890773 -0.0445383)
(3.79551e-05 0.876311 -0.0156288)
(-0.00153444 0.879444 -0.0184411)
(-0.00331936 0.863688 -0.00601132)
(-0.00818342 0.856804 -0.0213327)
(-0.0187038 0.868218 -0.006998)
(-0.00236712 0.874255 -0.00529586)
(-0.0109313 0.904134 -0.066631)
(-0.0303241 0.883408 -0.0206494)
(0.0091007 0.907899 -0.097418)
(0.00307572 0.873992 -0.06166)
(0.00313241 0.889654 -0.07656)
(-0.00497271 0.897814 -0.0458619)
(-0.0177103 0.883517 -0.0211649)
(0.000146611 0.809594 -0.134659)
(-0.0148536 0.809938 -0.142138)
(0.00315393 0.824783 -0.139676)
(-0.00642152 0.853224 -0.13631)
(0.00335414 0.821545 -0.132854)
(0.00285125 0.851232 -0.129902)
(-0.000133266 0.840989 -0.111188)
(-0.161723 -1.34217 0.0799532)
(-0.24159 -0.807538 0.105854)
(0.0506107 -1.86623 0.000252004)
(-0.0452968 -1.02258 0.142947)
(-0.0549657 -1.41767 -0.0065493)
(-0.036125 -1.99234 -0.0838814)
(0.13354 -1.67989 0.207391)
(0.0144353 -0.718663 -0.0659285)
(-0.0437657 -0.611996 -0.178303)
(-0.0849576 -0.511533 -0.258083)
(-0.0191485 -0.670107 -0.243368)
(0.0066089 -0.72106 -0.157136)
(-0.118735 -0.579223 -0.148987)
(-0.118286 -0.584207 -0.235788)
(0.0459209 0.70787 -0.288114)
(0.159159 0.963334 -0.259587)
(0.037286 0.847339 0.0633043)
(-0.00702324 1.1159 0.533406)
(-0.366499 0.57389 0.43312)
(0.147392 0.953833 -0.0363015)
(-0.0433698 0.638039 0.0286794)
(-0.0510824 -0.00260785 0.0507069)
(0.0234778 0.0175898 0.0249894)
(-0.0370449 -0.00482732 0.0883489)
(0.0157604 0.0807312 0.0373496)
(0.0417814 0.0878422 0.00724212)
(0.0322973 0.0738563 0.0443451)
(0.00985084 0.0825661 0.0354227)
(0.00386787 -0.0064261 0.0469673)
(-0.00626289 -0.000784872 0.0323438)
(-0.000543761 0.00274011 0.0494306)
(-0.00125649 0.0140114 0.0390115)
(-0.00514179 0.000324756 0.0623245)
(0.00631514 0.0256434 0.0535079)
(-0.000379687 0.000176844 0.0620118)
(0.000340024 -0.00446878 0.0026395)
(-9.99365e-05 -0.00522323 0.00398885)
(-0.00478222 -0.000784062 0.00398789)
(0.00213694 0.00527597 -0.00332302)
(-0.0279157 0.0198015 0.0113008)
(-0.010195 -0.00344019 0.0110813)
(0.0572709 -1.91654 0.0343275)
(0.00125827 -2.05751 0.0235085)
(0.0674953 -2.03578 -0.00562237)
(-0.0221038 -2.0983 0.107619)
(-0.0139693 -2.11383 0.0997533)
(0.0416552 -2.08069 0.0578388)
(0.0419987 -2.06828 0.0886786)
(-0.0903584 -2.23794 -0.0300829)
(0.0968492 -2.47433 0.0915463)
(-0.0235047 -2.41668 -0.0350766)
(0.0294113 -2.54151 -0.00719984)
(-0.115962 -2.49276 -0.101504)
(0.178461 -2.69897 0.165363)
(-0.0969754 -2.4349 -0.0560247)
(0.0377216 -7.14786 -0.0520267)
(0.0134412 -6.9702 -0.0503319)
(0.0155741 -6.92455 -0.029504)
(0.0268278 -6.87783 -0.0892793)
(0.0544082 -7.08918 -0.112872)
(-0.025995 -6.42082 -0.0433246)
(0.00160434 -6.87888 -0.0497192)
(0.00306392 1.00432 1.86587)
(-0.0396221 1.24576 1.41016)
(0.0123844 1.24922 1.47739)
(-0.139339 0.587607 1.88452)
(0.0545131 0.773499 1.73453)
(-0.0621941 1.00322 1.35738)
(-0.124283 0.862932 1.57166)
(0.0760859 2.14102 2.80632)
(0.0366373 1.81742 3.61029)
(-0.124357 2.04837 2.95866)
(0.104027 1.35313 3.49295)
(0.0301607 1.38892 3.6122)
(0.0112851 1.63686 2.83811)
(0.0942549 1.63303 2.91776)
(-0.0277439 2.66922 2.14979)
(0.014586 3.05169 1.77919)
(0.0515239 2.96653 1.78894)
(0.164297 2.48126 2.46075)
(0.204008 2.70716 2.1373)
(0.31686 2.8343 1.95624)
(0.172718 2.49381 2.24637)
(0.10708 1.83657 2.64171)
(-0.0981204 1.47935 2.51997)
(0.0267771 1.55088 2.95977)
(0.0568733 1.28388 2.87159)
(-0.0989424 0.933841 2.73338)
(-0.227116 0.168062 3.23046)
(0.135318 0.843874 3.23442)
(-0.438311 0.151533 3.3542)
(0.024697 0.670869 3.22755)
(0.0362225 1.86079 1.0428)
(0.277862 1.62529 0.519824)
(0.0962634 1.12157 0.787659)
(0.196838 1.62083 1.96327)
(0.0859807 1.75103 1.51883)
(0.549107 1.7336 0.741323)
(0.528792 1.34486 0.96191)
(-0.207264 0.346891 1.31938)
(-0.115142 0.223104 1.00864)
(0.0458564 -0.189553 2.20402)
(0.0693023 0.0215307 1.22448)
(0.0220933 -0.331224 1.10428)
(0.315284 -1.20442 2.16563)
(0.31964 -1.47527 2.03566)
(0.356936 -0.526969 1.43201)
(0.434283 -0.285014 1.80358)
(-0.257045 -2.7594 -0.941376)
(0.142934 -2.81273 -1.17349)
(0.040582 -3.36387 -0.711176)
(-0.108249 -2.81422 -0.952317)
(0.356482 -2.778 -1.13898)
(0.00971954 -3.3425 -0.228568)
(-0.0333563 -3.35841 -0.276671)
(-0.0987076 -3.0288 -0.578375)
(0.0644083 -2.87987 -0.53997)
(0.0161568 -2.15572 -1.09139)
(0.0200217 -2.68515 -1.1633)
(0.122678 -2.01845 -1.3596)
(0.0729759 -2.33547 -1.33575)
(0.12733 -2.64225 -1.32796)
(0.20488 -1.93388 -1.2512)
(0.389477 -2.40759 -1.38281)
(0.0132479 -2.92522 -0.349459)
(-0.0935214 -2.4916 -0.740091)
(-0.087481 -2.76011 -0.615411)
(-0.0416653 -3.1062 -0.271465)
(0.021492 -3.10944 -0.338988)
(-0.11182 -2.75407 -0.628509)
(-0.0732024 -2.74443 -0.67287)
(0.0825538 -2.06936 -0.00829539)
(0.153298 -1.53725 -0.279649)
(0.0801232 -2.3606 0.086054)
(-0.119719 -2.58408 -0.573248)
(-0.304713 -2.5311 -0.973311)
(0.0319589 -2.10478 -0.874401)
(0.155624 -2.29357 -0.458767)
(-0.0945083 -6.90553 -0.214365)
(0.0902708 -6.73187 -0.172289)
(0.0290877 -6.61366 -0.213036)
(-0.0959403 -7.01885 -0.399241)
(-0.187313 -7.2337 -0.394563)
(-0.272082 -7.33435 -0.433034)
(-0.0818464 -6.71896 -0.358379)
(-0.0119522 -0.975554 -1.27763)
(-0.0464506 -0.938507 -1.65125)
(-0.0708302 -1.17472 -1.52936)
(-0.0488649 -0.664101 -1.29753)
(-0.0626507 -0.429124 -1.56553)
(-0.154038 -0.777183 -1.88702)
(-0.212354 -0.995264 -1.54347)
(-0.205257 -0.208916 -1.75718)
(-0.0177068 -0.573601 -1.49236)
(-0.0396785 -1.08368 -1.73489)
(0.0158396 -0.578076 -1.802)
(-0.00733915 -0.428329 -2.05528)
(0.14818 -0.948416 -2.03811)
(0.10136 -1.09143 -1.81341)
(0.0114082 -2.05951 -1.31672)
(-0.35987 -1.46879 -1.57837)
(-0.392607 -0.840686 -1.92261)
(0.218078 -1.51562 -1.85224)
(0.0659961 -2.09528 -1.54508)
(-0.357474 -2.04066 -1.76207)
(-0.418493 -1.68385 -2.09321)
(-0.15189 0.849545 -1.53733)
(0.0993688 -1.35281 -0.526085)
(0.174784 -0.390836 -0.849814)
(0.182794 -0.288878 -1.54425)
(-0.1381 0.485611 -1.96079)
(0.101958 0.013765 -1.84028)
(-0.315944 0.779158 -1.90574)
(0.0572843 2.20864 -0.645307)
(-0.0028221 1.64272 0.381283)
(0.259622 1.97043 -0.285037)
(-0.124474 1.54156 -0.731933)
(-0.0231649 1.12717 -0.389398)
(-0.0547794 1.26724 -0.332669)
(0.0679452 1.09572 0.00627404)
(-0.560839 1.42834 0.922629)
(-0.102037 1.60893 0.147845)
(-0.0119913 3.57728 0.771233)
(0.0201567 3.04507 1.67483)
(-0.111165 3.37648 1.13762)
(0.0254672 2.27728 1.65619)
(-0.142075 2.9298 1.15703)
(0.0680168 2.91306 2.09586)
(-0.0807154 3.15039 1.57459)
(-0.00574643 1.7153 0.433418)
(-0.0335652 1.6939 0.594088)
(-0.0375568 1.60437 0.699807)
(-0.0131065 1.58034 0.526502)
(0.00257224 1.65046 0.42761)
(-0.0160662 1.62718 0.545308)
(-0.0266474 1.5606 0.640506)
(-0.00144337 0.00152874 0.00589316)
(0.00184715 0.00347148 0.00515585)
(0.00160107 -0.0114524 0.00346876)
(-0.0038998 0.00510117 0.00760732)
(0.00292117 0.011171 0.00335346)
(0.0168551 0.0513776 0.00533548)
(-0.000989798 0.00661195 0.0134785)
(0.0114715 0.00589801 0.00372418)
(0.00237889 0.00710547 0.00636861)
(0.067008 0.0636113 -0.0108837)
(0.0327044 -0.0693477 -0.0264844)
(0.0119692 -0.174015 0.0190247)
(0.0856566 0.0723895 -0.0206475)
(0.105824 0.0789849 0.0183732)
(0.0151881 0.00577823 0.087996)
(-0.156911 0.0376949 0.0568915)
(-0.0949909 -0.373236 -0.174697)
(-0.214537 -0.0591755 0.277321)
(-0.100882 -0.772087 -1.02061)
(0.0936954 -0.453551 -0.954923)
(0.166047 -0.611075 -0.654253)
(-0.115337 -0.166138 0.125399)
(-0.0556939 0.0324086 -0.195256)
(0.48282 0.482274 -0.206899)
(0.33279 0.0721979 0.314257)
(0.00196411 -0.0429706 -0.0352294)
(0.0341145 0.0799153 -0.00642665)
(0.0853802 0.0377649 -0.0254967)
(0.284979 0.553236 -0.290915)
(1.06188 -1.08302 -0.289851)
(1.4572 0.42572 -0.10394)
(1.03889 -0.31982 0.270354)
(1.14501 -0.740526 0.0129597)
(0.380327 0.00772249 0.0489771)
(-0.579702 0.662191 -0.15458)
(-0.0121568 0.615119 0.356142)
(-0.0705552 0.629571 0.407689)
(0.00469023 0.652564 0.262437)
(-0.0452852 0.618969 0.410404)
(-0.00518821 0.589769 0.35764)
(-0.000339169 0.595605 0.267914)
(-0.00871569 0.637077 0.319224)
(0.0655688 -2.86346 -0.0162151)
(0.0401783 -2.76379 -0.0159419)
(-0.0784065 -2.15058 0.0157452)
(-0.00214719 -2.77107 0.21281)
(0.0322597 -2.63289 0.284857)
(-0.0325573 -1.62136 0.453005)
(-0.0414061 -1.6927 0.406916)
(-0.140896 -1.66676 0.70828)
(-0.606067 -1.71007 0.888727)
(-0.0187597 0.61569 0.785786)
(0.129125 0.836254 0.818129)
(0.0890327 0.932533 0.878823)
(-0.0917383 0.480393 0.526522)
(-0.158025 0.50625 0.450493)
(0.022559 0.561223 0.520663)
(-0.143785 0.676506 0.621312)
(-0.0848122 -0.275816 -0.208405)
(-0.132176 0.221507 0.246797)
(-0.190025 -0.120762 -0.344777)
(0.191639 0.64053 -0.536018)
(0.34006 0.538766 -0.921445)
(-0.0689852 0.174381 -0.472178)
(-0.0595541 0.0978919 -0.360034)
(-0.0345669 0.225858 -0.190529)
(-0.0561915 0.85448 -0.596212)
(-0.0928401 0.111231 0.0280094)
(0.0651383 0.593155 -0.521308)
(0.0185003 0.571789 -0.499709)
(-0.39327 0.0581143 0.081419)
(-0.443457 0.328052 0.0467277)
(-0.179888 0.82123 0.736911)
(-0.0643774 0.542989 0.64722)
(0.245401 -0.446309 0.180051)
(-0.023755 -0.050391 -0.0422743)
(-0.00964045 0.408723 -0.325537)
(-0.0870231 -0.176202 0.419037)
(0.0580847 0.393259 0.113912)
(-0.0109786 -0.733172 -0.104553)
(-0.0635954 0.0393231 -0.332988)
(-0.00496893 -0.396883 -0.485935)
(0.311091 -1.2951 -0.0407271)
(0.00586405 -0.00443761 -0.0107092)
(0.000278105 0.00536726 0.00397192)
(-0.00323745 0.00054523 -0.0109947)
(-0.00417956 0.00704408 -0.00890622)
(-0.000340249 0.00264602 -0.0240824)
(-0.00800467 -0.00265915 -0.0173752)
(-0.000784114 0.00395405 -0.0214622)
(0.000267954 0.000209908 0.00845161)
(-0.00147404 -0.000350497 0.00677429)
(-0.00281385 -0.000210676 0.00585874)
(0.00127577 0.00281513 0.00256392)
(0.000711316 0.00207238 0.00186664)
(0.012147 -0.0124977 -0.00344761)
(-0.00177099 -0.00322762 0.0059578)
(-0.000117047 0.00488273 0.00435836)
(0.000953486 0.00176434 0.00991123)
(-0.00919856 0.000950403 0.0420408)
(-0.0189921 0.0572593 0.0108129)
(-0.0178919 -0.0721562 0.0602636)
(0.0368561 -0.0428185 -0.0473408)
(0.0277221 -0.0489183 0.011319)
(0.0422084 0.0388065 -0.0860392)
(-1.00256e-05 0.0153309 -0.0343738)
(0.148787 0.293126 -0.104175)
(-0.188477 0.391039 -0.00587546)
(-0.126731 -0.0307237 -0.214554)
(-0.0884787 -0.0458056 0.255867)
(0.136418 0.0091653 0.232)
(-0.257096 0.271566 0.0930879)
(0.131185 0.017152 0.103217)
(0.0486353 2.08825 1.0685)
(0.0264667 2.20555 1.44058)
(-0.0778066 2.16476 0.676801)
(0.0803953 2.58709 0.968894)
(-0.124994 2.90009 0.147938)
(0.0180488 3.08886 1.02172)
(-0.10205 3.40167 0.506854)
(0.0209214 2.64575 0.703044)
(0.0555197 2.52759 1.10616)
(0.0383503 1.53206 1.43052)
(-0.0418286 1.39771 1.36593)
(-0.0226993 1.11663 1.26829)
(-0.0419871 1.00505 1.45818)
(-0.0287326 1.07387 1.93333)
(0.00870562 1.27264 1.35914)
(-0.0495377 1.40567 1.58902)
(-0.301925 -0.550726 1.33456)
(-0.202476 -1.583 1.81836)
(0.309063 0.387485 1.72195)
(-0.087355 -2.80301 1.15299)
(0.528322 -1.65414 1.54946)
(0.0972527 -1.32666 1.52138)
(0.831888 -0.225688 1.81463)
(0.735456 0.605854 1.9199)
(0.224925 -0.0628503 1.6278)
(-0.00316634 -2.78848 -0.0813101)
(-0.00665118 -2.78979 -0.0626072)
(-0.0263769 -2.85123 -0.0690493)
(-0.00931864 -2.77466 -0.0926964)
(0.0335596 -2.64933 -0.085387)
(0.0245115 -2.65367 -0.0925337)
(-0.0455166 -2.76934 -0.117109)
(-0.00137732 -3.01338 -0.0374111)
(0.0051665 -2.97533 -0.0261681)
(-0.00225752 -2.98341 -0.0381709)
(-0.00161708 -3.01558 -0.0512191)
(-0.00617294 -3.01453 -0.0462324)
(-0.00980455 -2.99564 -0.0431776)
(-0.00580577 -2.99234 -0.0457647)
(0.0446353 2.69302 -0.702984)
(-0.272463 2.76507 -1.23117)
(-0.146583 2.63911 -1.04695)
(0.0212872 2.82355 -0.666734)
(0.0158929 2.55143 -0.60733)
(-0.16451 2.84728 -1.09859)
(-0.0813713 2.6391 -0.951224)
(0.0159323 2.53838 -0.721096)
(0.0411352 2.41987 -0.906064)
(0.00712074 2.23024 -0.944809)
(-0.0736038 2.47171 -0.651808)
(-0.070642 2.47681 -0.415384)
(-0.0879017 2.30205 -0.397363)
(-0.0838971 2.25649 -0.627582)
(0.00130795 2.38835 -0.247901)
(-0.0249316 2.26439 -0.360785)
(0.00612833 2.27734 -0.34158)
(-0.00556463 2.34417 -0.117814)
(0.0155612 2.44319 -0.0919149)
(0.0121684 2.36019 -0.24232)
(0.0272024 2.32662 -0.228005)
(0.0149901 2.11149 -0.0631574)
(-0.00492493 2.07032 -0.059311)
(-0.00949805 2.02345 -0.0244536)
(0.00320774 2.1342 -0.0246819)
(-0.0170545 2.08509 -0.0230234)
(-0.0158018 2.01276 0.0195458)
(-0.000683328 2.06037 0.0522018)
(-0.0227484 2.06321 0.0196759)
(-0.021435 2.1248 0.0294017)
(0.00031256 1.89816 -0.0561434)
(-0.00925644 1.85893 -0.0576723)
(0.000180876 1.83595 -0.0587052)
(-0.00466843 1.85162 -0.019071)
(0.00730388 1.87299 -0.0233884)
(-0.0110222 1.86655 -0.0251332)
(0.00145615 1.89166 -0.0323631)
(-0.0414029 1.07764 0.0257397)
(-0.014279 1.80306 -0.0098138)
(-0.0636604 1.73274 0.0457826)
(0.00352791 2.10439 -0.0297762)
(-0.0460618 1.71409 0.0319338)
(-0.016673 2.06076 -0.02785)
(-0.077936 1.91644 0.0702471)
(0.0156395 1.86223 -0.110263)
(0.00265993 1.86037 -0.0851579)
(-0.042449 1.85322 -0.055981)
(-0.0117005 1.88941 0.0118265)
(0.0270653 1.92105 -0.0601238)
(0.00407206 1.90031 -0.0501826)
(-0.0687383 1.87488 0.0386859)
(-0.00973038 1.69504 -0.02556)
(0.00933311 1.69593 -0.0254756)
(-0.0319861 1.71323 0.0210982)
(0.037676 1.82053 0.0249847)
(0.0307354 1.77317 -0.0133497)
(0.0283833 1.76804 -0.0553938)
(-0.0244365 1.79828 0.00116484)
(-0.0393288 2.0235 0.0164154)
(0.0177356 2.11325 0.00887707)
(-0.0109103 1.86777 0.0166985)
(-0.0708411 1.85014 0.0758952)
(-0.0742961 1.68925 0.0225021)
(-0.048173 1.73846 0.0478474)
(-0.0398875 1.79189 0.0446902)
(0.0346805 1.70424 -0.0561403)
(-0.0328252 1.32727 -0.00455569)
(0.0426151 1.72128 -0.0986358)
(-0.0773249 1.64717 0.0644607)
(-0.113932 1.01557 0.0160091)
(-0.0514192 1.72229 0.0316528)
(-0.00728602 1.61108 -0.0517021)
(-0.00645119 1.67233 -0.0253678)
(-0.000524697 1.58723 -0.0806967)
(0.00864679 1.66517 -0.0584804)
(-0.0036999 1.61474 -0.0699819)
(-0.00589796 1.58519 -0.0744454)
(0.0114775 1.64197 -0.0800115)
(-0.00200909 1.64599 -0.0123877)
(-0.00659149 1.66551 -0.0167195)
(0.00101771 1.65217 -0.0145616)
(-0.00811416 1.69033 -0.0502069)
(0.00847881 1.68731 -0.0636946)
(-0.0138807 1.69336 -0.0480979)
(0.00164551 1.67444 -0.054641)
(-0.00983071 1.68055 -0.0138586)
(-0.00588866 1.6198 -0.0355446)
(-0.0173503 1.69791 -0.0442127)
(-0.00468877 1.58936 -0.0858215)
(-0.0165188 1.63994 -0.121738)
(0.00424337 1.62597 -0.0933701)
(0.00215962 1.57148 -0.0988199)
(-0.00150887 1.57809 -0.12585)
(-0.0026015 1.60649 -0.115278)
(-0.0134357 1.61959 -0.138413)
(-0.0159641 1.63214 -0.139705)
(-0.00105809 1.622 -0.106001)
(-0.00065203 1.56409 -0.0964361)
(-0.0056086 1.5826 -0.0813503)
(-0.00382423 1.57406 -0.116642)
(0.00547987 1.56432 -0.140168)
(-0.00794567 1.59801 -0.149782)
(-0.000350165 1.58528 -0.13425)
(-0.00393249 1.62117 -0.171056)
(-0.00218689 1.59844 -0.166488)
(-0.0033508 1.58494 -0.0837932)
(-0.000167964 1.53505 -0.140109)
(-0.000664231 1.53489 -0.141683)
(0.0145461 1.52513 -0.168359)
(0.0160618 1.51454 -0.184044)
(0.00820964 1.53765 -0.191797)
(0.019485 1.53526 -0.222677)
(0.036294 1.50727 -0.212992)
(0.00472101 1.63935 -0.618509)
(-0.0173416 1.67608 -0.607606)
(0.0414582 1.78186 -0.616574)
(-0.00488301 1.70382 -0.754662)
(0.0127375 1.61567 -0.722872)
(0.0302343 1.81292 -0.76321)
(0.0239112 1.67114 -0.675319)
(0.0164406 1.70788 -0.6016)
(0.0859508 1.84694 -0.604713)
(0.0227357 2.21748 -1.11853)
(0.0481992 2.34499 -1.2945)
(-0.0120231 2.22755 -1.27483)
(0.0437332 2.02456 -1.39426)
(0.131624 1.82726 -1.34787)
(0.0841605 2.08127 -1.30454)
(0.139553 1.76454 -1.22743)
(-0.0201362 1.32991 -1.63631)
(-0.122507 1.58312 -1.48691)
(-0.0657589 1.8346 -1.38061)
(0.0247341 1.49705 -1.60239)
(-0.0273281 1.26132 -1.61794)
(-0.154602 1.35302 -1.4612)
(-0.0987043 1.54946 -1.32886)
(-0.0173647 2.22974 -1.39392)
(0.000860486 1.89276 -1.31889)
(-0.01616 2.13817 -1.23333)
(-0.0692962 1.85103 -1.84119)
(0.0534005 1.76229 -1.6916)
(0.0384176 1.96185 -1.64639)
(-0.0315251 1.99983 -1.89511)
(-0.0754211 1.07026 -0.708)
(-0.199617 1.27766 0.71203)
(0.185416 0.921998 -0.174456)
(-0.0216526 1.46066 -0.627987)
(-0.00668616 1.93882 -0.283126)
(-0.456249 -0.843193 0.295409)
(-0.256421 -0.843924 0.411555)
(-0.0161285 -0.346038 0.375415)
(0.0969278 -0.941036 -0.738312)
(0.0452311 -0.959111 -1.12853)
(-0.13854 -1.34419 0.00841819)
(-0.228856 -0.679233 -0.26745)
(0.105676 -2.16019 1.16465)
(0.23099 -2.41289 1.62268)
(-0.052316 -3.10483 1.56127)
(-0.0509253 -2.9689 0.845534)
(-0.064184 -3.41611 1.19221)
(0.166705 -2.62977 1.17224)
(0.0611194 -2.36741 0.701048)
(0.105282 -4.29478 1.18308)
(0.244626 -5.1479 1.84802)
(0.0222709 -5.86512 2.26337)
(-0.116847 -5.3608 1.63919)
(0.145805 -6.64299 2.33242)
(0.220647 -5.51878 1.9004)
(-0.101761 -4.68824 1.05276)
(0.0244579 0.0897592 0.220178)
(-0.00365781 0.127697 0.209001)
(0.00771196 0.0986236 0.206264)
(0.00557493 0.143118 0.235625)
(-0.0112725 0.173704 0.193238)
(-0.0259219 0.134188 0.175509)
(-0.000454374 0.111768 0.217976)
(0.00156328 0.189903 0.173097)
(-0.00787462 0.209965 0.205555)
(-0.00650567 0.18434 0.202194)
(0.0265258 0.21605 0.189829)
(-0.00865388 0.255414 0.205283)
(0.0159451 0.225353 0.194697)
(-0.0162775 0.265468 0.212155)
(-0.00867475 0.239405 0.20942)
(-0.00869047 0.207309 0.20923)
(-0.0188512 0.295826 0.327766)
(-0.0650793 0.313171 0.350101)
(-0.00587976 0.301118 0.311901)
(-0.100527 0.332438 0.252499)
(-0.00760757 0.256693 0.219486)
(-0.0177212 0.28243 0.207546)
(0.0470327 0.223601 0.185973)
(-0.000121861 0.690077 0.215839)
(0.0141509 0.702425 0.199652)
(0.000813169 0.682527 0.17182)
(-0.0376236 0.585149 0.268004)
(0.0289028 0.635844 0.225442)
(0.0543748 0.663111 0.213573)
(-0.00516572 0.632521 0.25332)
(0.0356687 0.632222 0.155054)
(-0.0129594 0.64576 0.174384)
(0.00355162 0.611261 0.1423)
(0.0341182 0.697851 0.174337)
(-0.0425583 0.737129 0.237495)
(0.0211766 0.694911 0.167772)
(-0.017601 0.710902 0.204684)
(0.0104077 0.681074 0.0859619)
(0.00221552 0.69408 0.0848548)
(0.00237256 0.669654 0.0957367)
(0.010269 0.633237 0.128378)
(-0.0261704 0.596858 0.151075)
(0.00282489 0.649217 0.10824)
(0.028847 0.669585 0.0969702)
(0.0597616 0.612954 -0.0837527)
(-0.016862 0.617749 -0.0316395)
(-0.00210118 0.539891 -0.173042)
(0.0332283 0.579667 -0.149914)
(-0.0665193 0.640862 -0.0194448)
(0.00204764 0.515281 -0.300695)
(-0.00678549 0.546131 -0.205265)
(0.0146433 0.351931 -0.477742)
(-0.0377942 0.343777 -0.564804)
(0.00117652 0.449166 -0.37292)
(0.0617471 0.624125 -0.174865)
(-0.0653813 0.66122 -0.118011)
(-0.0023292 0.390148 -0.420954)
(-0.00294652 0.401431 -0.401268)
(-0.0112115 0.545327 -0.216784)
(-0.139277 0.63779 -0.0937834)
(0.0341565 0.726415 -0.0975771)
(0.102422 0.700616 -0.141811)
(-0.0285767 0.692741 0.0176311)
(-0.0192055 0.628854 -0.0248936)
(-0.00742356 0.648502 0.0350769)
(-0.045028 0.60205 -0.0294427)
(-0.052446 0.584632 0.0328061)
(0.0348332 0.656175 -0.155562)
(-0.0258339 0.660788 -0.0896059)
(0.0409651 0.0490661 -0.292434)
(-0.0394802 0.077758 -0.0964839)
(-0.017957 0.493755 -0.231573)
(0.0280136 0.472952 -0.00343987)
(0.017769 0.546449 -0.0680561)
(0.0327708 0.258113 -0.287356)
(-0.145253 0.140154 -0.311136)
(0.0171294 0.427356 -0.128219)
(-0.0123278 0.421046 -0.0743845)
(0.0347928 0.520097 -0.0593565)
(0.0135174 0.350292 0.00565559)
(-0.0884163 0.291634 0.00540186)
(-0.0074867 0.467598 -0.0211717)
(-0.0864314 0.33455 -0.139738)
(-0.0105901 0.570786 -0.152885)
(0.0149832 0.495872 -0.137296)
(0.0383415 -0.146612 -0.0687951)
(0.104363 0.23261 -0.0186462)
(0.0196039 0.191738 -0.0536986)
(0.0797828 0.321615 0.258699)
(-0.10377 0.367705 -0.00103803)
(-0.173113 0.397331 -0.204514)
(0.392525 -0.0730972 -0.172816)
(0.15201 0.298535 0.283776)
(0.350613 0.198813 -0.14653)
(-0.0315843 0.309672 0.187697)
(-0.0830691 -0.102322 -0.478784)
(0.00350032 -0.428199 0.267798)
(0.210041 -0.129639 0.152484)
(0.0257301 -0.722535 0.515438)
(-0.365701 -0.647282 0.375114)
(0.166669 -0.222174 -0.120444)
(-0.433302 -0.93723 0.320046)
(-0.126421 -0.601336 -0.108486)
(0.57583 -0.099211 -0.347103)
(0.191818 0.245475 -0.213852)
(-0.620811 -0.595343 0.685542)
(-0.528978 -0.522171 0.483217)
(-0.24661 0.00100578 0.241952)
(0.55379 -1.79133 0.670194)
(-1.34862 -0.082951 0.0340059)
(-1.4823 0.166818 -0.677356)
(-0.152387 0.391615 0.734065)
(0.0635972 0.154677 0.67227)
(-0.188096 -0.0658865 0.516288)
(-0.0522517 0.510011 0.135392)
(1.25234 -1.35404 0.0381408)
(0.610733 -0.0904408 0.308982)
(0.399603 1.12407 0.714572)
(-0.0272398 -0.26565 0.251634)
(0.0941411 -0.0413537 0.332506)
(0.138939 0.453005 0.697767)
(-0.141937 0.252872 0.758864)
(-0.311831 -0.317299 0.770875)
(-0.0965373 -0.000515444 -0.0247895)
(-0.126075 -0.118192 -0.0741006)
(0.0548171 -0.0686504 0.100661)
(0.0720358 -0.027443 0.0525428)
(-0.0306655 0.00557206 0.0212982)
(-0.157666 -0.0902577 -0.2148)
(-0.0894184 -0.0472227 -0.142298)
(0.000107786 0.0141228 -0.0147021)
(-0.00399462 0.0108314 -0.00312737)
(-0.0056168 0.00794505 0.00334627)
(0.00172104 0.0325781 -0.0769055)
(0.00973235 0.00847857 -0.070282)
(-0.000683189 0.0269766 -0.0602197)
(0.0145968 -0.0135192 -0.0505896)
(-0.00758494 -0.00588938 -0.0747037)
(0.0655145 -0.0513659 -0.132842)
(0.0146547 0.0200683 -0.0919339)
(0.00864874 -0.0065334 -0.0292228)
(0.00524374 -0.0051827 -0.0241354)
(-0.000929212 0.0115527 -0.0192144)
(0.0213052 0.0230552 -0.0378252)
(0.00303089 -0.000559705 -0.0341229)
(-0.016656 0.0348331 -0.0346825)
(0.0323906 0.0547098 -0.0230865)
(0.0156314 0.00683693 -0.0339959)
(0.0724783 0.0574968 -0.0651665)
(0.000309782 4.44932e-05 -0.0217627)
(-0.00489873 0.000188518 -0.0258103)
(0.00935948 0.0101026 -0.0225509)
(0.00818284 0.00865905 -0.0854261)
(0.0159833 0.00127108 -0.0941718)
(0.0138847 0.00147114 -0.105219)
(0.00688038 0.0331029 -0.107124)
(-0.0365744 -0.036279 -0.153414)
(-0.0414692 -0.0239027 -0.095641)
(-0.0240254 0.0221377 -0.151892)
(-0.0322027 0.0634212 -0.155682)
(-0.160489 -0.119749 -0.274384)
(-0.00536825 0.0074597 -0.0446109)
(-0.00858679 -0.000259569 -0.0528031)
(-0.0140469 -0.000152856 -0.0624778)
(-0.0034153 0.00780002 -0.0663292)
(0.00660914 0.000334224 -0.0689747)
(-0.0101819 0.00943255 -0.0730938)
(0.0176169 0.0265195 -0.0854805)
(0.00827777 0.0233312 -0.0320637)
(-0.000548924 0.0311801 -0.0651346)
(0.00782183 0.0260147 -0.0403934)
(-0.014538 -0.0231354 -0.224935)
(-0.000605604 -0.00298815 -0.174189)
(0.00106317 -0.00585569 -0.231034)
(0.0381252 0.00343477 -0.291421)
(-0.00169076 0.0585409 -0.208619)
(-0.013596 0.106273 -0.248614)
(0.0458019 0.0378339 -0.268154)
(0.0300112 0.0417511 -0.0883238)
(0.0532183 0.0574007 -0.123158)
(-0.00866141 0.0497187 -0.107967)
(0.011873 0.0230518 -0.147576)
(0.00106403 0.0557083 -0.139415)
(0.0529032 0.0988257 -0.0922964)
(0.0126102 0.0603242 -0.059607)
(-0.0256204 0.14534 -0.0266806)
(-0.0281703 0.0200594 -0.0212512)
(-0.025021 0.124651 -0.0142908)
(0.0392353 0.0211875 -0.100958)
(0.0450824 0.0274125 -0.0596073)
(-0.00858344 0.108004 -0.0208045)
(-0.0363924 0.104641 -0.0404859)
(0.00859316 0.214393 -0.0992515)
(-0.0349425 0.219266 -0.123537)
(-0.0280212 0.109946 -0.0538379)
(0.0432202 0.0675151 -0.158074)
(0.0295129 0.097672 -0.118451)
(-0.00269492 0.236659 -0.152639)
(0.0257384 0.237796 -0.109044)
(-0.0723873 1.11768 -0.613849)
(-0.0226559 1.13946 -0.655286)
(-0.0206374 1.21173 -0.850515)
(-0.0155939 1.17248 -0.720451)
(-0.0272431 1.31363 -0.759216)
(0.0118992 1.2811 -0.823224)
(0.0335166 1.3107 -0.881628)
(-0.0850832 0.524786 -1.27746)
(-0.147561 0.413152 -1.20744)
(-0.0445467 0.429597 -1.25082)
(0.200306 0.274386 -1.48524)
(0.144282 0.102911 -1.45676)
(0.151994 0.137635 -1.06866)
(-0.0065245 0.341935 -1.10385)
(-0.00366852 1.13798 -1.25473)
(-0.000517972 1.14675 -1.30794)
(0.00279137 1.24243 -1.2829)
(0.0175928 1.27876 -1.09871)
(0.0407297 1.25559 -1.05112)
(0.0216045 1.34697 -0.967807)
(-0.00404994 1.37391 -1.06487)
(0.0525845 1.31528 -1.57971)
(-0.0169885 1.37931 -1.26305)
(-0.00187465 1.34742 -1.44178)
(0.0120074 1.21714 -1.29237)
(-0.0178662 1.33946 -1.25429)
(0.0162048 1.18443 -1.41934)
(-0.0293114 1.3128 -1.35135)
(0.0142402 1.34883 -1.40381)
(-0.00126744 1.3098 -1.48146)
(0.0361765 2.41387 -2.42112)
(0.00951859 2.26421 -2.60982)
(-0.0129486 1.74178 -1.80885)
(-0.0791324 1.28229 -1.73401)
(-0.121465 1.38999 -1.74237)
(-0.22176 1.43065 -1.6795)
(-0.282074 1.56534 -1.71725)
(-0.446611 1.78539 -2.75797)
(-0.404616 2.2735 -2.74606)
(-0.0124173 -3.73651 -0.574193)
(0.233151 -3.62836 -0.666733)
(-0.116437 -3.49219 -0.839976)
(-0.288701 -3.6244 -0.427862)
(0.16323 -3.42272 -0.380248)
(-0.420527 -3.47276 -0.0826797)
(0.166395 -3.23424 -0.0837667)
(-0.0254924 0.810832 3.7335)
(-0.0445829 1.22241 3.60704)
(0.0168692 1.01661 3.75239)
(0.00169264 1.5346 3.48312)
(0.0724339 1.55855 3.51435)
(0.118438 1.23059 3.56906)
(0.0190442 1.06643 3.6249)
(-0.189477 0.152931 3.99428)
(-0.144702 -0.379927 4.54899)
(-0.00515471 0.555836 3.30382)
(-0.143438 -0.165057 3.94102)
(-0.0283873 -0.624859 4.38685)
(-0.0347308 -0.702002 3.72107)
(-0.0924729 -0.0042742 3.15899)
(-0.220469 0.18485 2.67037)
(0.0724943 1.30941 2.12961)
(-0.0655439 2.52508 1.83596)
(0.0112568 1.23508 3.2729)
(0.0417864 1.93375 2.72604)
(-0.000470952 2.30225 0.318824)
(-0.0251101 2.5959 0.524654)
(-0.0400047 2.51058 0.442641)
(-0.054871 2.36334 0.506139)
(-0.0041556 2.23519 0.615217)
(-0.0193529 2.46201 0.679258)
(-0.0536612 2.51485 0.549302)
(0.0382984 2.21219 0.259899)
(-0.0195663 2.14753 0.221586)
(0.065337 2.22567 0.308286)
(-0.0260095 2.1573 0.265514)
(-0.020388 2.12269 0.35196)
(0.0125314 2.19858 0.368086)
(0.00358263 2.20048 0.295115)
(-0.00622968 1.79169 0.0951487)
(-0.00549193 1.78577 0.125737)
(-0.004017 1.80122 0.0324264)
(-0.0153357 1.78782 0.113981)
(-0.0416184 1.83171 0.0828313)
(-0.0140262 1.8212 0.0592287)
(0.0167674 1.81074 0.114394)
(-0.00829734 1.18838 0.0308531)
(-0.0351515 1.81604 0.0415025)
(-0.0598745 1.76895 0.0702558)
(-0.000377168 2.15168 -0.0213702)
(-0.0155842 1.82439 0.0130253)
(-0.0232131 2.06944 0.0205442)
(-0.0540489 1.94289 0.07585)
(-0.00568301 1.85891 -0.0171308)
(0.00770988 1.88864 0.0306153)
(-0.0137551 1.88568 0.0331385)
(-0.0298538 1.84726 0.0401113)
(-0.00718221 1.83067 0.0487909)
(-0.0363322 1.85891 0.0537911)
(-0.0645608 1.86469 0.0881323)
(0.0410914 1.84113 -0.00228047)
(0.0076205 1.44928 -0.0111349)
(-0.0341395 1.89933 -0.0727037)
(0.0191725 1.89623 0.00237439)
(-0.0328232 1.88738 -0.00365735)
(-0.0364243 1.88871 -0.0147046)
(0.00659958 1.92704 0.00258089)
(0.0740172 2.0051 0.0548284)
(-0.0193368 1.85962 0.0191636)
(0.00501741 1.87146 -0.0126232)
(-0.00637291 1.88879 0.00849948)
(-0.0256988 1.87756 0.0230687)
(-0.0286589 1.8832 0.0292564)
(-0.0402047 1.36355 0.0184983)
(-0.00919231 1.87796 -0.0106841)
(0.0104002 2.09576 0.0263754)
(0.00347385 1.87042 -0.00995775)
(0.0163426 1.91345 -0.0240991)
(0.0341614 1.92984 -0.0721154)
(0.0116204 1.90062 -0.0108934)
(0.049482 1.96974 -0.0598728)
(-0.0839477 1.86573 0.0363382)
(0.00277722 1.91526 -0.0457575)
(-0.0660605 1.79408 0.0448468)
(0.00637619 1.94625 -0.108114)
(-0.00263119 1.91405 -0.146338)
(-0.0147299 1.95094 -0.108429)
(-0.00272792 1.88012 -0.146755)
(-0.0109531 1.88077 -0.145295)
(-0.0249987 1.94027 -0.102819)
(0.00220918 1.90183 -0.111434)
(-0.0157246 1.6621 -0.127844)
(-0.0276807 1.6738 -0.129531)
(0.00133816 1.68085 -0.138865)
(0.00769266 1.736 -0.122365)
(-0.00922725 1.74113 -0.131822)
(-0.033542 1.73282 -0.11448)
(-0.00987624 1.68985 -0.112782)
(-0.00535624 1.5999 -0.223151)
(-0.0153314 1.63874 -0.214289)
(-0.00320986 1.61219 -0.229129)
(0.0134054 1.68599 -0.281516)
(-0.0123315 1.69313 -0.251391)
(-0.0205939 1.69946 -0.244871)
(0.00663706 1.66247 -0.266619)
(-0.00456237 1.56704 -0.140412)