/*--------------------------------*- C++ -*----------------------------------*\
| =========                 |                                                 |
| \\      /  F ield         | OpenFOAM: The Open Source CFD Toolbox           |
|  \\    /   O peration     | Version:  v2012                                 |
|   \\  /    A nd           | Website:  www.openfoam.com                      |
|    \\/     M anipulation  |                                                 |
\*---------------------------------------------------------------------------*/
FoamFile
{
    version     2.0;
    format      ascii;
    class       surfaceScalarField;
    location    "0.25";
    object      alphaPhi0.water;
}
// * * * * * * * * * * * * * * * * * * * * * * * * * * * * * * * * * * * * * //

dimensions      [0 3 -1 0 0 0 0];
oriented        oriented;


internalField   nonuniform List<scalar> 
49400
(
-5.6623e-06
6.24398e-09
5.61597e-06
4.0088e-08
1.30562e-05
3.59767e-06
-2.23161e-05
1.28606e-05
2.01787e-07
-3.42068e-06
1.7315e-05
-8.27839e-06
2.02224e-05
-2.00454e-05
-2.0766e-05
5.09417e-05
-3.4185e-07
8.08341e-06
1.95869e-05
-4.99864e-05
-1.54894e-07
-6.13389e-07
-1.22896e-05
2.3457e-07
1.21447e-05
-8.97422e-08
2.62935e-05
1.15553e-05
-5.01383e-05
2.59147e-05
-1.31246e-05
1.50677e-06
2.37625e-05
-1.32612e-05
4.6913e-08
2.94643e-05
-3.11702e-05
5.68857e-05
-2.68277e-05
4.47221e-07
2.64016e-05
-2.10973e-08
9.19643e-06
1.56148e-05
-5.16389e-05
5.00437e-07
9.14321e-06
4.11677e-05
2.27322e-05
-4.82851e-05
1.73244e-05
5.02448e-05
7.67453e-06
-7.39634e-06
2.22247e-07
-3.70892e-06
2.05267e-05
6.23594e-06
9.09991e-06
1.98515e-05
8.84499e-06
4.77165e-07
-2.00221e-05
4.93937e-05
3.06532e-07
-4.42682e-14
2.92524e-13
-1.36353e-13
-2.11788e-13
1.10651e-12
-7.3114e-13
-6.02194e-13
-2.53171e-12
-1.49961e-11
-4.32612e-13
9.2558e-14
-3.57649e-14
1.56331e-13
-1.90459e-12
-1.07133e-11
2.09563e-12
-3.60399e-11
1.6871e-12
-1.83686e-12
-4.5022e-12
7.11825e-12
-5.21956e-12
-4.44538e-12
1.34664e-11
-1.6208e-12
-1.99317e-12
2.04809e-14
5.98756e-12
-6.96055e-12
3.83209e-12
-5.23168e-12
-1.23118e-12
5.27131e-12
-1.47831e-12
4.09359e-10
1.90236e-11
-3.49123e-10
-2.39133e-11
-4.58949e-10
-2.75242e-10
1.17153e-09
-6.75569e-10
2.64105e-10
1.88131e-10
3.36485e-10
-8.63215e-10
1.76217e-10
-1.4869e-11
-2.15735e-10
1.17737e-10
-5.55707e-10
1.84487e-10
5.25362e-10
-2.64608e-10
-2.84111e-10
4.8206e-10
-2.52683e-10
1.30624e-10
-8.39803e-11
1.13383e-09
4.58766e-10
7.71584e-11
-7.39808e-10
3.27894e-10
3.42096e-10
2.8512e-10
-4.83191e-10
4.37604e-10
-2.75372e-08
-2.36859e-08
-8.51557e-09
6.21127e-08
-3.84463e-09
-4.81068e-08
2.67155e-08
-2.97811e-08
3.73324e-09
6.3707e-08
3.50631e-08
-1.44576e-07
8.0218e-08
1.20786e-08
1.04575e-08
-3.63249e-09
8.36677e-08
6.8904e-17
-8.52623e-18
-5.7589e-17
4.34011e-17
-2.19744e-17
6.68035e-18
9.94318e-17
-1.10041e-17
-1.49677e-17
1.19039e-16
-5.68236e-18
-1.53056e-16
3.86201e-17
1.49627e-16
-3.68927e-17
9.13019e-17
-4.48673e-17
-4.90768e-14
-1.04724e-12
3.34775e-12
-2.02487e-12
-3.79924e-12
2.8591e-12
-1.73726e-13
4.80001e-12
-1.00661e-11
-2.03417e-12
-2.13858e-12
4.61164e-12
-5.63792e-12
-1.54791e-12
2.27726e-12
-7.66394e-12
2.587e-12
-2.31193e-06
-1.06166e-05
-5.86366e-06
1.92659e-05
9.49515e-08
-2.37288e-06
-3.08685e-08
-1.3182e-05
2.65335e-06
2.8815e-06
2.70234e-06
-7.89542e-06
2.84967e-06
-1.37189e-14
-1.03682e-05
7.52928e-06
-2.0844e-05
1.10597e-12
-3.06163e-13
-7.68453e-13
8.02645e-13
-1.74719e-12
-2.52838e-13
4.49767e-12
-8.06216e-13
-6.14741e-13
3.74457e-12
6.61799e-13
-4.05739e-12
1.9527e-12
3.09155e-12
-1.46863e-12
3.94813e-12
-8.36089e-13
-2.48008e-21
-3.6559e-21
-1.98735e-21
5.53155e-21
-6.51103e-22
-8.83393e-21
9.69524e-22
-2.24958e-20
-4.96507e-22
2.82581e-20
1.71135e-20
-1.65341e-19
5.57493e-21
6.13943e-22
5.98859e-21
-1.86966e-20
2.66158e-21
2.35813e-14
1.16848e-13
-4.67868e-14
-2.6475e-13
9.02075e-14
-2.0499e-13
3.42722e-14
-2.48542e-13
3.16823e-13
-3.26571e-13
3.93986e-13
-3.72569e-13
2.66059e-13
-1.1357e-12
4.65709e-14
-5.99477e-14
3.18643e-14
1.76638e-08
1.87313e-08
2.25119e-08
-7.37481e-08
-4.08057e-10
7.34621e-09
2.72677e-09
8.24137e-09
1.65008e-09
-6.49156e-09
-7.42745e-09
1.30735e-08
-2.39261e-08
6.32108e-09
-1.41258e-08
7.83341e-09
-2.80961e-08
1.06746e-21
-1.03134e-22
-3.89607e-21
1.27035e-22
-3.27249e-21
-1.06138e-21
2.97311e-21
-1.09642e-22
-1.86797e-20
-3.23122e-20
9.00758e-21
6.73514e-22
2.66616e-20
-1.56199e-19
3.02584e-21
6.93248e-21
5.99426e-21
1.72513e-22
9.29071e-22
1.5924e-21
2.35046e-22
2.62715e-21
2.97882e-23
-4.76374e-25
-9.94914e-23
-2.39237e-25
-5.8085e-23
-3.35219e-23
5.81695e-23
-1.97801e-25
-3.32965e-22
-4.48748e-22
1.26762e-22
1.45792e-23
3.48071e-22
-2.30161e-21
-4.72537e-23
4.19834e-23
-2.83496e-23
1.6416e-22
1.39875e-21
-1.02627e-22
-4.08683e-21
1.82876e-22
-3.49673e-22
-7.96459e-23
-2.65524e-22
-1.93462e-24
-1.0048e-21
7.7781e-20
8.03836e-20
7.52084e-20
-3.81095e-19
-4.08152e-21
1.81733e-20
3.09146e-21
3.2768e-20
-5.37381e-21
-1.47998e-20
-1.62835e-20
2.9534e-20
-4.93407e-20
7.32232e-21
3.04746e-20
-5.34607e-20
2.28796e-20
4.40787e-20
-1.49097e-18
-4.42612e-20
2.17891e-19
-2.11368e-18
4.06891e-19
3.3783e-19
5.35154e-19
-7.99592e-18
4.59385e-19
-9.14148e-19
-5.00436e-19
-1.81215e-19
4.16494e-19
-8.61485e-19
4.3795e-19
-2.69906e-18
3.32358e-10
-3.33898e-11
-5.76591e-10
2.8736e-10
-3.40799e-10
-2.65243e-10
9.60748e-10
-3.57767e-11
-3.21036e-10
-1.65561e-10
1.81226e-10
-3.84509e-11
3.34032e-10
-7.81362e-10
-1.8738e-10
1.07252e-10
-4.2221e-10
1.95851e-10
8.90243e-11
2.17061e-11
-3.32702e-10
-3.51864e-11
1.19869e-10
1.61196e-10
-4.98558e-11
1.97125e-10
2.08322e-10
-1.44684e-10
-1.39988e-10
-5.15643e-11
4.62129e-10
-8.29448e-11
1.44795e-10
-2.16637e-10
4.67028e-08
-6.46398e-08
-1.24308e-07
1.00945e-07
-1.08889e-07
5.23922e-08
7.58994e-08
3.21711e-08
-2.53139e-07
2.88745e-07
-1.04414e-07
-3.58538e-07
-2.23035e-09
3.75281e-07
-8.16838e-08
1.08033e-07
-1.97495e-07
-5.05746e-06
-8.57519e-07
2.84315e-06
2.93394e-06
7.93135e-07
9.12964e-06
-1.47634e-05
1.73577e-06
-3.2916e-06
-4.32668e-07
-2.51875e-06
5.96448e-06
-7.36835e-06
9.27218e-06
9.66087e-07
-2.10449e-06
1.08765e-07
-5.73439e-07
-1.55943e-07
5.3218e-08
4.65044e-07
3.70079e-07
-1.10345e-07
-1.23474e-06
-9.35482e-08
1.37078e-07
1.8905e-07
-5.04349e-08
-4.01654e-07
5.64715e-08
1.65135e-07
1.86314e-07
-5.00449e-07
2.01902e-07
-5.54998e-07
-4.46424e-06
-7.71273e-06
1.02236e-05
-3.82519e-06
-9.14464e-06
1.15096e-05
-5.82148e-06
-5.3234e-06
7.51699e-07
1.17517e-05
-1.8779e-05
1.24901e-05
-1.70984e-05
4.75209e-07
2.12131e-06
3.06205e-06
-6.99572e-10
-1.00818e-10
3.75328e-10
4.48395e-10
3.14101e-10
1.7943e-10
-1.1732e-09
-5.44247e-11
3.185e-10
2.90041e-10
-1.88822e-10
-1.59626e-10
-5.93937e-11
6.55084e-10
1.60807e-10
-1.74741e-10
4.76979e-10
9.53966e-11
8.99897e-11
1.76206e-10
-3.59707e-10
-3.89552e-12
9.68013e-11
6.28824e-12
9.2747e-11
-4.31158e-12
-3.48686e-10
-1.39908e-10
5.95651e-10
-3.92588e-10
6.63099e-11
1.45875e-10
-3.70541e-10
9.97516e-11
-1.1415e-05
-1.4957e-05
-8.89214e-06
3.54963e-05
-1.56128e-07
1.76954e-08
-1.09741e-05
-1.43207e-05
-7.80339e-07
-1.34108e-05
1.34768e-05
1.23829e-07
8.6204e-06
-3.27968e-05
1.08426e-05
-1.63945e-05
1.56135e-05
-6.40199e-11
9.20671e-12
7.08834e-11
-2.84904e-12
2.13532e-10
2.5817e-11
-2.73931e-10
1.38932e-10
1.16279e-10
-7.8737e-11
-1.8196e-11
1.73021e-10
-5.3489e-11
-2.0234e-11
1.22725e-10
-1.30141e-10
2.54347e-10
-2.71076e-10
-2.79275e-10
-2.48062e-10
7.10626e-10
-1.85904e-11
-5.39205e-10
2.89951e-11
-2.98773e-10
-4.77551e-12
6.74746e-10
1.69139e-10
-1.31516e-09
3.75749e-10
1.39776e-10
2.47861e-10
-3.80937e-10
3.95125e-10
-4.65625e-09
2.13176e-09
1.84144e-08
-9.33308e-09
4.11997e-09
3.4165e-09
-1.0646e-08
2.96961e-09
1.54282e-08
1.38758e-08
-5.68261e-09
6.57135e-09
-1.49984e-08
5.21073e-08
2.20677e-09
-2.82354e-09
7.61536e-09
-1.32767e-08
8.1645e-09
2.1746e-09
-9.56763e-10
4.89431e-08
-1.00581e-08
-6.83321e-08
-3.23627e-09
5.42828e-08
-4.32335e-09
3.60462e-09
1.61029e-09
2.14674e-09
-9.5302e-09
7.09345e-09
-1.82299e-08
5.7721e-09
-1.20704e-07
-1.11134e-07
4.33383e-07
1.98352e-07
1.06324e-07
1.54799e-07
-2.69135e-07
3.32541e-07
-2.07948e-07
-2.75894e-07
-3.47437e-07
1.29645e-06
-2.86757e-07
4.93983e-07
5.70579e-08
-1.37432e-07
1.20491e-07
-1.47464e-08
3.27863e-09
-1.33024e-08
6.06315e-09
1.77725e-08
-1.02932e-09
-1.06013e-07
-3.62126e-08
2.91318e-08
-1.15775e-07
1.23106e-09
2.21392e-07
-5.98089e-07
1.20662e-07
5.87863e-07
4.80787e-07
3.42628e-07
-1.43098e-06
4.59892e-07
-6.71733e-07
7.98596e-07
-6.6575e-07
1.54369e-06
-1.66964e-06
1.34142e-06
4.99408e-06
-8.09404e-06
5.66579e-06
1.10475e-05
3.69198e-06
-6.73094e-06
-8.00826e-06
-4.44974e-06
3.58375e-07
1.50235e-05
-5.85169e-06
4.73628e-06
1.20403e-05
-6.54376e-08
-1.78131e-05
4.1108e-06
1.26302e-05
-1.05582e-05
1.49975e-05
-1.7354e-05
-5.7941e-07
-5.32405e-06
-1.24784e-05
1.86477e-05
-4.98144e-06
-1.30177e-05
1.68669e-05
-6.27124e-06
-4.82601e-06
1.0905e-06
8.71025e-06
-1.60973e-05
8.76729e-06
1.7997e-07
-4.44868e-06
-3.55179e-06
6.78171e-06
1.47045e-05
-2.79577e-06
-1.88439e-05
5.68396e-06
-6.54834e-06
5.62644e-06
2.31958e-06
1.75368e-05
1.59251e-05
-2.79619e-06
-1.94071e-05
2.37757e-06
1.98103e-05
-1.03923e-05
1.51405e-05
-1.59803e-05
-3.61693e-06
5.65462e-06
4.54449e-06
-2.96757e-06
1.39572e-05
-2.4931e-06
-5.62448e-06
1.50485e-06
2.02332e-05
-1.14341e-05
4.01613e-06
1.48666e-05
-5.24984e-07
-2.156e-06
9.39548e-06
-1.99511e-06
1.71734e-05
6.1593e-07
1.12047e-07
2.77409e-08
-6.68501e-07
-2.37171e-06
3.09573e-07
5.51026e-06
-5.28812e-08
1.99337e-06
2.31145e-07
-7.22721e-08
-2.07503e-07
1.76065e-07
3.02655e-06
-1.68643e-07
8.89726e-07
-1.46881e-07
-5.01761e-08
1.2609e-06
7.57763e-07
-8.60371e-08
1.59967e-07
9.69165e-09
-2.20884e-07
7.17991e-08
1.17591e-06
-3.24124e-07
2.44158e-08
9.57398e-07
-3.93394e-08
-4.01642e-07
5.24684e-08
-8.46071e-08
1.4332e-07
6.28457e-08
1.27908e-07
-1.15997e-08
-1.39618e-07
7.35457e-08
-9.41678e-08
9.96108e-08
9.26637e-08
1.57829e-07
2.95592e-07
-4.15043e-08
-2.63237e-07
4.78671e-08
3.542e-07
-1.87627e-07
4.63521e-07
-1.52443e-07
-7.16744e-10
-9.99861e-09
3.62069e-11
1.01416e-08
-1.41353e-08
1.52795e-08
-4.14015e-10
1.69895e-08
-4.05913e-08
7.88995e-08
-7.92225e-08
-8.78273e-09
-1.79356e-08
1.03392e-07
-5.73367e-08
5.27604e-08
-1.15911e-07
-1.76724e-10
-1.97457e-10
-1.50111e-10
5.7396e-10
-2.20205e-11
-3.12467e-10
1.3449e-10
-2.28773e-10
-2.81825e-11
1.46586e-10
2.29529e-10
-5.57443e-10
1.57697e-10
-1.0334e-11
9.68168e-11
-1.99995e-10
1.1422e-10
1.78983e-15
3.58741e-15
4.40494e-15
-8.68279e-15
1.15172e-15
3.02488e-15
-1.75337e-15
7.70756e-15
3.75261e-15
-3.82895e-15
-4.35894e-15
1.88288e-14
-8.20097e-15
1.03807e-14
-2.75938e-15
1.87125e-15
-5.68935e-15
-1.03585e-14
-8.94759e-16
2.40953e-15
4.42613e-15
6.09513e-15
1.37408e-15
-2.70123e-14
-2.04981e-15
2.10683e-15
7.74945e-15
-4.56976e-15
-1.12193e-14
-7.20465e-16
7.20726e-15
6.76692e-15
-1.58562e-14
5.35196e-15
1.26979e-13
-4.75962e-14
1.35568e-13
-2.96199e-13
-1.77168e-13
4.48717e-14
2.16812e-13
-6.04478e-14
-4.86594e-13
-5.28882e-13
8.13523e-14
4.22746e-13
-1.08381e-13
-1.09112e-12
-3.3732e-13
3.4619e-13
-6.82199e-13
4.75201e-15
2.54523e-14
-2.49711e-14
-6.11064e-14
2.79958e-14
1.75353e-14
-1.01174e-13
-4.02479e-15
3.70319e-14
-1.97048e-13
3.44278e-14
7.42196e-14
2.49546e-14
-7.69528e-13
-4.1811e-14
4.18422e-14
-1.41195e-13
7.19001e-17
6.21963e-17
6.72899e-17
-3.05558e-16
3.1607e-18
3.34939e-17
-6.27304e-18
1.6629e-17
2.88611e-18
-1.08201e-17
-1.26685e-17
2.50453e-17
-3.25066e-17
5.48463e-18
-2.01162e-17
2.11728e-17
-1.94363e-17
3.75689e-19
2.64863e-20
-9.08687e-19
-1.00857e-19
-5.65368e-19
-2.39396e-19
6.61561e-19
6.8774e-20
-2.62222e-18
-4.44827e-18
1.37735e-18
5.29632e-19
2.26076e-18
-1.60913e-17
-9.78265e-19
1.06557e-18
-1.41083e-18
-3.23371e-21
2.55831e-20
-8.55163e-20
7.2833e-21
2.66814e-20
-1.32979e-19
-4.32454e-21
-2.39885e-20
3.94814e-20
1.1985e-19
1.07699e-19
4.37614e-20
-1.19258e-20
-2.98998e-20
7.39166e-21
-1.26456e-19
5.52053e-20
-9.46867e-19
4.06853e-19
-1.07599e-19
-9.46157e-19
4.67895e-20
2.20739e-19
1.1743e-18
-5.16389e-18
1.28485e-19
-4.54584e-19
8.5406e-20
-1.57367e-19
2.91338e-19
-1.54999e-19
1.53621e-19
-3.95015e-20
-2.83872e-20
-1.40752e-21
1.0212e-21
6.23588e-21
2.94017e-20
2.72007e-20
-1.4333e-19
1.1568e-20
-2.37225e-21
4.73394e-21
-1.65047e-20
2.27235e-21
-5.40234e-21
9.47655e-21
1.02212e-20
-1.73214e-20
7.6426e-21
-3.67744e-20
2.79526e-21
6.8133e-21
-8.2616e-21
6.93533e-20
6.70724e-21
-2.24512e-19
1.07526e-20
1.7433e-20
-3.09638e-20
-1.744e-21
1.98373e-20
-1.78427e-20
-8.17637e-20
2.9262e-20
-8.68213e-20
1.87787e-20
1.84869e-21
1.06746e-20
-5.7654e-22
-2.13081e-20
7.33035e-21
-1.22128e-20
2.7169e-21
-3.6338e-21
2.4029e-20
-2.67486e-20
6.91636e-21
9.21145e-22
1.56381e-20
-1.51203e-19
8.49355e-21
-2.54727e-20
5.02598e-21
-1.12963e-18
1.8893e-17
1.60173e-17
-1.07303e-17
2.77291e-18
1.0867e-19
-3.00302e-18
4.94571e-18
2.30012e-17
-2.16339e-17
2.57245e-18
4.54274e-17
-1.17315e-18
-2.83652e-17
2.32267e-18
-2.55666e-18
1.27615e-17
1.1486e-05
2.72806e-09
-1.12695e-05
-2.15869e-07
-1.25728e-05
-9.24384e-06
3.31878e-05
-1.20768e-05
-3.74971e-07
1.29311e-05
9.13044e-06
-3.33189e-05
1.33447e-05
-6.28869e-07
-7.42693e-06
1.16525e-05
-9.74594e-06
-8.57889e-09
-4.10495e-09
-1.12028e-09
1.09551e-08
2.73644e-09
-5.82308e-09
-3.5837e-09
4.37795e-09
-8.21083e-09
-2.15275e-08
5.71632e-09
1.35972e-08
-9.99864e-10
-2.22735e-08
8.99169e-09
-1.19198e-08
1.36298e-08
-1.41415e-09
-4.96403e-10
-3.65854e-09
5.3932e-09
4.1607e-09
-2.99258e-09
-1.26347e-09
-1.13435e-08
8.70048e-09
1.21985e-10
1.32643e-08
-1.6341e-08
4.08926e-09
-9.06071e-09
4.24871e-09
-2.48738e-09
3.08096e-09
1.43407e-06
1.06731e-06
7.14071e-07
-2.05462e-06
5.49032e-07
1.93007e-06
-9.81886e-07
1.13569e-06
5.33942e-07
-9.57072e-07
-1.53493e-06
3.64787e-06
-1.18087e-06
1.12927e-06
-7.88196e-07
1.82445e-06
-7.68294e-07
1.50644e-07
-7.65869e-07
8.14092e-07
2.55399e-08
-7.464e-07
5.31967e-07
5.44857e-07
2.21624e-06
-3.06866e-06
-6.07013e-08
-9.53807e-08
7.731e-07
-3.43748e-07
9.09767e-07
1.25729e-07
-8.24051e-09
-2.79783e-07
-7.3367e-07
5.48047e-07
8.91622e-07
6.70711e-07
1.79434e-06
3.42312e-07
3.66946e-07
-4.021e-07
1.86011e-06
5.9759e-07
-3.15022e-07
1.35224e-07
2.59648e-07
-1.25075e-07
3.4241e-07
3.57274e-08
-4.32889e-07
6.17277e-07
6.55789e-08
-3.5208e-07
-7.07585e-07
1.35426e-06
-7.13439e-07
2.06945e-07
7.22863e-08
-7.21297e-07
-2.35445e-11
7.22176e-07
-2.62937e-08
8.9628e-08
-6.46652e-07
-1.59919e-06
2.36623e-06
-1.49052e-06
-2.24932e-08
-6.04776e-07
7.64375e-09
6.08442e-09
1.40346e-08
-3.10675e-08
8.24135e-09
1.05049e-08
-1.77551e-08
5.30976e-09
5.55036e-09
4.56506e-09
-6.19446e-09
5.32073e-09
-1.02219e-08
1.83188e-08
-1.70091e-09
3.82429e-09
-2.53673e-09
-1.78525e-09
1.98625e-08
1.46708e-08
-4.45059e-09
9.30696e-09
-4.80272e-09
-4.30081e-09
-2.04211e-09
3.70226e-08
-1.14667e-08
5.32361e-09
2.66333e-08
1.39552e-09
-1.62868e-08
5.76298e-09
-9.19954e-09
8.98821e-09
4.96062e-10
1.31821e-10
-1.65317e-10
-9.47336e-11
-2.51486e-10
-1.83357e-10
1.0605e-09
-1.46652e-10
8.0693e-11
2.61896e-10
1.49999e-10
-5.26451e-10
7.4758e-10
-1.67861e-10
-9.70975e-11
6.73249e-10
-8.65044e-11
4.76099e-10
5.03749e-11
-1.52647e-10
-1.27558e-11
-2.94624e-10
-2.74307e-10
1.29937e-09
-1.54988e-10
1.85335e-11
2.34159e-10
1.52011e-10
-4.17645e-10
3.18221e-10
-2.30143e-11
-5.81003e-11
1.74634e-10
-1.79215e-11
1.89382e-13
-6.25276e-13
-2.22725e-14
1.07311e-12
-1.1086e-12
9.11297e-13
7.55038e-13
2.44604e-13
-1.64718e-12
2.61408e-13
-1.76165e-13
-8.0296e-14
-2.8107e-13
1.98427e-12
-2.84459e-13
1.19705e-12
-1.7134e-13
-2.40273e-14
-2.50608e-14
4.12875e-15
3.29834e-14
7.71281e-15
-1.34469e-14
-2.99858e-14
-8.58199e-14
3.65861e-14
1.95969e-13
-3.64866e-15
-3.63771e-13
1.59805e-14
1.82093e-13
3.62647e-14
-7.00489e-14
4.39083e-14
-7.89377e-16
-1.61821e-14
7.94487e-16
6.11802e-15
-2.01637e-14
1.01546e-14
-1.97319e-16
1.99539e-14
-7.79138e-14
6.73363e-15
-1.63011e-14
2.81177e-15
-6.97058e-15
1.38805e-14
-6.41537e-15
4.87719e-15
-1.37724e-14
-6.70823e-11
-4.91957e-12
7.5179e-12
2.33726e-11
3.82212e-11
1.16184e-12
-2.30636e-10
-1.71633e-12
9.25131e-12
8.55952e-12
-6.30153e-12
-1.84467e-11
6.24923e-14
8.09106e-12
1.70178e-11
-4.77346e-11
1.1205e-11
-1.68085e-09
-4.00546e-09
-1.1773e-09
3.21637e-09
-2.5705e-11
-3.42607e-09
1.20627e-10
-1.30235e-08
7.93021e-10
2.33765e-08
1.51383e-08
-8.53463e-08
4.14236e-09
4.90169e-09
-3.22946e-09
2.6057e-09
3.95823e-09
-5.41382e-17
2.32714e-16
-6.41497e-16
1.43225e-16
2.45373e-16
-7.778e-16
-5.73576e-17
-1.97196e-16
4.84337e-16
9.94537e-16
7.1943e-16
-3.54981e-15
5.29342e-16
-1.55011e-16
6.52426e-16
-1.0248e-15
6.97929e-16
-9.54655e-23
-7.46613e-22
-1.93849e-20
1.41162e-20
2.10877e-24
-8.90648e-23
-3.38965e-24
-1.33852e-22
-1.32479e-21
1.60752e-22
1.0978e-22
-3.89838e-22
7.36082e-20
-1.42257e-19
5.60416e-23
-2.85425e-23
2.88664e-20
-2.8827e-20
-9.1579e-20
-6.13029e-19
5.40665e-19
-4.83292e-21
-2.80584e-20
-1.26759e-24
-4.55184e-20
-1.75421e-19
3.53719e-20
2.70432e-20
-1.175e-19
1.26804e-18
-3.08145e-18
1.05966e-20
-1.37044e-20
1.706e-19
2.67318e-11
-5.88448e-13
-2.59617e-11
1.16762e-11
-3.97309e-12
-1.29992e-12
3.15349e-11
-6.6277e-13
-3.5476e-12
2.09363e-11
-2.34496e-13
-3.87194e-11
1.15927e-11
1.84113e-11
-2.16522e-12
1.21653e-11
-2.78202e-12
2.68257e-09
-2.3529e-09
8.10907e-09
-8.92435e-09
-4.53935e-09
3.85148e-09
3.07583e-09
9.30953e-09
-1.68713e-08
-2.12614e-09
-8.22937e-09
1.38527e-08
-7.16665e-09
1.47413e-08
-4.37027e-09
1.07425e-08
-2.42585e-09
-1.52861e-08
-8.06451e-09
1.92093e-08
8.49047e-09
2.34442e-09
5.92776e-09
-1.08906e-08
-1.44722e-08
1.87273e-08
5.08068e-08
-3.9208e-08
-3.00796e-08
-2.01698e-08
9.27231e-08
1.20548e-08
-3.14126e-08
1.29381e-08
-5.55749e-08
-4.27311e-08
-5.7453e-08
1.22855e-07
-4.20461e-10
-5.86693e-08
6.83068e-10
4.2772e-10
-4.03775e-08
-4.6611e-08
4.53442e-08
-1.61311e-10
3.9378e-08
-1.24162e-07
1.2637e-08
-5.4351e-08
3.13113e-08
-5.9277e-09
3.4926e-07
-2.41133e-07
-1.71584e-07
6.03972e-08
-5.49785e-08
-2.08262e-08
-1.23991e-08
3.87757e-07
9.47499e-08
3.59536e-08
-1.87664e-07
5.18819e-08
6.46172e-09
-1.11906e-07
1.22377e-07
-4.07024e-07
-8.01205e-09
-1.40326e-08
-1.49774e-08
3.84958e-08
-4.44012e-09
-1.73242e-08
1.51399e-08
-5.43423e-09
-1.04172e-08
-5.76271e-09
1.8829e-08
-1.69599e-08
1.92479e-08
-3.37087e-08
2.13292e-09
1.2426e-09
6.90196e-09
5.89571e-06
8.48372e-06
-5.86429e-06
-8.78449e-06
2.98301e-06
-1.28666e-05
1.61782e-05
-1.16139e-05
2.33413e-05
-5.20742e-06
1.79181e-05
-1.8039e-05
1.37134e-05
-2.77082e-05
4.15754e-06
-2.39394e-06
1.06558e-05
-2.65665e-06
-6.9826e-06
3.94382e-06
5.53035e-06
-6.27198e-06
9.10593e-06
-5.37781e-06
8.21895e-06
-2.13737e-05
3.57226e-06
-1.1854e-05
1.21383e-05
-7.4961e-06
1.64937e-05
-6.44191e-06
8.12103e-06
-1.00471e-05
1.90505e-09
1.45366e-08
-5.87243e-09
-1.60264e-08
9.15691e-09
-8.65846e-09
2.72487e-10
-1.30761e-08
3.55946e-08
-1.30879e-08
1.33045e-08
-9.02591e-09
8.11719e-09
-3.84749e-08
3.89477e-09
-4.99528e-09
4.44378e-09
-3.51348e-08
-8.96816e-10
3.7938e-08
-4.64521e-10
3.07169e-08
5.61778e-08
-1.20001e-07
-7.92213e-09
3.97142e-08
2.08892e-07
-1.97701e-07
-1.05408e-09
-7.00169e-08
3.29542e-07
7.28322e-08
-2.04017e-07
4.59976e-08
1.74235e-07
-1.79261e-05
1.83179e-05
-5.74725e-07
-1.45109e-05
1.45958e-05
8.52761e-08
1.08992e-05
-4.33388e-05
-1.73069e-05
-1.0768e-05
4.26184e-05
-1.75749e-05
1.85852e-07
-1.50089e-05
2.25393e-05
-2.16043e-05
-8.6673e-11
-8.85093e-12
8.18809e-11
3.76319e-11
4.44798e-11
1.74517e-11
-1.31739e-10
-1.19082e-12
7.50477e-11
3.29561e-11
-2.97711e-11
-4.57782e-12
-1.53685e-11
1.40292e-10
4.00614e-11
-5.28237e-11
1.12807e-10
7.74294e-12
-8.85151e-11
-3.1029e-10
3.47534e-10
-9.60426e-11
-1.25844e-10
1.844e-10
-1.98525e-10
-5.18777e-11
8.73575e-11
3.53579e-10
-7.43299e-10
9.92017e-11
-1.05422e-10
-8.459e-11
3.77918e-11
-1.39395e-10
-3.42177e-11
-1.00974e-12
1.98874e-11
3.23811e-12
4.95479e-11
4.257e-11
-1.58768e-10
-1.21675e-12
2.36065e-11
1.42217e-11
-3.87084e-11
-5.45877e-13
-2.21277e-11
4.208e-11
1.33286e-11
-3.0339e-11
4.51171e-12
-5.59119e-08
3.3837e-09
1.22352e-07
-8.12679e-11
7.52467e-08
5.88311e-08
-1.75323e-07
9.49401e-08
2.16244e-09
-9.53779e-08
-9.01733e-08
3.51973e-07
-9.89927e-08
1.63394e-09
4.81015e-08
-8.32717e-08
3.06518e-08
2.51847e-09
1.06388e-07
-1.03887e-07
1.28182e-07
-1.27046e-07
1.99456e-09
2.65949e-07
1.43568e-07
-3.77217e-07
-6.16736e-08
5.34814e-08
4.35134e-09
-1.09699e-07
4.01707e-09
-5.54096e-08
-3.23711e-08
9.88504e-08
-7.8609e-08
1.47567e-08
2.16864e-07
1.7867e-07
-5.0364e-07
2.08061e-07
1.38874e-08
-9.02027e-08
2.64615e-07
1.30632e-08
2.20642e-08
1.10029e-08
-3.60802e-08
-3.8851e-08
-3.34828e-08
3.01018e-08
1.10755e-08
-6.57983e-08
1.28622e-07
-1.4197e-09
-1.36997e-09
-1.81949e-09
2.07583e-09
-4.36423e-10
-6.96595e-09
1.68216e-09
8.01963e-09
-2.10095e-08
5.1462e-09
-1.077e-17
-1.37023e-15
3.42022e-16
1.10423e-16
7.02087e-18
1.66585e-17
-6.33468e-17
3.13089e-15
-8.164e-15
-2.49706e-17
-2.7535e-15
1.9613e-15
-2.08918e-17
3.16132e-17
-7.05225e-17
-1.63256e-18
-1.51971e-15
9.76152e-12
3.27514e-11
-1.63415e-11
-1.36463e-11
2.13954e-11
-1.77329e-11
1.29413e-12
-3.60834e-11
7.59761e-11
1.51443e-12
1.62806e-11
-1.96419e-11
3.73725e-11
-3.35608e-11
-7.38121e-13
6.97569e-13
3.02528e-12
1.32708e-12
-6.85021e-13
-1.00278e-12
1.04248e-12
-2.219e-12
7.51212e-13
3.7743e-12
-6.29203e-15
-2.22953e-12
3.07915e-12
-2.29885e-13
-2.30664e-12
-1.97721e-15
3.13295e-12
-2.96213e-13
1.81997e-12
-4.50844e-13
-5.49591e-13
2.85937e-13
-9.76932e-14
7.03371e-13
8.53363e-13
-4.88629e-14
-1.87628e-13
-6.92686e-13
3.69591e-14
8.45676e-14
-1.21183e-13
5.8726e-13
-4.68147e-13
-4.1835e-15
6.05678e-14
1.29594e-14
-1.15788e-12
-6.01348e-13
-3.30179e-13
1.35173e-12
-1.97788e-13
-2.86282e-12
5.2408e-13
-9.52787e-13
-7.82273e-13
4.0938e-12
1.35706e-12
-1.06485e-11
8.31236e-13
2.53163e-12
1.34771e-12
-2.17467e-12
1.27309e-12
8.39161e-11
9.6504e-11
2.15548e-11
-2.63208e-10
2.64199e-11
4.25807e-11
-1.40939e-11
5.37423e-11
4.20722e-11
-7.47992e-11
-9.91161e-12
1.00488e-10
-6.54055e-11
-4.31079e-11
-7.95871e-11
9.33621e-11
-1.44917e-10
1.93986e-08
2.77576e-09
-1.28477e-08
-3.8062e-10
-1.25919e-08
-1.80631e-08
3.26202e-08
-1.05632e-08
3.05461e-09
1.87134e-08
8.4908e-09
-4.00583e-08
2.1979e-08
1.45218e-09
-8.23676e-09
1.47667e-08
-1.06535e-08
-1.31879e-08
-2.9472e-09
6.07303e-09
1.00311e-08
8.29384e-09
1.16013e-09
-2.29274e-08
-2.69084e-09
7.80314e-09
1.23604e-08
-4.632e-09
-1.0548e-08
-1.84613e-09
2.19121e-08
9.30884e-09
-1.46171e-08
1.35316e-08
-9.59196e-09
-2.65218e-08
1.7971e-09
2.31328e-08
-2.49416e-08
7.66616e-08
-8.94522e-08
6.20483e-08
-1.25472e-07
2.84075e-08
-3.87243e-08
7.62397e-09
-2.3736e-08
6.88923e-08
-1.71111e-08
6.40844e-08
-6.6611e-09
8.53873e-08
-1.11244e-07
1.67522e-08
-8.97105e-08
2.38579e-07
2.38819e-07
-3.63356e-07
2.00505e-07
5.0275e-08
1.70054e-07
2.84399e-09
5.49465e-09
1.18879e-08
-1.9639e-08
6.09909e-09
2.02333e-08
-1.94144e-08
5.52896e-09
6.99613e-09
2.63473e-09
-1.42368e-08
1.87869e-08
-2.56099e-08
3.74261e-08
-1.24314e-09
2.67591e-09
-1.312e-09
9.14071e-08
-5.80276e-07
-1.40992e-06
1.26333e-06
-6.17318e-07
-7.76477e-07
8.26597e-07
-6.86519e-07
-1.53254e-06
-1.85013e-07
7.03238e-07
-2.04048e-06
2.36988e-06
-8.24453e-06
-5.03481e-07
2.3895e-07
-1.17822e-06
-3.23731e-06
-3.44638e-06
4.86948e-07
1.50045e-05
4.45449e-07
-2.04746e-07
-2.11708e-06
-1.79864e-07
3.00719e-06
9.5519e-07
-1.34195e-07
-8.28769e-07
7.63836e-07
1.09425e-05
7.29381e-07
-9.79263e-07
5.53552e-06
4.36369e-08
-1.87267e-07
3.74332e-07
-2.43694e-07
-3.1203e-07
3.16588e-07
2.60887e-08
5.9195e-07
-1.09975e-06
-2.09738e-06
-5.36023e-07
4.00859e-06
-1.69114e-06
-8.95044e-08
-4.74575e-07
2.67708e-07
-1.43506e-06
-7.3452e-10
-6.36523e-10
4.59924e-10
1.2142e-09
1.1863e-10
1.60605e-11
-7.75276e-10
-3.01774e-10
1.7789e-10
1.54209e-10
-8.61488e-12
-6.6526e-10
2.27705e-10
1.25426e-10
1.40516e-10
-1.30709e-10
1.03526e-09
-4.7996e-08
-6.102e-08
-3.82319e-08
1.50359e-07
-2.74519e-10
-3.8316e-08
-6.59615e-09
-5.57188e-08
-8.49558e-10
1.40369e-07
2.79511e-08
-2.20761e-07
1.51977e-07
-1.20413e-08
5.0281e-08
-5.62442e-08
1.66288e-07
5.64717e-08
2.15824e-09
-6.0549e-08
-8.92334e-10
-8.49238e-08
-5.20484e-08
1.91892e-07
-1.13456e-07
2.93814e-08
4.75122e-08
1.0923e-07
-2.21926e-07
5.04652e-08
-5.54504e-09
-2.99265e-08
2.79076e-08
-3.49576e-08
-2.56731e-11
-2.17748e-11
-3.55999e-12
5.65637e-11
3.62276e-12
-1.73526e-11
-1.69788e-12
-4.0152e-12
3.36656e-12
4.61545e-12
3.70171e-12
-1.06096e-11
9.49129e-12
5.63404e-13
1.30174e-11
-2.48325e-11
2.05099e-11
3.35669e-11
-1.80281e-10
-7.26666e-11
2.23283e-10
-2.71552e-10
2.02884e-10
1.04735e-10
1.44035e-10
-5.93036e-10
2.93576e-10
-2.62222e-10
-9.78038e-11
-2.07522e-10
7.41446e-10
-7.77316e-11
7.874e-11
-2.05716e-10
-4.0988e-07
2.36906e-08
4.68874e-07
-4.71354e-08
3.97512e-07
1.50375e-07
-1.3683e-06
4.0778e-07
1.13082e-08
-7.07546e-07
-5.80464e-07
1.86341e-06
-6.06194e-07
-2.94723e-08
2.78023e-07
-6.3713e-07
1.46958e-07
-9.92607e-09
7.54437e-07
-9.52975e-07
3.4396e-07
-2.99917e-07
-8.86937e-09
1.20231e-06
7.54726e-07
-3.2474e-06
-2.62015e-07
-1.65138e-11
2.58572e-12
5.10226e-12
-1.08036e-12
2.95265e-11
4.75038e-13
-9.6242e-11
3.52647e-12
1.11584e-11
-5.10159e-12
-1.8039e-14
6.65547e-12
-4.55324e-12
-1.00177e-11
9.38831e-12
-2.91021e-11
6.25871e-12
-2.81607e-14
-1.61942e-14
1.10821e-14
1.81295e-14
-1.26336e-14
7.82079e-14
-1.23542e-13
2.50481e-14
-6.86737e-14
6.52755e-15
-3.12465e-14
2.35487e-14
-4.58591e-14
5.72691e-14
-1.42145e-14
3.22035e-14
-3.09096e-14
-3.65352e-17
-3.96258e-17
9.83522e-18
1.22489e-17
-1.20407e-17
9.32426e-17
-2.23108e-16
7.4472e-17
-2.26733e-16
2.38356e-18
-4.50287e-17
2.40947e-17
-4.88158e-17
3.4547e-17
-6.23603e-18
1.14509e-17
-1.55402e-17
8.77187e-16
4.80455e-15
-4.87122e-15
-6.4678e-15
4.49853e-15
-8.54241e-15
1.71876e-15
-3.99327e-14
-4.5199e-14
1.44701e-15
-1.82625e-14
-2.96415e-14
-3.49782e-14
-8.56785e-14
-7.10236e-14
-5.39836e-14
1.08924e-17
1.18475e-13
2.9099e-14
-3.50664e-14
-8.61927e-14
1.02702e-14
-6.34143e-14
9.58315e-14
-8.33488e-14
-6.93635e-14
-8.0575e-14
1.67103e-13
-1.3119e-13
-3.27172e-13
-3.74417e-13
-3.76964e-13
-2.21775e-13
-3.5459e-13
-7.54899e-13
-1.2297e-05
-1.00609e-05
-1.03979e-05
3.27627e-05
-3.61116e-07
-1.2905e-05
9.71695e-07
-9.84254e-06
-5.6046e-07
9.55737e-06
7.59071e-06
-2.6996e-05
1.02109e-05
-1.20332e-06
5.45635e-06
-1.07688e-05
5.27497e-06
-1.37351e-11
-7.97195e-12
-7.36467e-12
3.33303e-11
5.10383e-13
-1.37817e-12
-1.79858e-11
-6.9531e-13
-1.56239e-13
2.82395e-12
-1.06481e-12
-1.92712e-12
-1.63914e-12
9.99737e-12
2.59395e-12
-6.00256e-12
-6.58836e-12
2.82288e-12
4.67228e-13
-5.40493e-12
-3.07064e-12
-1.70787e-12
-5.81813e-12
5.28114e-12
-4.24154e-12
6.10791e-13
1.21398e-11
4.37685e-12
-2.93177e-11
2.91679e-11
-6.83947e-11
-5.98275e-12
1.32243e-11
-1.00204e-11
1.59253e-14
2.36529e-14
9.48643e-15
-6.49526e-14
2.2624e-15
7.34721e-15
-1.4718e-15
9.37627e-15
7.38029e-15
-9.6691e-15
-3.85788e-15
1.68408e-14
-1.08117e-14
-8.11231e-15
-1.08039e-14
1.1715e-14
-1.94306e-14
-5.90814e-12
-1.32264e-11
-1.16938e-11
2.12104e-11
-2.40627e-12
-1.58798e-11
3.47574e-12
-3.11566e-11
-1.74684e-12
2.79167e-11
2.85384e-11
-1.17321e-10
1.70402e-11
-4.85552e-12
9.996e-12
-1.38343e-11
7.8919e-12
2.33594e-11
3.51288e-10
-3.12883e-11
-2.95576e-10
3.32132e-10
-3.34941e-10
1.41028e-10
-3.28079e-10
1.1049e-09
-4.02438e-10
6.44767e-10
-1.09524e-10
1.91011e-10
-6.3119e-10
1.78263e-10
-1.97813e-10
5.85874e-10
2.32727e-08
7.89737e-09
1.86299e-08
-3.60604e-08
6.84866e-09
2.97163e-08
-4.85386e-09
2.3665e-08
1.57352e-08
-1.60264e-08
-3.19203e-08
8.04365e-08
-6.03213e-08
7.04628e-08
-1.37852e-08
1.18799e-08
-3.4425e-08
2.01966e-08
1.92982e-08
1.61232e-08
-5.39215e-08
3.35068e-09
2.20287e-08
-3.68137e-09
1.56105e-08
2.57271e-09
-1.88678e-08
-1.79079e-08
4.96035e-08
-2.4324e-08
4.76389e-09
-1.70556e-08
1.82275e-08
-2.39497e-08
-2.58754e-08
-7.96566e-09
2.50857e-08
1.08329e-08
2.74963e-08
2.33699e-08
-7.41364e-08
-3.576e-09
3.96743e-08
5.5683e-08
-3.72252e-08
-1.21287e-08
-1.93675e-08
1.25416e-07
2.45707e-08
-3.72809e-08
3.28788e-08
2.53624e-07
-8.14531e-08
-1.99787e-07
1.69304e-08
-1.43343e-06
-4.86319e-07
2.22245e-06
-1.47876e-06
1.60377e-07
2.43526e-07
5.69913e-07
-1.02414e-06
2.57709e-07
-5.22563e-09
-4.20287e-07
2.12711e-07
-1.35572e-06
-9.04253e-06
-4.74183e-08
8.88604e-06
1.71743e-07
1.95917e-05
5.86909e-06
-3.45123e-05
1.9544e-05
-2.92583e-08
-3.25208e-05
-2.82904e-05
8.03308e-05
-3.18976e-05
-1.26793e-06
-5.40634e-06
-1.39694e-05
-3.14423e-05
8.91566e-06
-2.32926e-07
-8.95801e-06
2.80402e-07
-1.60048e-05
-5.57897e-06
3.05059e-05
-1.55677e-05
-6.46916e-07
5.98886e-06
-3.24648e-05
1.75248e-05
-3.1337e-05
3.17538e-05
3.10019e-05
-7.90143e-05
-9.45112e-07
1.35702e-05
3.16418e-05
-7.97283e-05
-3.20799e-07
2.80993e-08
-1.26569e-09
2.21048e-10
7.99361e-10
-6.65464e-12
4.27439e-09
8.84378e-10
-6.90916e-09
7.99648e-09
-4.7842e-09
-3.02956e-10
-1.3359e-09
2.17097e-09
-4.74242e-10
1.02602e-10
8.31162e-10
-5.60369e-10
6.89983e-09
-1.25586e-05
-1.25407e-05
-8.09008e-06
3.31861e-05
8.65998e-09
-1.2685e-05
1.18368e-07
-1.24919e-05
-4.27036e-08
1.67732e-05
1.25724e-05
-4.18395e-05
1.70211e-05
-3.13528e-07
9.06289e-06
-9.17689e-06
1.79943e-05
7.98076e-06
1.28097e-05
2.48292e-06
-1.61604e-05
5.49515e-07
1.03363e-05
-8.41926e-08
1.33803e-05
9.80819e-07
-1.30684e-06
-3.29049e-06
1.61876e-05
-1.21378e-06
-3.14716e-08
2.99271e-06
-1.24728e-06
1.60944e-05
6.11936e-08
9.54166e-08
1.51213e-08
-1.7033e-07
-7.38858e-10
-2.04441e-10
6.71539e-08
8.80537e-08
9.69032e-09
2.55168e-08
-2.15962e-08
-3.64552e-09
-1.38754e-08
1.10769e-07
-3.60496e-08
1.11163e-07
-4.24957e-08
2.89105e-08
1.93136e-08
-2.07703e-08
-1.11497e-08
-1.02641e-08
-3.27028e-08
7.23171e-08
-5.7711e-08
7.41198e-08
2.55241e-08
5.01138e-08
-8.28617e-08
5.23415e-08
-2.11247e-08
-1.19332e-08
4.28466e-08
-1.65539e-08
-3.13614e-07
-9.07596e-07
-2.18206e-07
1.54992e-06
3.34476e-08
-2.94638e-07
-5.04654e-08
-8.8847e-07
-3.50901e-08
-2.18027e-07
-1.01166e-06
9.81604e-07
-1.00691e-06
4.95285e-07
9.56503e-07
-2.89624e-06
-1.32606e-07
4.71732e-07
-3.46983e-08
-1.07212e-06
-1.15691e-07
3.35505e-15
-4.03075e-15
-1.65342e-14
9.9995e-15
-7.43937e-15
-2.01531e-14
2.25421e-14