/*--------------------------------*- C++ -*----------------------------------*\
| =========                 |                                                 |
| \\      /  F ield         | OpenFOAM: The Open Source CFD Toolbox           |
|  \\    /   O peration     | Version:  v2012                                 |
|   \\  /    A nd           | Website:  www.openfoam.com                      |
|    \\/     M anipulation  |                                                 |
\*---------------------------------------------------------------------------*/
FoamFile
{
    version     2.0;
    format      ascii;
    class       volScalarField;
    location    "0.25";
    object      alpha.water;
}
// * * * * * * * * * * * * * * * * * * * * * * * * * * * * * * * * * * * * * //

dimensions      [0 0 0 0 0 0 0];


internalField   nonuniform List<scalar> 
24700
(
1
1
1
1
1
1
1
1
1
1
1
1
1
1
1
1
1
1
1
1
1
1
1
1
1
1
1
1
1
2.62731e-08
4.4133e-08
2.95247e-07
4.48199e-08
1.44202e-07
4.6312e-07
1.15725e-06
3.75938e-07
3.8185e-07
4.00831e-07
3.61207e-07
3.69533e-07
5.19372e-07
3.61086e-07
0.000111664
7.04816e-05
0.000112921
3.21203e-05
2.16641e-05
2.65332e-05
6.8682e-05
6.58303e-05
6.65182e-05
3.6425e-05
3.83805e-05
6.65182e-05
3.53063e-05
3.59772e-05
0.00123266
0.00113205
0.0010889
0.00407486
0.00414067
0.00117052
0.00236658
2.56942e-11
1.35849e-11
4.27884e-12
2.41082e-11
2.83278e-11
1.74526e-11
1.09951e-11
1.69424e-06
1.78469e-06
3.35939e-06
1.12302e-06
1.80868e-06
3.27659e-06
1.09773e-06
0.572973
0.0828252
0.966623
0.559733
0.0591901
0.766836
0.937393
4.05147e-07
3.35809e-07
2.22778e-07
6.58347e-07
9.00629e-07
4.68549e-07
2.7744e-07
1.12334e-15
1.38538e-15
2.16848e-15
1.23828e-14
2.92955e-15
4.03423e-15
1.3724e-15
2.29618e-08
2.29757e-08
2.961e-08
8.30634e-08
7.30864e-08
3.85295e-08
7.16077e-08
0.00349078
0.00152491
0.00105335
0.00101457
0.00161774
0.0011677
0.00331023
4.77647e-16
3.09572e-16
5.72736e-16
9.78928e-16
3.23074e-15
1.67882e-15
6.41198e-16
2.50625e-16
1.82074e-16
1.19108e-16
8.26737e-18
5.65358e-18
1.50524e-17
2.70448e-17
8.57453e-17
1.18577e-17
2.81188e-17
9.77576e-17
1.3427e-17
1.92812e-17
7.20429e-18
2.44521e-17
2.12279e-14
4.95982e-15
6.54817e-15
2.717e-15
3.87501e-15
9.70203e-15
4.80812e-15
1.1326e-13
2.29221e-13
7.3913e-13
1.49673e-13
6.72263e-14
1.50717e-13
3.69263e-13
9.18608e-05
5.8971e-05
9.13232e-05
2.27877e-05
3.11938e-05
2.59599e-05
6.48881e-05
1.75143e-05
2.9389e-05
3.41785e-05
3.10658e-05
1.54223e-05
1.46626e-05
1.47224e-05
0.00801761
0.00780892
0.0148881
0.0315127
0.0117835
0.0103935
0.0181235
0.219573
0.889109
0.229139
0.531354
0.534892
0.841337
0.0718334
0.0331676
0.0623958
0.0135935
0.0230409
0.0133667
0.0325739
0.0202371
0.842883
0.742951
0.716297
0.952822
0.974611
0.968852
0.84609
6.05424e-05
3.31685e-05
6.03003e-05
2.30205e-05
3.30016e-05
2.30538e-05
2.92861e-05
1.69292e-05
9.72866e-06
9.56653e-06
2.06284e-05
5.23724e-05
3.39451e-05
1.61625e-05
0.924495
0.872271
0.978404
0.868312
0.94637
0.959293
0.938621
7.93722e-06
2.22008e-05
3.28298e-05
8.51571e-06
7.37166e-06
1.79239e-05
1.82981e-05
2.83576e-05
4.16591e-05
1.42517e-05
2.67351e-05
4.32551e-05
1.3801e-05
3.0175e-05
0.00105735
0.000353354
0.00173953
0.00137739
0.00173953
0.000236443
0.00130026
0.000377045
0.00316881
0.0010122
0.000263527
0.000380987
0.000891173
0.000445829
0.0375453
0.0109333
0.0225934
0.0375453
0.0341208
0.00659451
0.0178369
0.00139691
0.00327279
0.00252343
0.00331354
0.0147908
0.00740431
0.991943
0.989139
0.97337
0.992127
0.992127
0.991383
0.990712
0.975895
0.952301
0.988767
0.981571
0.981466
0.990747
0.935641
0.871129
0.871129
0.933032
0.937595
0.979345
0.975281
0.979232
0.815373
0.847035
0.940458
0.925049
0.967531
0.985664
0.816111
0.536553
0.820407
0.800845
0.270597
0.323431
0.81935
0.0180328
0.0945473
0.39618
0.0106232
0.138038
0.0206195
0.0111972
0.210548
0.0108215
0.0616185
0.0368678
0.0179914
0.00735726
0.0112611
0.0084622
0.0229206
0.0186287
0.012186
0.0232781
0.0382074
0.011599
0.000836281
0.00083366
0.000917027
0.00833921
0.00406515
0.00233646
0.00390728
3.96305e-05
5.27224e-05
5.21105e-05
2.2067e-05
1.76232e-05
2.75778e-05
1.63782e-05
8.58525e-10
4.47388e-10
1.69398e-09
1.40617e-09
1.35433e-09
6.38375e-10
1.11273e-09
9.99187e-10
1.94757e-09
7.02125e-10
1.73727e-09
8.63463e-10
1.95386e-09
1.01651e-09
1.91176e-08
1.89151e-08
2.52264e-08
4.49551e-08
7.92836e-08
4.00668e-08
3.56653e-08
3.46035e-09
4.11103e-09
2.64242e-09
8.06191e-09
1.92829e-08
4.4859e-09
6.36357e-09
1.18258e-11
4.59792e-12
3.28028e-12
1.81388e-12
2.34803e-12
3.06605e-12
5.36084e-12
7.56061e-14
5.70232e-14
1.22614e-13
2.1819e-13
5.43868e-13
1.18414e-13
2.07799e-13
5.16366e-15
6.36662e-15
2.82899e-15
3.10755e-14
1.03083e-14
4.98646e-15
1.46007e-14
7.32251e-14
5.61461e-14
2.35895e-13
4.14846e-14
2.75209e-14
4.42369e-14
1.05166e-13
1.70946e-15
7.79736e-15
2.32796e-15
1.24112e-15
8.76274e-16
3.26972e-15
1.61144e-15
2.72397e-15
1.53151e-14
5.07428e-15
2.76609e-15
7.33569e-15
9.23264e-15
3.88066e-15
6.27494e-15
4.05998e-15
4.86554e-15
3.64733e-15
1.1595e-14
5.602e-15
2.5377e-15
1.25722e-11
7.88205e-13
5.56851e-12
1.20195e-11
7.9861e-12
1.27983e-12
4.37279e-12
0.98465
0.926564
0.805097
0.977985
0.98494
0.978137
0.914252
0.00240423
0.00233398
0.00167582
0.00196625
0.00211385
0.00203838
0.00270648
0.000415899
0.000456253
0.000660681
0.000736901
0.000601755
0.000734274
0.000359936
0.0795592
0.128103
0.129157
0.129545
0.125533
0.120984
0.0266442
0.033148
0.0896928
0.057731
0.0892525
0.0887422
0.0970294
0.102754
0.102779
0.101364
0.0894087
0.0891735
0.102671
0.0261626
0.065984
0.050554
0.0540782
0.0272237
0.0204659
0.100014
0.0431694
0.100641
0.100645
0.0998749
0.0139295
0.00381299
0.00457284
0.00207903
0.00208185
0.00207903
0.0024777
0.00265846
0.00341907
0.000531238
0.00153236
0.0018703
0.00066832
0.000472136
0.00150657
0.000100219
4.49913e-05
3.74375e-05
3.25968e-05
8.92824e-05
5.51513e-05
1.08944e-05
9.95324e-05
6.33928e-05
3.85564e-05
3.09151e-05
6.19562e-05
3.79128e-05
1.7543e-05
1.54897e-07
1.54897e-07
9.58535e-08
1.50319e-08
1.06698e-07
1.09389e-07
2.18736e-08
3.16954e-09
2.7004e-09
5.7697e-09
2.21399e-08
9.44992e-09
6.5798e-09
5.44402e-09
1.56593e-09
2.55927e-09
5.13529e-09
2.35527e-09
1.51692e-09
2.19083e-09
4.81373e-09
2.39901e-06
6.81891e-06
9.91201e-07
1.37802e-06
7.62848e-07
2.51628e-06
1.20987e-06
0.000135165
8.29236e-05
0.000114792
0.000582125
0.000269
0.000183756
0.000234131
3.9847e-11
4.39662e-11
3.1755e-11
1.34393e-10
5.79616e-11
7.83491e-11
5.1154e-11
2.33103e-15
4.03489e-17
3.51644e-16
6.61189e-17
2.84759e-14
4.26385e-17
1.23742e-14
9.74702e-14
1.43986e-14
5.43873e-14
2.94904e-14
7.65822e-13
1.46674e-14
3.29486e-13
1.10066e-05
4.13667e-06
3.68465e-07
1.10012e-05
9.856e-06
2.76513e-06
3.41483e-07
0.000281468
0.000283299
0.000300706
0.000284731
0.000423664
0.000395356
0.000437587
0.00099534
0.000504719
0.000590066
0.00239557
0.00178753
0.00103748
0.000980778
0.00268751
0.00239589
0.00297366
0.00164537
0.00297366
0.0027607
0.00225462
0.0284391
0.00328565
0.0124574
0.00351896
0.00543098
0.00721434
0.0357519
0.000645808
0.000645808
0.000641165
0.000619168
0.000641165
0.00102034
0.00064274
0.942743
0.913559
0.940815
0.93856
0.928055
0.842872
0.962943
0.938821
0.951307
0.954496
0.943046
0.938821
0.976814
0.988165
0.00208814
0.000468576
0.00156319
0.00210308
0.00126529
0.000539574
0.00104719
0.00189503
0.00322114
0.0019509
0.0204254
0.0121828
0.00616744
0.00343109
0.931791
0.951193
0.95121
0.933258
0.817363
0.944398
0.947266
1.14107e-05
5.65014e-06
1.1375e-05
2.27754e-06
5.21121e-06
3.28717e-06
6.02413e-06
1.1102e-05
1.19893e-05
1.08942e-05
2.51815e-05
1.10231e-05
8.87302e-06
2.77657e-05
4.54317e-06
9.4659e-06
4.12316e-06
6.16869e-06
4.1663e-06
8.52899e-06
3.32592e-06
0.0021638
0.0021738
0.00234012
0.00227848
0.00246633
0.00295689
0.00306419
0.00313415
0.00316014
0.00317361
0.00184183
0.00308106
0.00175351
0.00256951
0.00236324
0.00310053
0.0031134
0.00312665
0.00309057
0.000730292
0.00135161
0.000656267
0.00152372
0.00223855
4.68993e-05
7.52278e-05
5.04872e-05
0.000190136
8.47191e-05
2.1331e-10
1.49067e-11
1.8974e-09
4.02119e-10
2.34589e-11
1.14274e-11
1.24282e-09
1.38063e-05
5.66949e-06
1.34182e-05
8.059e-06
1.33739e-05
5.7212e-06
1.39487e-05
6.23581e-07
6.6649e-07
4.47713e-07
1.43212e-06
7.83019e-07
2.78164e-07
7.84516e-08
3.2858e-07
5.05009e-07
3.94238e-07
2.73676e-08
1.92997e-07
1.65055e-07
2.56981e-08
2.05249e-07
2.00851e-07
2.06674e-07
6.01542e-07
2.97648e-07
3.61152e-07
1.9822e-07
1.50541e-05
5.70026e-06
7.42628e-06
8.05929e-06
5.68127e-06
1.3355e-05
1.55842e-05
0.00220598
0.00166824
0.000852656
0.00139202
0.00220598
0.00178134
0.000535919
0.000445445
0.000511927
0.000510484
0.000421553
0.000431684
0.00046413
0.000433545
0.00121861
0.0024155
0.00150333
0.00153065
0.00121861
0.00174135
0.00264287
0.00157335
0.00168057
0.00311141
0.00310109
0.00407761
0.00038736
0.000547033
0.00039385
0.000529422
0.000512589
0.00149299
0.000990914
0.108997
0.0956657
0.0910618
0.125575
0.233295
0.0624603
0.268129
0.346137
0.0622255
0.508016
0.0273827
0.25291
0.0283219
0.0855878
0.0111538
0.0104165
0.0186302
0.0611637
0.161655
0.0192595
0.053545
0.000286292
0.000145507
0.000288791
0.000150435
0.000272808
0.000118218
0.000215766
0.00243483
0.00242273
0.00243483
0.00431687
0.00841743
0.00242261
0.00472963
0.00304852
0.00537427
0.00949102
0.00564736
0.00294328
0.0025658
0.00507688
1.56521e-06
3.32557e-06
3.31753e-06
3.31997e-07
5.45355e-07
1.07729e-06
7.95893e-07
1.84994e-05
1.86309e-05
1.86354e-05
3.98056e-05
2.64029e-05
1.78189e-05
1.57586e-05
0.0104487
0.0127044
0.0105265
0.0111101
0.01104
0.0053005
0.0111082
0.0152545
0.00400477
0.0109949
0.015655
0.00437623
5.27318e-07
3.02676e-06
1.12044e-06
4.47112e-07
7.82124e-07
1.55942e-06
6.67421e-07
3.69592e-09
1.30921e-08
5.20952e-09
3.09943e-09
4.83175e-09
8.78067e-09
4.51869e-09
5.47688e-12
2.1032e-11
1.73041e-11
4.17968e-12
5.00235e-12
1.19061e-11
9.92072e-12
9.11659e-10
6.69527e-10
2.68873e-09
1.12476e-09
5.23656e-09
5.11849e-09
1.25998e-08
3.11723e-08
1.08729e-08
3.23136e-08
1.3514e-08
1.07264e-08
2.35801e-08
3.12198e-08
6.49639e-08
5.38941e-08
0.981378
0.992073
0.964085
0.990738
0.958302
0.992055
0.972568
6.33749e-06
5.14574e-06
8.93371e-06
1.80556e-06
6.06622e-06
2.36862e-06
9.7676e-06
9.19459e-07
1.09783e-06
6.80714e-07
3.53595e-06
1.26246e-05
4.48247e-06
2.06272e-06
5.82894e-09
2.35582e-09
3.15933e-09
1.80939e-09
2.32363e-09
2.56681e-09
3.56648e-09
2.31677e-06
2.21541e-06
2.23411e-06
6.80048e-06
3.32689e-06
4.73074e-06
2.28384e-06
4.3452e-05
3.89453e-05
5.57886e-05
5.6618e-05
2.3284e-05
1.98171e-05
5.63714e-05
0.00125769
0.00496208
0.00217426
0.00423207
0.00424073
0.0028338
0.00321151
0.00160867
0.00160027
0.00107102
0.00107064
0.00105879
0.00154479
0.0016096
0.00129469
0.00136668
0.0025096
0.00250872
0.0025096
0.00200798
0.00134395
0.00913785
0.0411878
0.124613
0.0164491
0.00868495
0.0185169
0.0564375
0.816591
0.816507
0.816507
0.816527
0.799136
0.816445
0.816526
0.815748
0.815725
0.815722
0.815748
0.815657
0.815658
0.796462
0.816444
0.816591
0.815424
0.000144067
0.000472267
0.0010543
0.000187774
0.00011722
0.000186357
0.000538801
0.929123
0.929135
0.929111
0.929088
0.917516
0.929111
0.929072
0.273857
0.85266
0.882888
0.140549
0.0268441
0.0521158
0.520079
0.00298378
0.00617295
0.00630323
0.000887251
0.00379922
0.00304196
0.00165549
0.00234169
0.00225322
0.00247611
0.00227853
0.00369133
0.00360287
0.00398968
0.015975
0.00840493
0.0194257
0.0187505
0.017047
0.0194569
0.0194257
0.0073378
0.0167287
0.00640936
1.6056e-09
2.05615e-09
1.86816e-09
6.61578e-09
3.76301e-09
4.18345e-09
2.7588e-09
1.07238e-14
7.34421e-15
4.76647e-15
2.6996e-22
2.47721e-15
4.02005e-23
1.99221e-15
2.52671e-15
1.4553e-15
2.4863e-49
3.33725e-32
3.26573e-32
7.99292e-16
4.59732e-16
4.5354e-14
1.41737e-14
1.1613e-14
1.56918e-15
1.22572e-27
1.94577e-09
2.22506e-08
1.53486e-06
4.71615e-07
1.47313e-07
6.65959e-07
1.71167e-07
1.22727e-06
3.43679e-06
1.35663e-08
1.51703e-07
6.83762e-05
0.000112863
5.67035e-05
0.00010579
5.65713e-05
8.55867e-05
4.671e-05
8.97726e-07
1.70563e-06
4.89554e-07
4.91314e-07
5.04476e-07
7.70205e-07
4.89544e-07
5.14311e-05
3.2082e-05
1.28357e-05
1.28843e-05
1.42201e-05
1.38796e-05
3.62248e-05
0.00452925
0.00538516
0.00294189
0.00367013
0.0029154
0.00541883
0.00318807
0.00218447
0.00198079
0.000862927
0.00119423
0.00155024
0.00066706
0.000642573
0.0956084
0.591413
0.0914051
0.173175
0.154529
0.606105
0.0738344
0.0602375
0.0762758
0.0440058
0.0440059
0.0460007
0.571526
0.0224827
0.000857197
0.00038116
0.00120566
0.000389615
0.00122006
0.000380182
0.000775516
0.815748
0.762265
0.816009
0.827192
0.81469
0.827552
0.82436
0.230363
0.376906
0.827192
0.734083
0.82835
0.827552
0.80097
0.718274
0.000358613
0.000329909
0.000350776
9.51106e-05
0.000122649
0.00022103
0.000182768
0.000189992
0.000189992
0.000189992
0.000189992
0.000126735
0.000107624
0.00018999
4.04933e-05
4.1655e-05
4.87361e-05
7.73992e-05
4.25029e-05
2.24366e-05
4.9301e-05
0.00118701
0.000911017
0.00094016
0.00132379
0.00095056
0.00125266
0.00125869
0.00058681
0.000485988
0.000485798
0.000649249
0.00104397
0.000650868
0.00139085
0.00215755
0.000785253
0.00245988
0.000820375
0.00245682
0.00168479
0.00279003
0.00071976
0.000548424
0.000452868
0.000820001
0.000486886
0.000593632
0.00136536
0.000354285
0.000333868
0.000300574
0.000610231
0.000299512
0.000618792
0.000206583
0.000518288
0.000703096
0.000874007
0.0011303
0.000502131
0.000355793
0.0010677
0.00160496
0.0014714
0.0013718
0.00134452
0.00202961
0.00102596
0.00230851
0.00146891
0.00249949
0.00146891
0.0023706
0.00212355
0.00268461
0.0014781
3.67216e-05
1.75621e-05
1.75197e-05
2.06758e-05
1.98389e-05
1.36327e-05
4.14604e-05
3.26348e-07
8.0437e-07
1.355e-06
4.09646e-07
1.54472e-07
3.47298e-07
1.14161e-06
0.000244374
0.000765253
0.00103578
0.000192905
9.79547e-05
0.000226766
0.000414873
7.50374e-08
7.8082e-08
8.60323e-08
1.84212e-07
1.03959e-07
1.43116e-07
8.62341e-08
1.38235e-07
9.37149e-08
2.63255e-07
3.0155e-07
2.90399e-07
2.60933e-07
1.26497e-06
5.11249e-07
2.5652e-07
6.64564e-07
6.36742e-05
6.39654e-05
6.31732e-05
0.000143363
7.42651e-05
6.50006e-05
0.000144626
0.00270053
0.00303592
0.00337941
0.00453122
0.00357435
0.00281411
0.00274303
0.00401794
0.00385295
0.00199535
0.00247908
0.00188544
0.00403459
0.00402086
0.00103601
0.000585688
0.00106221
0.000367192
0.000741886
0.000590784
0.000271382
4.47575e-05
5.02175e-05
2.96166e-05
1.3821e-05
1.46189e-05
2.53832e-05
1.28087e-05
6.06855e-05
6.11859e-05
3.96088e-05
4.86204e-05
2.54767e-05
2.8817e-05
1.98558e-05
3.58489e-05
0.000116298
9.16948e-05
5.62705e-05
5.23926e-05
3.5109e-05
8.18116e-05
0.00405824
0.00164408
0.0044348
0.00164408
0.00164581
0.00454159
0.00662017
0.000312281
0.000214473
0.000380145
0.000182872
0.000362206
0.000139965
0.000184634
0.000943907
0.00300768
0.00033884
4.51404e-05
1.8237e-05
0.00124833
3.53819e-05
1.30524e-06
8.9911e-07
1.19053e-06
2.22856e-06
4.32871e-06
2.03985e-06
2.39345e-06
6.86227e-08
7.49379e-08
2.71696e-07
2.3515e-07
2.2587e-07
7.27023e-07
6.50081e-07
1.17433e-05
3.38786e-05
4.51154e-05
1.42729e-05
1.18106e-05
1.8973e-05
3.25893e-05
1.21486e-05
9.33508e-06
1.02141e-05
1.24191e-05
1.50248e-05
1.51227e-05
2.35921e-05
0.000563614
0.000428225
0.000428225
0.00047826
0.000646282
0.000942586
0.000434325
0.000380195
0.000543633
0.000378998
0.000382291
0.000382195
0.000411872
0.000413954
0.000949965
0.00145722
0.00120225
0.00146264
0.00144112
0.00145722
0.000444665
0.00137402
0.00140238
0.00141044
0.00132282
0.000936115
0.000491219
0.000534199
1.66081e-05
2.72701e-05
2.26893e-05
2.15827e-05
1.63385e-05
1.62831e-05
1.44742e-05
2.09217e-05
1.72524e-05
7.28669e-05
5.92595e-05
4.49737e-05
1.72734e-05
1.74072e-05
1.71089e-05
1.72058e-05
2.04565e-05
2.76144e-05
2.74063e-05
1.72949e-05
1.72186e-05
5.38161e-05
0.00011898
0.000208015
4.85723e-05
6.97999e-05
0.000101744
0.000170406
0.000642206
0.000211638
0.000380547
0.000786588
0.000243859
0.000118478
0.000340895
0.914366
0.499009
0.487443
0.798115
0.868056
0.914366
0.88316
0.776063
0.914525
0.797123
0.914135
0.89854
0.888186
0.891591
0.175133
0.622446
0.913345
0.914366
0.00525104
0.00539246
0.00539246
0.0053463
0.00330591
0.00330648
0.00529814
0.000726472
0.000217657
0.000839468
0.000733231
0.000721212
0.000142939
0.00170947
0.00252528
0.00293699
0.00272005
0.0041038
0.00995406
0.0045239
0.00860065
0.00583138
0.00590614
0.00891557
0.00616961
0.0155433
0.00629288
0.00894152
0.000224836
0.000244991
0.000247043
0.000248586
0.00022913
0.000160563
0.000106716
0.0204942
0.0204965
0.0204982
0.0204954
0.0204965
0.0233631
0.0397606
0.0204942
0.0205112
0.0205096
2.72361e-05
2.38359e-05
5.80674e-05
5.96681e-05
3.74799e-05
1.51792e-05
2.72645e-05
0.983818
0.984314
0.974157
0.764349
0.917511
0.977725
0.933913
0.00159624
0.00416135
0.000286865
0.000895654
0.000285102
0.00535289
0.0025707
3.50363e-06
1.18743e-06
2.77267e-06
3.53334e-06
6.20444e-07
5.20207e-07
5.3038e-06
6.77922e-06
2.98645e-06
2.987e-06
4.50287e-06
1.13381e-05
3.93476e-06
1.50277e-05
3.20605e-05
1.79667e-05
1.79716e-05
2.42393e-05
4.24928e-05
2.7923e-05
5.54206e-05
5.2485e-08
1.58815e-07
5.22205e-08
2.2627e-06
1.83756e-06
4.54663e-06
4.13511e-06
8.42903e-06
1.36284e-05
2.92342e-05
3.09857e-05
1.54687e-05
2.45703e-05
1.52915e-05
3.06249e-05
2.84283e-05
1.51919e-05
2.79945e-05
3.45391e-05
1.52991e-05
2.22668e-05
2.67613e-05
6.05945e-05
1.35706e-05
1.54391e-05
9.05477e-06
1.74584e-05
2.55161e-05
1.41833e-05
5.84564e-05
5.83986e-05
5.84564e-05
5.83641e-05
4.25188e-05
5.59664e-05
2.86588e-05
1.63762e-05
7.83388e-06
1.8613e-05
1.8613e-05
1.85967e-05
1.7222e-05
1.62284e-05
1.19047e-06
1.22154e-06
1.18457e-06
1.93967e-06
2.88683e-06
2.90723e-06
1.21378e-06
1.89467e-06
2.81002e-06
0.0013362
0.00171035
0.000434325
0.000531587
0.0011586
0.000384928
0.000599611
0.000386978
0.00224324
0.000721081
0.0025881
0.0025881
0.0025881
0.0025881
0.00237816
0.00117797
0.00258599
2.29363e-05
3.019e-05
2.29381e-05
5.08542e-05
2.46043e-05
6.90489e-05
1.63958e-05
0.00142796
0.00135197
0.00168664
0.00679022
0.00409103
0.00265192
0.00388283
0.808277
0.808277
0.808277
0.808161
0.631765
0.47043
0.0899019
0.0613065
0.0566727
0.154531
0.0582452
0.185727
0.0657697
0.913619
0.714979
0.505612
0.862245
0.912304
0.913813
0.913813
0.0204943
0.0204456
0.0207323
0.0225712
0.0251532
0.0445588
0.021608
0.0294033
0.0406913
0.0204666
0.000294835
0.000794338
0.000388573
0.000251054
0.000513023
0.000942782
0.00022137
2.72522e-09
3.92052e-09
8.21082e-09
6.39835e-09
5.58556e-09
2.70598e-09
2.69258e-09
0.000196398
0.000278335
0.000136735
0.000136761
0.000133291
0.00022078
0.00031997
0.963559
0.919162
0.891532
0.963149
0.964895
0.91759
0.95004
1.63055e-06
1.53145e-06
8.7616e-07
5.51944e-07
1.22277e-07
9.18716e-08
5.39994e-07
5.86786e-07
2.13467e-07
1.49739e-07
4.60094e-07
4.50315e-07
1.9522e-07
9.72479e-08
2.50315e-08
4.05566e-08
4.3231e-08
2.06102e-08
6.64245e-08
2.32419e-08
7.5509e-08
1.38921e-07
6.2287e-07
5.91521e-07
9.83656e-08
1.19598e-07
2.76549e-07
3.10963e-07
3.77093e-07
7.21985e-07
8.74903e-07
2.57543e-06
3.06668e-06
1.21155e-06
1.03301e-06
1.84878e-05
1.84878e-05
1.96923e-05
2.32353e-05
2.46538e-05
2.40204e-05
4.67787e-05
1.57401e-05
1.57401e-05
8.28937e-06
8.80459e-06
9.45207e-06
1.57181e-05
4.00849e-06
7.40346e-06
1.17331e-05
2.5253e-05
2.52448e-05
2.5253e-05
2.06814e-05
1.05823e-05
1.57688e-08
1.29187e-08
1.56692e-08
1.06469e-08
1.56174e-08
1.11964e-08
1.06606e-08
1.49773e-08
3.55052e-08
1.50903e-08
3.52973e-08
3.6481e-08
3.05283e-08
2.3783e-08
3.43643e-06
1.63281e-06
5.85681e-06
6.2262e-06
4.18196e-06
1.04654e-05
3.52071e-06
9.53017e-06
4.67105e-06
4.63623e-06
0.00011609
0.00019594
0.000115192
0.000217371
0.000449461
0.000255831
0.00014602
0.000247759
0.000132727
0.00013153
0.00068183
0.000282974
0.000324972
0.000155111
0.000515252
0.00200466
0.00051627
0.0018203
0.000826528
0.00196646
0.00057164
0.000263309
0.000263227
0.000263309
0.000263227
0.000263123
0.000263227
0.000263244
0.000480923
0.00203673
0.000857958
0.000600885
0.000479427
0.0014319
0.000692566
3.31285e-05
2.98328e-05
2.59543e-05
2.53525e-05
4.60288e-05
1.56265e-05
4.62207e-05
0.00132151
0.00223057
0.00129076
0.00755103
0.0115296
0.00467919
0.00246055
0.903236
0.879935
0.909068
0.0341428
0.6786
0.144537
0.420884
0.620435
0.918438
0.918808
0.918935
0.917773
0.918808
0.758548
0.922627
0.922628
0.922628
0.922628
0.922415
0.847069
0.922608
0.31236
0.898961
0.918935
0.918935
0.919963
0.921791
0.823182
0.713163
0.123295
0.124402
0.704071
0.254942
0.0726587
0.0478259
0.0738543
0.0221067
0.0118885
0.0194846
0.0235004
0.0170385
0.00428828
0.00798423
0.00967093
0.00201357
0.00196138
0.003571
0.278681
0.725943
0.722284
0.107888
0.50837
0.908112
0.741144
0.01808
0.0158227
0.0180523
0.01587
0.0245578
0.0179676
0.0121502
0.0281221
0.0481495
0.0920191
0.0920191
0.079186
0.087348
0.0301519
0.272395
0.116286
0.106823
0.916394
0.605348
0.315743
0.291563
1.1671e-05
2.31642e-05
1.17197e-05
1.18515e-05
1.68852e-05
1.37787e-05
3.07084e-05
1.67662e-05
2.82334e-05
2.82334e-05
1.34379e-05
5.69166e-06
2.80795e-05
5.35855e-06
4.81708e-06
3.57072e-06
6.04129e-06
2.5054e-06
4.67729e-06
1.75382e-06
2.34732e-06
0.0404003
0.0171985
0.0185547
0.241793
0.369805
0.021575
0.0361077
1.18134e-06
1.17239e-06
4.36248e-07
4.84931e-07
6.51321e-07
4.84089e-07
1.81922e-07
5.1486e-06
5.10133e-06
6.63333e-06
8.57222e-06
5.19173e-06
3.15838e-06
1.01352e-05
4.99046e-06
6.94039e-07
6.04248e-06
3.08531e-06
5.90681e-06
1.00671e-06
3.84045e-06
7.11094e-08
3.6278e-08
4.03723e-08
3.31373e-08
7.24996e-08
1.76522e-05
4.76835e-05
1.35773e-05
1.51152e-05
1.34186e-05
3.68645e-05
2.07622e-05
7.38089e-06
5.33932e-06
5.77935e-06
5.56151e-06
1.43498e-05
1.32259e-05
9.2369e-06
0.000153771
8.30873e-05
0.000153598
7.41241e-05
7.27295e-05
3.86189e-05
9.14076e-05
0.000197199
0.000358837
0.000358837
0.000283946
0.000119243
0.000358802
0.000226927
0.922628
0.777442
0.922609
0.0146005
0.0146005
0.0146005
0.0239889
0.0219383
0.0216125
0.0248418
0.0118076
0.015577
0.0118083
0.0345312
0.0345312
0.0345253
0.0345271
0.0146095
0.0148781
0.0149471
0.0116868
0.0242067
0.0204806
0.0600906
0.0963977
0.0569597
0.120144
0.0582165
0.0609947
0.0471419
0.0383085
0.0406865
0.110242
0.154922
0.0381691
0.154692
0.0430978
0.036376
0.12376
0.155498
0.155306
0.155498
0.155492
0.104008
0.123614
0.155174
0.992186
0.997047
0.997695
0.995805
0.980243
0.994055
0.999065
0.986185
0.999339
0.999255
0.997562
0.995035
0.997255
0.973347
0.992652
0.997967
0.997223
0.992022
0.996902
0.999269
0.99712
0.999136
0.995875
0.990892
0.796079
0.62542
0.549665
0.843397
0.954089
0.965968
0.983628
0.596586
0.596586
0.712294
0.977606
0.94865
0.922718
0.890859
0.125885
0.0496948
0.117342
0.591234
0.394284
0.0620102
0.0711556
0.00118584
0.00156936
0.00118506
0.00447318
0.00182565
0.00352436
0.00131228
0.0207652
0.0107927
0.00454963
0.00408478
0.00567978
0.0166608
0.0166543
9.02017e-05
5.06543e-05
5.3082e-05
8.41016e-05
9.32826e-05
0.000103992
0.00012873
4.88894e-06
1.34264e-05
1.64877e-05
9.63207e-06
1.7607e-05
6.5197e-06
4.9638e-06
6.25332e-08
1.62188e-08
6.51186e-08
4.26897e-08
5.12924e-08
1.16769e-08
8.68631e-08
2.10008e-06
2.14409e-06
2.17674e-06
1.92033e-06
2.14812e-06
2.21051e-06
2.88122e-06
1.47987e-05
9.32765e-06
1.46401e-05
3.92736e-06
1.05207e-05
4.1085e-06
8.86744e-06
1.04787e-05
1.3925e-06
2.14076e-06
1.37583e-06
3.52322e-06
1.64249e-06
8.82244e-07
6.25818e-07
6.37346e-07
6.25818e-07
1.67031e-06
8.54482e-07
1.67729e-06
4.56907e-07
8.734e-07
1.06928e-06
2.53007e-07
4.11933e-07
7.01259e-07
1.3106e-06
3.21008e-06
3.17084e-06
2.92553e-06
1.53435e-06
2.99408e-06
8.25608e-07
1.64925e-06
0.949761
0.951164
0.862648
0.951163
0.941128
0.949596
0.951163
9.08122e-06
1.12791e-05
9.10573e-06
1.12836e-05
1.12853e-05
9.12923e-06
9.43168e-06
2.39977e-05
1.34758e-05
2.18614e-05
8.92707e-06
8.92656e-06
8.95818e-06
1.08342e-05
0.00011677
6.09902e-05
4.96142e-05
1.22931e-05
4.0474e-05
2.28728e-05
8.42404e-06
0.981717
0.981516
0.981516
0.981533
0.961881
0.948274
0.931018
0.995846
0.993872
0.995846
0.991566
0.994177
0.995229
0.994962
0.971108
0.981717
0.96655
0.985864
0.631845
0.422481
0.494492
0.972982
0.949247
0.986478
0.0158998
0.043851
0.0205546
0.0236949
0.0158342
0.0321827
0.0145904
0.00594473
0.0160094
0.0105218
0.00334228
0.00318741
0.00659322
0.00680361
0.00203442
0.00285049
0.00204782
0.0494092
0.0255606
0.0497657
0.0557694
0.0505773
0.155146
0.0309016
0.0105843
0.0111869
0.0051872
0.00913848
0.0632699
0.044935
0.0423132
0.388124
0.392719
0.406361
0.977924
0.729113
0.474346
0.951946
0.997058
0.991688
0.997132
0.997486
0.993981
0.992929
0.997377
0.99851
0.998908
0.998833
0.998908
0.997503
0.998709
0.995325
0.99722
0.995228
0.997891
0.998436
0.995345
0.986441
0.98488
0.511333
0.456276
0.375823
0.0408513
0.248943
0.821737
0.0390974
0.01524
0.00329624
0.0116555
0.014158
0.00542504
0.00405712
0.00960593
0.00103962
0.00144945
0.0010166
0.000689683
0.00033187
0.000157679
0.00115733
4.24717e-05
4.28418e-05
6.27805e-05
8.64603e-05
0.000185632
4.90812e-05
8.42437e-05
1.20107e-05
1.33174e-05
1.20107e-05
3.44017e-05
2.47037e-05
3.05243e-05
1.20215e-05
7.57262e-05
7.42171e-05
4.76989e-05
2.11802e-05
2.00142e-05
3.82514e-05
1.9808e-05
4.98981e-08
5.54132e-08
5.18054e-08
2.43904e-07
9.72198e-08
6.33432e-08
1.26533e-07
2.69274e-05
4.52278e-05
4.24011e-05
2.69274e-05
3.58464e-05
8.11115e-05
3.50512e-05
0.000136368
0.000180744
0.000136173
0.000180281
0.000179589
0.000181
0.000162611
1.45912e-05
1.46173e-05
2.32927e-05
2.23047e-05
4.28865e-05
1.44773e-05
3.03145e-05
9.2099e-07
7.29035e-07
7.28539e-07
2.97307e-06
2.33444e-06
1.73941e-06
3.20876e-06
1.4604e-07
7.578e-08
1.11348e-07
1.84073e-07
5.23218e-07
2.88971e-07
1.9138e-07
2.60333e-08
1.27814e-07
3.19013e-08
1.19347e-06
8.07934e-07
7.35494e-07
7.35955e-07
9.73369e-07
1.6631e-06
8.57757e-07
1.45252e-06
1.10353e-06
1.98294e-06
3.81046e-06
2.04277e-06
1.24198e-06
2.27974e-06
6.29314e-06
6.54972e-06
3.5356e-06
2.90331e-06
2.9121e-06
8.04905e-07
7.94962e-07
1.60644e-06
1
1
1
1
1
1
1
1
1
0.000282733
0.000309756
0.000884623
0.0299943
0.00992526
4.96208e-05
0.00013126
0.00126659
5.73992e-06
1.82438e-171
1.01753e-05
0.000180454
1
1
1
1
1
1
1
1
1
1
1
1
1
1
1
1
1
1
1
1
1
1
1
1
1
1
1
1
1
1
1
1
1
1
1
1
1
1
1
1
1
0.538452
0.236772
0.972899
0.993493
0.993492
0.929007
0.95195
3.0262e-17
8.11597e-18
4.99948e-18
2.12989e-18
1.18192e-18
8.44737e-18
3.28326e-18
1.99315e-18
4.19609e-18
0.990737
0.978211
0.992084
0.990415
0.992081
0.969007
0.978157
0.987625
0.985609
0.961822
0.990102
0.978657
0.947394
0.955907
0.975245
6.6784e-18
5.6444e-17
1.47683e-17
7.7593e-18
8.42591e-18
2.98597e-17
1.17541e-05
1.43683e-05
2.6705e-05
1.7455e-05
1.75039e-05
1.7455e-05
0.00354532
0.000588301
0.00309081
0.000894155
5.02946e-05
8.9678e-05
8.96944e-05
8.21736e-10
6.71405e-10
6.89902e-10
3.47906e-06
3.47749e-06
3.47906e-06
0.000662472
0.00142678
0.000765087
8.9678e-05
7.66009e-05
8.95883e-05
4.768e-05
4.9709e-05
4.9709e-05
4.96628e-05
8.88266e-10
1.55396e-09
6.84425e-10
8.73731e-10
0.00227666
0.000221797
0.00102964
0.00130439
3.47742e-06
3.47792e-06
3.47742e-06
3.47906e-06
8.76051e-06
1.06769e-05
9.37258e-06
1.25856e-05
8.64005e-06
8.65413e-06
8.65413e-06
9.84003e-06
8.7741e-06
8.63855e-06
3.05091e-05
1.73504e-05
2.6958e-05
2.70828e-05
0.000634803
0.00107211
0.00650336
0.0162095
0.00223483
0.00428869
0.00798303
0.0146495
0.00651403
0.0105303
1.16187e-05
1.94971e-05
1.33387e-05
2.93653e-05
1.87034e-05
8.77933e-06
0.00185443
0.00337394
0.00316179
0.00152746
0.00167871
0.00168934
0.00104408
0.00316422
5.90301e-08
7.20697e-08
2.28588e-08
8.98245e-08
0.224046
0.162567
0.110094
0.0542607
3.35068e-05
6.39853e-05
9.81562e-05
4.8687e-07
2.50896e-07
3.42296e-07
2.01506e-07
0.0120644
0.0164489
0.0174269
0.0396126
0.00224238
0.00139622
0.00174052
0.00306115
2.86531e-13
6.02712e-13
9.37939e-13
0.00701984
0.00852421
0.0398755
0.0216766
0.0434351
0.015387
0.822758
0.242184
0.655371
0.856446
4.09931e-06
4.89672e-06
1.3141e-16
1.33554e-16
7.51913e-16
4.48874e-16
0.927187
0.927186
0.90549
0.729417
2.6389e-06
8.57083e-07
1.15139e-06
8.53709e-07
0.0553587
0.0228779
0.0316498
0.0325376
0.00212606
0.00100472
0.00367505
0.000711638
1.06554e-06
1.66873e-06
1.17325e-06
1.07867e-06
3.5138e-06
2.0099e-06
0.000371885
0.000377131
0.000314812
0.000843694
0.00914178
0.00400378
0.00913403
0.00632051
0.0454087
0.0197916
0.0140874
0.0119981
0.000642902
0.00129561
0.999981
0.999999
6.26658e-05
2.61256e-05
7.81667e-05
5.5128e-05
0.015174
0.0106391
0.0768547
0.0347488
0.0102629
0.0278189
0.0267478
0.0525502
2.43766e-07
3.16194e-07
3.57347e-19
1.73915e-19
4.15972e-19
6.66197e-20
0.0200416
0.00889581
0.00389319
0.00388467
0.00014261
7.69353e-05
4.9359e-07
1.24661e-06
6.48773e-05
6.48834e-05
0.000668986
0.000556288
0.00324949
0.00523103
0.348224
0.586429
0.878615
0.981767
0.99228
0.97865
0.991241
0.00371738
0.00207756
0.00258205
0.00487309
0.183524
0.0320301
0.027023
0.49541
0.155985
0.325639
0.0467226
0.387777
0.441064
1.29455e-05
4.84707e-06
0.0015911
0.00558731
0.00408438
0.000308416
0.00100223
0.00194532
1.51363e-08
3.75176e-09
2.83248e-07
1.02271e-07
3.9075e-08
3.44427e-07
2.36473e-11
1.79637e-11
9.37474e-05
9.37661e-05
9.37642e-05
9.37642e-05
0.00024664
0.000248939
0.000216373
0.000170729
0.00380313
0.00798503
0.00252443
0.0117526
1.03742e-05
7.33424e-06
4.06792e-05
7.28895e-06
0.000371217
0.000372275
0.00118661
0.000848354
0.000635543
0.000738039
0.0246077
0.00977571
1.55738e-07
1.61614e-07
0.951163
0.895151
9.07466e-05
0.000154138
6.52023e-05
4.4826e-05
0.849143
0.95121
0.00254596
0.00330943
0.768536
0.961792
2.56803e-05
8.65133e-05
2.56835e-05
0.000111592
0.012511
0.0397076
0.0392533
0.14251
0.000111659
7.77256e-05
6.91487e-12
5.36005e-12
2.5789e-12
1.09105e-12
4.78186e-08
9.30107e-08
1
1
1
1
1.91569e-05
3.92989e-05
2.86871e-05
9.82822e-05
0.298599
0.0722755
0.440045
0.178779
3.58091e-10
9.8359e-10
1.2046e-09
1.84937e-09
0.00609206
0.00687485
1.8457e-05
2.44671e-05
0.000764375
0.00113408
0.000396229
0.000604996
0.979621
0.967043
0.944338
0.837349
1.23946e-07
1.15055e-07
8.10285e-08
1.45884e-07
9.49253e-09
1.51355e-08
0.0155212
0.00454299
2.04464e-14
4.82713e-14
0.978845
0.990384
1
0.764166
0.237205
0.923821
0.0940514
9.91403e-06
3.76148e-05
2.1299e-05
1.77196e-05