/*--------------------------------*- C++ -*----------------------------------*\
| =========                 |                                                 |
| \\      /  F ield         | OpenFOAM: The Open Source CFD Toolbox           |
|  \\    /   O peration     | Version:  v2012                                 |
|   \\  /    A nd           | Website:  www.openfoam.com                      |
|    \\/     M anipulation  |                                                 |
\*---------------------------------------------------------------------------*/
FoamFile
{
    version     2.0;
    format      ascii;
    class       volScalarField;
    location    "0.25";
    object      p_rgh;
}
// * * * * * * * * * * * * * * * * * * * * * * * * * * * * * * * * * * * * * //

dimensions      [1 -1 -2 0 0 0 0];


internalField   nonuniform List<scalar> 
24700
(
2823.05
2802.47
2868.42
2788.58
2790.03
2876.82
2846.27
2829.52
2772.48
2772.6
2796.46
2799.35
2788.33
2819.82
2812.5
2808.05
2804.88
2852.72
2841.56
2805.55
2888.81
2886.84
2812.5
2805.53
2910.71
2849.6
2858.01
2823.64
2853.61
0.0654412
0.0426599
0.0262045
0.0970732
0.118715
0.0591275
0.11316
1.4914
1.26026
1.39469
1.37303
1.36807
1.21877
1.42183
-1.45116
-1.61858
-1.45685
-1.50774
-1.58369
-1.64102
-1.47348
-2.78932
-2.78869
-2.93009
-2.74953
-2.71795
-2.75622
-2.81331
0.909955
2.76558
0.737962
8.98513
16.2039
2.00005
3.37471
-0.683583
-0.732064
-0.689758
-0.654749
-0.674278
-0.705479
-0.671753
-0.135115
-0.144147
-0.143592
-0.188323
-0.14952
-0.13308
-0.155635
1570.93
232.147
2704.17
1577.77
165.296
2179.32
2616.92
0.180026
0.192172
0.181233
0.214814
0.227764
0.218756
0.221411
-0.340182
-0.368898
-0.338089
-0.331153
-0.304968
-0.35055
-0.322078
-0.860132
-0.803602
-0.83575
-0.927903
-0.872312
-0.840104
-0.889278
2.50727
-1.25481
-1.45835
-0.847593
0.0767069
-1.19979
2.71554
0.221451
0.190149
0.231572
0.250706
0.297381
0.279102
0.227686
0.223533
0.202625
0.162044
0.0528143
0.0334307
0.0633518
0.0846834
0.125173
0.0673873
0.0966559
0.0570071
0.050666
0.0131937
0.0379283
0.079781
0.143785
0.12182
0.13072
0.100136
0.109005
0.126307
0.112933
-0.337583
-0.303352
-0.329203
-0.36934
-0.340787
-0.319383
-0.346581
-1.48944
-1.63483
-1.47907
-1.58914
-1.50982
-1.64115
-1.47604
-3.05683
-2.93018
-3.05717
-3.13503
-3.1111
-3.02312
-3.10878
4.83915
4.58004
9.82984
24.6234
8.33484
6.66956
13.3398
247.024
701.225
247.668
471.583
445.724
707.343
141.187
116.337
128.297
109.168
112.189
108.344
116.338
110.396
510.165
485.346
447.304
535.684
540.127
571.201
496.122
-2.93219
-2.91598
-2.86616
-2.86573
-2.84722
-2.89926
-2.91148
-2.20099
-2.24378
-2.25138
-2.29495
-2.1758
-2.19138
-2.27343
1840.13
1770.88
1984.8
1770.24
1947.8
1959.62
1889.87
-0.626841
-0.562023
-0.588771
-0.701302
-0.630183
-0.590786
-0.647305
-3.82672
-3.91078
-3.70978
-3.88843
-4.20432
-3.81788
-4.03131
-6.6488
-6.4712
-5.30757
-5.25217
-5.80622
-6.49019
-6.25241
-3.03361
-0.325358
-2.58954
-3.20867
-3.13808
-2.51182
-3.05068
120.245
102.365
112.103
117.738
115.732
99.7677
108.783
111.893
109.696
110.398
111.86
113.829
112.221
352.983
321.176
333.905
349.717
433.739
359.252
725.54
751.676
726.873
740.32
542.761
608.332
711.488
506.875
450.314
489.88
574.491
507.029
539.128
515.012
440.716
432.599
405.575
430.876
426.984
427.14
447.185
240.772
184.723
285.715
257.746
88.5801
103.636
257.96
14.1833
38.5915
152.421
5.48083
51.3853
17.2203
9.19429
92.1861
3.97872
22.9794
11.3779
5.86746
2.29509
4.46333
1.58461
11.8709
9.4929
4.9967
11.977
22.0505
4.13615
-1.58987
-1.58959
-1.3946
7.94656
2.21637
0.320806
2.46277
-1.97761
-1.89738
-1.89598
-1.92081
-1.95448
-1.90932
-1.98453
-1.08257
-1.12351
-1.12843
-1.18204
-1.12033
-1.15201
-1.09433
-0.392348
-0.423258
-0.443943
-0.490328
-0.445405
-0.45344
-0.415623
0.22525
0.328153
0.353315
0.0962788
0.0703808
0.197727
0.198119
1.06883
0.92227
0.931913
0.781331
0.894065
0.870264
0.981438
0.770436
0.728284
0.697954
0.640853
0.655499
0.675723
0.708219
0.507117
0.45819
0.509594
0.490616
0.559681
0.463997
0.516252
0.336899
0.357763
0.310213
0.423463
0.377138
0.347878
0.37552
0.270096
0.251925
0.285276
0.228814
0.216465
0.238592
0.252022
0.122229
0.144491
0.131682
0.109108
0.0998831
0.126479
0.112983
0.010004
0.00166556
0.002297
0.0142785
0.0232029
0.0124198
0.0091985
-0.337385
-0.368479
-0.339852
-0.304753
-0.330684
-0.350129
-0.321745
-0.448918
-0.450823
-0.482445
-0.446174
-0.421807
-0.435274
-0.467653
2135.89
1978.22
1749.81
2140.93
2148.49
2112.71
1985.5
-4.55318
-4.61387
-5.3277
-4.82953
-4.59241
-5.13798
-4.15592
-8.60207
-9.19737
-8.28487
-8.85937
-9.78559
-8.30361
-9.27463
146.992
184.422
196.343
243.611
178.227
205.991
112.636
154.646
225.2
190.688
253.694
201.503
233.448
247.074
242.26
212.521
259.186
234.731
225.89
157.324
171.774
184.929
126.72
131.27
116.767
151.209
179.382
157.854
258.075
190.728
129.752
113.289
113.039
111.573
110.977
109.486
111.663
111.257
-1.89988
-3.08482
-2.52507
-2.64287
-3.09319
-3.09891
-2.7287
-2.37627
-2.38371
-2.45779
-2.43409
-2.36691
-2.38204
-2.45643
-2.39262
-2.37469
-2.44741
-2.45331
-2.42044
-2.41921
-2.46373
-2.08347
-2.04994
-2.03281
-2.10979
-2.1531
-2.09772
-2.06845
-1.35867
-1.33911
-1.39436
-1.40013
-1.48152
-1.36475
-1.41864
-0.776641
-0.74153
-0.778457
-0.824144
-0.766402
-0.754488
-0.812149
-0.743108
-0.882823
-0.938482
-1.12029
-0.946243
-1.02311
-0.85461
3.91445
3.04095
3.86811
7.35611
3.96985
3.47751
4.33126
0.851133
0.928396
0.870356
1.01283
0.97563
0.938734
0.924336
-0.000444589
0.00270462
0.00143454
-0.00281142
0.00402525
0.00106009
0.00190417
-0.00299936
-0.00416613
-0.00356643
-0.0129344
0.00205675
-0.00747691
0.000285818
-0.110284
-0.173436
-0.133344
-0.0602313
-0.0939752
-0.130963
-0.105694
-7.81321
-8.45366
-8.98415
-8.1607
-8.58537
-7.83001
-8.90103
-4.90307
-4.58989
-4.17746
-1.21121
-3.04912
-3.10808
-4.74827
-1.62674
-1.1379
-0.77165
-1.30228
-1.29541
-2.4323
-0.610946
134.631
93.4387
92.3208
88.9704
99.9683
91.0279
101.355
94.7843
97.4993
96.8825
97.1892
97.4594
97.7784
96.1259
521.516
443.47
535.436
538.911
416.179
381.598
537.166
706.444
731.66
786.838
632.446
759.019
777.482
738.059
-2.18258
-2.62264
-2.72163
-2.1848
-2.4798
-2.50873
-2.75386
-0.987835
0.189557
-0.793517
13.7296
6.54055
2.76745
0.142387
930.524
936.677
949.652
890.872
808.281
920.874
944.12
-2.47111
-2.46571
-2.48523
-2.51701
-2.50956
-2.49193
-2.49063
-2.28353
-2.03993
-2.05347
-1.95859
-1.88613
-1.94851
-2.07767
-1.25065
-1.34212
-1.31278
-1.3617
-1.28456
-1.35089
-1.27158
1.68911
4.1408
2.15378
3.58778
3.73031
4.99059
5.28812
5.31327
5.94437
5.44146
5.14201
5.81498
-0.0863762
7.58269
2.65105
4.36873
3.45666
6.67086
7.32545
1.92009
9.20852
-0.818695
3.42194
6.38904
3.29451
1.69739
3.03206
3.73504
4.18307
0.0113414
0.00217178
0.0190167
0.00894127
0.00820104
0.00641693
0.0143895
-0.116021
-0.13072
-0.152354
-0.134581
-0.111597
-0.127387
-0.120741
0.145847
0.121506
0.145833
0.162989
0.151179
0.132779
0.14932
0.12971
0.150244
0.146803
0.155659
0.161234
0.152137
0.138648
0.0434928
0.0417779
0.0791382
0.0724548
0.000942373
0.0817418
0.022705
-0.289435
-0.348713
-0.467545
-0.33177
-0.289192
-0.397043
-0.28262
0.885794
0.506097
-1.33822
-0.308878
0.556897
0.551789
-1.86435
-4.17477
-3.93499
-3.81563
-4.0023
-3.94966
-4.15391
-3.98885
0.229211
1.16249
3.4708
1.52056
-1.22913
-2.49245
4.59268
3.42403
-0.144677
5.72832
2.93137
-1.80046
97.9826
98.4695
97.8465
97.2183
97.6585
98.8555
97.7643
153.002
146.642
144.109
156.817
205.969
129.406
234.205
117.638
46.3276
171.488
25.1644
89.7534
30.0088
48.8876
-0.369326
0.381871
-1.92376
4.09764
16.3055
-0.716914
-1.31781
-1.59179
-1.71334
-1.50023
-1.52558
-1.39298
-1.67063
-1.55153
-0.837884
-0.752511
-0.412333
0.38945
2.6127
-0.579214
0.367577
0.13295
1.71726
5.26467
2.28583
-0.118672
-0.324224
2.0253
-2.83057
-2.81928
-2.87928
-2.89171
-2.94184
-2.85014
-2.88299
-3.47397
-3.28941
-3.35354
-3.58403
-3.56096
-3.40235
-3.4796
10.81
15.4394
13.6285
-7.18449
7.81074
-1.47423
2.50804
22.5059
-2.13283
1.57826
3.87286
-0.863004
-0.948341
-0.896335
-0.743331
-0.946651
-1.13281
-1.03899
-0.859577
-0.352879
-0.43795
-0.336203
-0.294215
-0.355691
-0.402427
-0.314985
-0.172226
-0.209309
-0.159223
-0.144868
-0.177272
-0.196368
-0.150745
0.00479425
0.005168
-0.00133321
0.00207213
0.00860901
1.9187e-05
-0.0102918
-0.0214532
-0.0210119
-0.012824
0.00257747
0.00496475
-0.0134026
-0.00255286
-0.023967
-0.0153743
2533.85
2593.09
2523.49
2610.19
2517.7
2604
2535.72
0.101321
0.124742
0.125264
0.1142
0.102025
0.120771
0.121457
0.232292
0.227879
0.227078
0.249352
0.268632
0.241656
0.239602
0.216269
0.197051
0.174161
0.193114
0.213208
0.183506
0.216785
0.215034
0.211354
0.245204
0.28207
0.27422
0.244484
0.245946
0.377825
0.417841
0.413905
0.349417
0.366103
0.375921
0.384489
0.443014
6.81117
2.39444
6.56273
5.71713
3.55374
3.70377
-0.608262
-0.133354
-1.40338
-1.39072
-1.79003
-0.356978
-1.2372
3.07278
3.51921
4.28025
3.63489
4.75912
2.73852
2.83683
1.921
4.23014
12.29
0.452408
-0.279684
-0.143408
6.81126
-26.3547
-120.674
-95.8568
208.778
85.549
31.964
-47.8139
62.2637
2.07647
-56.8385
65.5648
9.98347
170.478
-2.44049
274.548
29.5541
-27.5423
-0.943153
-0.911887
-0.747731
-0.816596
-0.980584
-1.02711
-0.82957
355.614
379.092
379.571
396.973
379.819
385.788
368.374
145.64
499.219
496.461
75.6868
11.9601
23.3946
269.917
-0.322722
1.96657
2.38653
-1.68305
0.0414096
-0.426258
-1.14234
-1.88991
-1.42899
-1.86555
-1.73266
-0.344787
0.141947
0.830101
16.9241
28.9065
45.6964
36.7098
37.8693
23.0731
39.8907
21.3991
-3.09438
8.45151
-0.36802
-0.421082
-0.422024
-0.495147
-0.408673
-0.458887
-0.390113
-0.0402081
0.0801785
-0.0429919
-0.0178691
-0.101599
-0.0531775
-0.0473781
0.0482782
-0.0518516
-0.0346301
-0.0287285
-0.00193669
-0.130833
-0.0883259
-0.0217465
0.148493
-0.0835829
-0.0395703
0.000891201
-0.0672541
-0.0329571
0.000569529
-0.0166051
-0.0406862
0.00370907
-0.0514735
-0.043814
-0.00596524
-0.0698682
-0.0680056
0.412314
0.529637
0.378875
0.521755
0.370891
0.458013
0.346809
0.3802
0.419751
0.396952
0.408646
0.381551
0.416299
0.37636
0.454427
0.426829
0.402127
0.446685
0.409914
0.423027
0.4129
6.67593
9.13743
4.57326
6.4804
4.91443
9.14117
4.97435
0.866785
1.47762
-0.491007
0.580845
-0.754704
0.78535
-0.657288
154.886
494.303
155.973
196.155
201.738
526.614
142.692
38.0212
47.6498
28.1028
24.1295
29.3097
357.81
13.5799
-2.8189
-2.62267
-2.48152
-2.6193
-2.23921
-2.54535
-2.6775
140.303
131.569
305.932
30.957
42.8523
62.555
100.159
7.83634
-0.493659
94.2275
70.1651
149.694
9.09738
26.8271
47.7741
-2.08
-2.13146
-2.10484
-2.28193
-2.19489
-2.20311
-2.17441
-2.36332
-2.35128
-2.38173
-2.34985
-2.40887
-2.41397
-2.36037
-2.414
-2.35781
-2.26289
-2.39468
-2.36463
-2.46692
-2.29883
-5.27511
-6.39949
-6.13971
-6.1644
-5.66398
-6.17717
-5.11007
-7.85528
-8.53285
-7.7207
-7.21685
-6.42735
-7.87236
-6.33101
-3.21986
-5.89038
-3.66194
-7.31141
-4.5845
-5.40152
-3.31787
-2.25819
-1.70634
-2.28946
-2.02229
-2.31144
-2.00799
-1.15448
-2.93093
-2.55127
-2.75892
-2.03618
-2.76683
-2.03232
-2.94278
-2.15114
-2.43256
-1.80213
-0.736052
-1.84901
-2.36964
-0.86402
-0.563843
-0.819601
-1.03415
-1.21184
-0.102082
-1.69804
0.413773
-2.72833
-1.93731
-2.53772
-1.31941
-1.55804
-1.12238
-2.33324
-1.97327
-1.87227
-2.02403
-1.97952
-2.19296
-1.90373
-2.0591
-0.554763
-0.517758
-0.57979
-0.564176
-0.530172
-0.523124
-0.569463
0.462925
1.73267
2.84035
0.0362312
-0.0870743
0.333214
0.812519
0.00244303
0.0152418
0.0113625
0.0137631
-0.000394156
0.017418
0.00325037
0.0165985
0.000988396
0.0166799
0.122068
0.128592
0.106252
0.151508
0.143179
0.126588
0.139866
0.869843
0.850226
0.849265
1.09083
0.926796
0.884909
1.06984
4.72317
6.05138
6.42749
7.25021
5.85988
3.94075
3.73802
2.23821
1.52944
-0.712306
0.411612
0.805512
2.73935
2.30264
-6.6366
-6.83668
-5.39035
-7.74304
-7.6995
-7.16592
-6.70267
-2.07423
-2.03834
-2.11832
-2.10418
-2.01695
-2.00585
-2.11104
-2.39837
-2.32317
-2.42786
-2.35838
-2.4602
-2.31465
-2.43846
-2.752
-2.75694
-2.72793
-2.88797
-2.81306
-2.75383
-2.79234
2.5771
-1.22432
3.02127
-1.24242
-1.82984
3.48341
4.89745
-4.08433
-5.22456
-4.22869
-4.40563
-4.2371
-4.8459
-4.19661
2.10806
7.26256
0.763526
0.0130567
0.0578912
3.14641
0.0750829
0.0818938
0.112435
0.108078
0.133261
0.119759
0.120921
0.0907326
0.0142309
0.0178669
0.00447454
0.0530359
0.0439939
0.0574259
0.0346101
0.296385
0.373763
0.402604
0.273223
0.286626
0.318675
0.344211
1.27613
1.33387
1.37707
1.26009
1.38456
1.38053
1.27929
2.30419
1.56153
2.19527
2.612
2.50247
2.7566
1.83269
-2.3797
-1.74504
-2.35329
-2.87926
-2.33744
-2.15106
-2.55075
-8.28563
-6.87544
-6.74257
-6.81229
-7.31742
-6.86952
-9.0241
-6.51041
-5.39144
-5.95956
-5.59594
-6.94476
-6.44534
-7.36537
-3.08985
-2.93815
-3.05948
-3.14625
-3.12505
-3.02174
-3.10795
-2.73894
-2.77646
-2.73897
-2.77148
-2.77179
-2.79487
-2.75851
-2.7885
-2.75341
-2.78328
-2.81455
-2.78372
-2.78465
-2.82286
-2.80467
-2.80056
-2.67323
-2.76459
-2.78593
-2.76826
-2.68332
-0.737517
-0.864157
-0.660782
-0.762632
-1.01864
-0.98122
-0.783919
1404.1
1033.95
901.856
1588.14
561.962
1494.38
649.792
814.436
1676.62
1791.79
1892.62
1511.89
325.158
367.063
548.29
141.809
1438.16
1642.13
0.197092
1.10207
0.229004
-0.0224525
-0.158009
-0.0884698
0.318541
-3.46521
-3.8083
-3.36312
-3.65063
-3.27589
-3.58257
-3.39168
-2.29865
-1.12882
-1.4075
-0.519671
2.48445
-0.19245
2.09851
2.92004
1.45812
5.01238
2.66499
8.96407
2.19687
4.68293
-1.07733
-0.38949
-0.679334
-0.55211
-0.781153
-0.53345
-1.01611
46.1417
38.6451
38.0456
46.0676
46.0572
48.9638
69.5221
49.2898
43.4826
48.931
-3.99201
-3.86496
-4.07209
-4.29369
-4.24976
-4.02607
-4.13703
2138.59
2150.32
2130.63
1655.34
1960.62
2113.02
2031.07
3.19836
9.10693
0.458409
2.08502
0.391639
11.8918
5.4014
0.151784
0.119383
0.132405
0.186768
0.146402
0.134511
0.185332
0.248423
0.232784
0.238162
0.236732
0.265287
0.233807
0.268763
0.318942
0.280805
0.27742
0.289959
0.364886
0.302391
0.382577
0.039557
0.0571429
0.0412498
0.0516786
0.0614859
0.00732662
0.0784216
0.0688318
0.128109
0.185963
0.185563
0.0830369
0.0418935
0.0814332
0.148023
0.17897
0.00775557
0.141151
0.143662
0.0674086
0.14451
0.163423
0.317686
0.0703817
0.159699
0.0530914
0.083138
0.155245
0.139124
0.833851
0.92639
0.971126
1.07237
1.02979
1.02419
0.88624
1.35792
1.35691
1.39951
1.42037
1.43772
1.39376
1.39661
1.66578
1.56736
1.60052
1.71645
1.69268
1.70037
1.57424
1.60681
1.67259
3.85417
3.87369
1.37346
0.941875
2.05461
0.51991
0.678537
0.259091
3.55779
1.00124
-1.61744
-2.01006
-1.18845
-1.14461
-2.02695
-3.43266
-0.865207
-2.46052
-2.40562
-2.43046
-2.39408
-2.44029
-2.37312
-2.45507
-0.936387
-1.32485
-1.23049
1.95811
0.292245
-0.416579
-0.20677
38.8056
214.245
-2.80227
128.35
-28.6469
43.1045
51.1216
31.696
31.3337
85.3987
29.3414
107.695
34.4562
656.736
553.512
379.538
600.498
651.336
679.399
655.992
47.6084
51.4251
59.6415
46.1836
46.1949
70.3712
52.9063
49.4329
62.5677
40.4655
-2.75931
-2.50371
-2.73714
-2.32622
-2.55816
-2.5301
-2.52805
-2.03268
-2.04953
-2.08381
-2.15318
-2.10974
-2.09742
-2.06813
-1.02657
-0.826327
-1.18047
-1.3006
-1.25326
-1.13627
-0.868501
1954.82
1888.35
1820.18
1920.82
1954.5
1871.21
1916.41
-0.00677486
-0.0505715
-0.0189723
0.0252453
0.00681958
-0.0149692
0.00319336
0.146645
0.160088
0.148737
0.121024
0.141935
0.153752
0.1332
0.0885584
0.0651826
0.0850662
0.101397
0.10611
0.0793697
0.0955258
0.231686
0.234738
0.24227
0.226569
0.226028
0.231587
0.234439
0.295277
0.288518
0.301323
0.307164
0.323614
0.296985
0.305388
0.247429
0.212056
0.258672
0.287619
0.271343
0.256414
0.363097
1.45037
1.30444
1.55767
1.41241
1.48983
1.32702
1.4682
1.53632
1.55152
1.59479
1.62533
1.58186
1.59399
1.53983
1.51812
1.53491
1.52736
1.52706
1.56234
1.56503
1.54742
1.53636
1.54099
1.5511
1.52163
1.60331
1.53254
1.55512
1.62624
1.58793
1.69718
1.73379
1.69392
1.76229
1.69234
1.74047
1.68583
1.60756
0.114596
0.308099
0.389454
0.816027
0.641124
0.261629
0.578147
0.78762
0.508742
0.710193
1.68319
0.791554
1.07122
0.780871
-0.944777
1.49302
-1.22747
1.37015
0.0774256
1.85738
-0.878699
-2.61699
-2.23757
-2.36004
-1.83892
-2.138
-2.37239
-2.1642
-5.98409
-4.14213
-5.72776
-5.52513
-5.23199
-4.65453
-5.60668
-5.08152
-4.62072
-4.7566
-4.47668
-4.69765
-4.59937
-4.96687
-1.37489
-0.539171
-1.59616
2.90252
7.35391
1.91151
-0.628309
512.967
493.049
512.134
13.9334
349.679
78.688
236.595
20.0351
68.3023
51.2914
59.9522
40.0234
19.4116
57.306
75.0526
146.211
69.5718
50.8101
62.9217
44.3642
-75.1754
56.2915
56.8952
-8.57249
24.6864
37.0635
-73.9211
41.349
57.9378
32.3118
18.3822
140.2
77.4094
22.4503
9.14988
11.4143
4.49174
-0.679235
3.14888
2.0152
3.54234
-0.941984
0.213939
1.31646
-1.32444
-1.5011
-0.654295
239.295
541.477
459.189
123.431
371.7
637.939
506.382
28.7282
31.532
25.3132
39.2464
35.3397
29.4924
23.6734
95.7
99.8884
110.447
103.123
104.597
99.0491
90.922
193.511
94.6903
80.8408
617.575
424.1
227.33
208.014
-2.87842
-2.79403
-2.813
-2.67875
-2.79607
-2.73028
-2.82639
-2.65941
-2.61515
-2.6655
-2.70456
-2.7514
-2.64713
-2.71172
-2.5063
-2.51376
-2.48924
-2.46922
-2.47796
-2.49225
-2.49167
76.9035
31.6632
36.9836
456.044
694.672
38.64
67.0639
-0.122636
-0.0767313
-0.102618
-0.183
-0.137137
-0.109402
-0.129928
0.490183
0.469692
0.480409
0.532512
0.500117
0.483973
0.510955
0.551063
0.315451
0.229022
0.177987
-0.0243854
0.278642
0.341279
1.59607
1.54013
1.54882
1.57923
1.6243
-3.12814
-3.45268
-3.23788
-3.2985
-2.97853
-3.44253
-3.05801
-3.69022
-3.92154
-3.79191
-3.86045
-4.26643
-3.75833
-4.02178
-1.9216
-1.99713
-1.91514
-1.90824
-1.96951
-1.99138
-1.91417
-1.71199
-1.56809
-1.66339
-1.76009
-1.84436
-1.67538
-1.78441
58.2925
69.6863
-22.4826
40.7549
43.7563
42.0477
48.2652
48.914
47.0855
42.7417
41.0223
61.8978
48.8992
69.523
82.6217
62.6192
64.558
40.5307
35.4095
47.2213
37.0514
59.7478
78.6974
125.15
153.513
216.906
188.49
243.455
129.057
168.184
185.761
163.949
253.8
229.232
208.389
196.152
184.404
184.957
181.297
311.12
198.507
215.07
230.057
203.085
235.238
210.23
256.49
255.987
256.868
256.529
255.943
256.232
256.714
258.203
257.266
257.139
255.739
256.222
257.573
252.259
256.006
258.017
261.432
255.506
256.681
257.084
255.747
258.464
265.594
257.008
334.332
245.69
318.521
369.344
445.867
337.415
421.687
326.207
329.857
357.31
440.716
476.854
452.813
417.418
82.3922
30.6028
77.8642
344.106
245.32
40.4709
47.992
-1.05102
-1.159
-1.09851
0.912061
-0.827117
0.419785
-0.993361
9.01422
3.82315
0.083851
-1.1012
0.876325
8.0798
7.21626
-2.58046
-2.51071
-2.5461
-2.50388
-2.515
-2.47334
-2.50299
-2.51832
-2.51016
-2.51867
-2.53674
-2.53957
-2.52637
-2.53598
-0.371771
-0.397316
-0.417199
-0.492
-0.430418
-0.447182
-0.400352
0.877394
0.767323
0.697162
0.888278
1.03755
0.867816
0.768616
0.510862
0.568174
0.531215
0.523014
0.389141
0.539071
0.431897
0.274386
0.482814
0.57025
0.481342
0.359195
1.08003
0.969095
1.097
1.16968
1.08634
1.09222
0.970969
1.12
-2.49298
-2.39348
-2.45447
-2.33128
-2.31881
-2.40352
-2.39049
-2.55061
-2.56603
-2.571
-2.54311
-2.59688
-2.55214
-2.59001
916.382
946.475
862.766
953.639
939.46
935.673
952.591
-2.34595
-2.42462
-2.43512
-2.46738
-2.38205
-2.33946
-2.44048
-2.22107
-2.2086
-2.25876
-2.30407
-2.31823
-2.25982
-2.28081
-2.03619
-2.01191
-2.09325
-2.12709
-2.04688
-2.01759
-2.11055
454.168
710.429
459.798
616.482
597.253
706.774
529.835
747.201
869.664
793.865
792.049
866.142
928.131
814.417
914.565
570.014
680.04
477.893
299.328
311.075
235.465
396.176
349.59
461.737
89.1579
97.3543
87.4713
91.2545
87.7596
94.7981
85.8559
79.5564
53.7411
61.6268
75.5331
69.275
53.7036
61.75
57.7671
58.6523
68.8148
96.864
88.5334
126.004
219.316
117.325
187.664
52.4843
54.5641
55.4338
51.4391
57.2699
245.292
190.639
171.558
305.753
211.369
224.067
408.038
411.401
276.068
342.091
893.932
740.403
659.958
745.376
730.548
697.852
792.353
902.773
812.581
791.429
914.127
831.928
834.404
814.031
811.411
778.407
953.244
844.894
797.544
763.214
961.08
159.043
253.86
110.758
34.7475
75.3846
220.628
42.5539
2.81477
-1.05601
2.17669
2.2475
-0.587504
-1.00437
1.41178
-3.73893
-3.15337
-3.24541
-3.28145
-3.67316
-3.58448
-3.82309
-2.94487
-3.14166
-3.01834
-3.31368
-3.20484
-3.09165
-3.11498
-2.52537
-2.49547
-2.50643
-2.48161
-2.47545
-2.47589
-2.50141
-2.16235
-2.16307
-2.25817
-2.20173
-2.24169
-2.19684
-2.27783
-1.15513
-1.12304
-1.07838
-1.15203
-1.28651
-1.20386
-1.11868
0.456835
0.472019
0.46386
0.479118
0.501626
0.567062
0.474327
1.0186
1.11025
1.05404
1.17137
1.17003
1.13807
1.09259
1.09981
1.16273
1.15863
1.21383
1.26113
1.14829
1.1999
1.57624
1.54629
1.61848
1.58647
1.59458
1.55287
1.57909
0.419954
0.3975
0.358715
0.456941
0.501095
0.447598
0.415287
0.114366
0.14282
0.0858193
0.0963676
0.0529056
0.134402
0.220502
0.165915
0.128406
0.0301828
0.0632111
0.148617
0.210206
0.314816
0.209703
0.175648
0.179875
0.265401
0.227247
0.237759
0.230478
0.178164
0.00382205
0.053697
0.13549
2860.51
2850.16
2857.24
2862.56
2853.48
2840.17
2792.14
2840.12
2864.09
0.796468
1.19759
2.45033
87.374
27.7993
0.802128
0.0610473
3.36365
-0.198055
-0.0743604
0.0109028
0.557447
2820.67
2876.3
2846.66
2815.05
2814.35
2815.97
2818.99
2814.38
2804.23
2816.61
2795.55
2799.26
2806.02
2809.67
2812.28
2815.6
2846.32
2814.91
2824.57
2798.38
2812.96
2814.28
2813.27
2814.54
2815.61
2818.22
2814.48
2816.36
2813.8
2809.7
2805.7
2800.62
2794.47
2785.78
2811.71
2819.94
2809.05
2838.4
2804.85
2781.11
2808.05
1623.94
675.775
2831.97
2889.15
2865.27
2695.16
2709.27
0.0940984
0.0624412
0.0589331
0.0338804
0.0457489
0.0617328
0.012029
-0.000528683
0.0555382
251.323
253.221
254.404
252.609
254.622
252.31
253.261
253.962
253.121
252.039
253.976
253.09
250.601
252.414
248.27
0.0553088
0.137905
0.0756777
0.00775724
0.0328148
0.0461973
-2.55442
-2.57756
-2.55201
-3.7352
-3.63695
-3.61414
-3.08256
-6.75193
-3.71266
-6.51235
-2.53604
-2.48524
-2.47818
0.199326
0.193379
0.215021
-3.7748
-3.63864
-3.65735
1.85835
3.79201
2.12098
-2.47436
-2.48468
-2.49815
-2.54892
1.03089
1.0242
0.986542
0.21671
0.21566
0.182958
0.17639
-0.167329
-1.71608
-1.13651
-0.820083
-3.72117
-3.81495
-3.83134
-3.95905
-2.49088
-2.47352
-2.31952
-2.39211
-2.28606
-2.38874
-2.26235
-2.32241
-2.43856
-2.29964
-3.76249
-3.69796
-3.93822
-3.81821
-1.50695
-0.967703
3.92038
11.0321
0.332078
1.76539
3.68495
8.94746
2.9623
5.75661
-2.49441
-2.47161
-2.2493
-2.30619
-2.27466
-2.44951
-5.35891
-3.33098
-3.72037
-5.86896
-5.85273
-5.5921
-6.58941
-3.5473
0.160695
0.145763
0.159404
0.145118
144.729
149.115
162.168
146.46
0.3427
0.450988
0.560824
-0.967885
-0.841573
-0.95892
-0.829334
4.14196
4.21565
2.21681
4.16138
-1.94315
-2.61142
-2.12419
-1.38838
0.531634
0.579409
0.593039
82.803
84.8325
30.6213
17.1683
33.3683
11.8042
423.197
123.929
337.151
449.887
1.5969
1.57442
0.034217
0.0641979
0.0786993
0.0928288
3267.26
2871.55
2599.58
2345.92
0.672443
0.859646
0.692379
0.839386
19.1218
4.49786
9.68156
8.56762
1.11281
-0.550831
4.80742
0.830511
-0.107463
-0.122722
-0.0879727
-0.11982
0.00369653
-0.020624
-1.5186
-1.30352
-1.44336
-1.17445
1.71983
-0.531377
1.43672
0.461088
17.6955
6.00349
1.99748
2.21874
-1.43595
-1.70845
2850.13
2857.1
0.344311
0.265392
0.383235
0.353558
8.07452
4.81812
51.142
22.1353
4.70018
16.8387
16.6348
32.5808
-0.0989397
-0.126402
-0.0101525
-0.00519775
-0.0151187
-0.00864024
15.9742
6.31585
2.67233
2.26764
0.633015
0.409857
0.300653
0.346243
-1.88984
-1.92791
-4.59484
-3.67038
-0.550954
7.22142
197.252
222.718
248.878
743.819
826.917
783.342
820.32
49.2036
45.8736
54.3091
48.6188
155.397
152.547
159.854
33.7507
4.25905
34.543
7.83605
61.4692
69.0234
-0.107901
-0.102701
2.88574
10.1372
8.9141
2.46164
3.83217
5.23059
0.146539
0.0956272
0.17523
0.0722734
0.0484427
0.0787622
0.874047
0.828608
-2.30476
-2.27592
-2.31671
-2.26617
-2.17424
-2.16936
-2.20101
-2.26111
2.81162
6.98514
1.87341
6.56424
-2.54838
-2.56833
-2.53018
-2.58604
-9.78097
-9.67535
-0.717829
-0.454885
-9.38844
-9.06114
32.0528
18.5178
-0.127027
-0.0967428
964.54
904.751
-2.69229
-2.66387
-2.68761
-2.72664
863.02
967.439
7.35475
6.53611
2232.49
2722.69
-2.48187
-2.40259
-2.50111
-2.40275
9.1394
31.8552
33.105
120.309
-1.72588
-1.80555
-0.611394
-0.577856
-0.6263
-0.574584
0.123587
0.121368
2846.41
2848.13
2857.59
2844.25
0.619045
0.680192
0.606842
0.801237
135.954
67.5413
288.567
104.584
-2.06727
0.614365
-2.24595
-1.71901
9.58203
11.3942
-2.73552
-2.72817
-4.69728
-4.38477
-4.81631
-4.90459
613.156
528.745
546.145
403.188
0.441869
0.459819
0.418416
0.441299
1.18656
1.12393
44.5593
15.0358
0.217163
0.242149
553.661
589.751
2818.96
1181.88
370.877
1461.16
151.838
-3.60533
-3.76072
-3.23171
-3.46712
1.23592
1.18518
-2.91392
-2.90679
0.238202
0.234128
-2.81645
-2.77865
-2.78486
-2.72417
1.28933
14.9151
105.586
105.684
105.326
107.07
2436.52
2498
2834.33
-0.808577
-0.787913
-0.731484
-0.727525
-2.05911
-1.95532
2.23646
-0.324749
0.436485
0.439075
0.411632
0.403563
-3.81905
-4.07665
0.699347
0.785332
0.747182
0.900534
-2.53937
-2.53118
-2.58092
-2.5636
0.0296412
-0.000589838
-0.211536
-0.263816
-2.22932
-2.16052
-2.31488
-2.17131
-1.09963
-0.852306
-0.222924
-0.245104
-0.432923
-0.40504
-0.453847
-0.399903
-0.428204
-0.461216
248.367
52.3295
431.791
440.029
-0.564354
-0.778204
-0.729298
-0.939692
-0.0206565
-0.0235558
-0.00822336
-0.0111022
0.442551
0.437869
0.407426
0.414593
-4.07537
-3.79414
-1.51274
-1.4752
-2.68244
-2.709
-2.69692
-2.75842
-2.63187
-2.63496
-2.67169
-2.60043
-2.19644
-2.25859
-2.05454
-2.07829
-2.25429
-2.19241
-2.13906
-2.0973
0.0928266
-2.6003
-2.58182
107.261
104.439
102.832
100.402
0.124502
0.0569113
0.125252
-0.031878
49.3546
283.63
365.199
416.278
84.5854
78.6664
118.534
116.319
108.489
111.753
102.414
104.89
421.108
467.573
209.785
201.382
0.0802673
0.0197376
-8.62596
-9.35615
12.226
34.3161
0.878735
1.23809
0.676639
1.86113
0.309229
0.288728
0.304413
0.252586
1991.65
2076.63
2086.34
2129.87
2836.22
2858.93
577.065
507.606
108.667
145.481
1190.07
1525.25
8.85695
7.06259
-0.514736
-0.498265
408.276
522.157
-4.74758
-4.84078
-4.87027
-5.15512
2871.33
2879.6
-4.86511
-4.75905
-5.12702
-4.86854
-2.28032
-2.33073
0.00275181
0.00124205
585.332
584.228
81.6364
0.359107
0.383338
1.53833
1.55778
5.73897
7.11897
8.23655
8.64569
0.540873
0.556687
-2.12702
-2.23017
-2.02934
-2.14382
-0.311079
-0.422201
-0.422746
-0.52911
-0.37307
-0.42093
-0.382664
-0.252213
-0.52883
-0.482753
0.0844842
0.0992477
0.0990316
0.084179
-0.813595
-0.900367
-0.915184
-1.07748
-2.72854
-2.74328
-2.12936
-2.07817
-2.18486
-2.13067
-1.18241
-1.22044
139.194
143.855
169.747
196.954
-2.92754
-2.91676
-3.03897
-2.9046
-3.07559
-2.91268
-2.99128
-3.09962
-2.99838
-3.06423
9.09245
8.04053
-2.04879
-1.97982
84.4433
105.964
139.552
153.665
-2.72731
-2.72176
-2.6496
-2.62739
-3.01418
-3.00144
-0.145457
-0.141114
51.1254
32.937
68.2351
139.369
-2.47477
-2.48992
2198.77
2061.84
2275.06
1480.09
-3.00528
-3.11893
-2.4982
-3.07241
-2.33399
-2.32954
7.28516
6.22295
12.5434
8.79859
-0.0606993
-0.09419
-0.0351062
-0.0751196
-1.16312
-1.10313
-1.31617
-1.20649
0.667099
0.639142
-0.342131
-0.318376
77.3634
72.4887
147.17
137.577
-0.342304
-0.318406
-3.64187
-3.48317
-2.94785
-3.68282
-2.3466
-2.33279
-1.0864
-1.28987
1209.64
1328
1274.31
1296.15
-0.57161
-0.56231
2856.63
2853.74
2850.09
2859.22
0.10649
133.863
104.426
91.2021
-0.572748
-1.90692
0.199626
0.188772
0.253619
0.217597
52.4918
61.6813
43.446
51.4644
39.609
41.6659
38.4866
44.7269
-0.6444
0.886557
-0.239996
-0.268044
-1.67495
-1.49081
386.998
370.847
418.159
406.763
378.232
398.297
399.088
421.354
-0.240134
-0.268088
-0.540639
-0.525604
-1.83692
-1.71778
0.755631
0.714605
0.685711
-2.33302
-2.41929
-2.59918
-2.60494
-2.61896
-2.6392
-2.23077
-2.22821
-2.65341
-2.6813
-2.67385
-2.70197
67.0077
139.721
73.2442
134.72
2767.76
2779.75
-2.88567
-2.87094
-2.54125
-2.518
2.59302
0.150413
0.652691
0.406382
113.57
36.4744
0.20203
0.185149
12.164
20.4184
-0.619375
-1.19112
-4.2233
-4.26348
-3.85216
-3.2135
-4.41259
-4.57403
13.3205
18.4002
-2.1722
-2.3567
1.53621
1.54833
1.54572
1.57577
2839.41
2835.36
8.01119
3.5027
29.1132
15.749
0.182775
0.185206
-0.526777
-0.507173
0.573744
-0.844694
19.8463
7.94195
-2.0349
-1.38597
-7.67386
-8.28027
-6.98736
-8.51764
0.207527
0.197609
446.102
-3.68989
-4.04289
464.439
56.1645
121.961
-3.26563
-3.35986
-3.4576
-3.52027
-0.789216
-0.819585
-0.139554
-0.157031
-0.146802
-0.170822
-0.525971
-0.511764
0.403929
0.384334
2794.98
737.061
708.108
775.413
-1.29686
-1.22511
7.79405
6.84149
8.32344
6.74296
0.721467
0.705191
0.10308
0.106075
0.1305
0.675591
0.716928
5.1281
1.33863
-0.1385
-0.166958
-2.19193
-2.22525
2.66663
1.3874
12.5315
16.4649
12.8011
8.44701
0.362896
0.377466
43.9206
22.3095
0.662702
0.167114
-2.5582
-2.54492
-0.81535
-1.00757
-0.754864
-1.21794
-2.16657
-2.09898
-7.31898
-6.97984
-1.9939
-1.97688
-6.33057
-6.79261
0.580887
0.847074
0.578393
0.783748
84.2536
306.458
0.459329
0.47544
46.6549
21.9515
-1.01642
-1.03485
0.368734
0.345128
0.475943
0.481177
66.2948
312.347
-2.11479
-2.15595
599.093
612.685
5.46231
10.8822
-0.46019
4.0824
48.0127
44.6515
-1.62853
0.535611
4.78661
6.47046
11.0284
12.5099
-1.26059
-1.07936
10.8471
9.8505
9.49073
6.46273
-2.79628
-2.79026
-0.683254
-0.707055
-1.0184
-1.04064
68.9947
55.3191
0.330888
0.2831
0.00555106
0.000495521
0.330774
0.283709
0.907548
1.08437
1.07764
1.09103
-2.52382
-2.52277
-2.418
-2.49321
-0.553105
-0.332878
-0.12909
-0.177314
-0.557972
-0.403144
5.24433
6.38648
6.36198
6.87626
-2.67439
-2.69
-0.225546
-0.25678
0.968828
1.06758
1.04878
1.13481
-2.25197
-2.29975
5.46802
5.85409
7.7104
8.88253
589.345
531.536
-0.750057
-1.69185
-1.5721
-1.7436
21.2717
17.9428
-0.327266
-0.347065
-2.67471
-2.69228
601.83
393.097
-2.84721
-2.74672
0.628624
0.671022
-0.632379
-0.606158
-1.43423
-1.45778
-1.50922
-1.52534
-1.93559
-1.89166
0.382882
0.208505
240.406
208.573
177.533
161.78
1010.97
715.732
67.9776
70.1134
43.8585
18.4475
-1.91848
-1.86251
8.1618
13.432
1.13164
1.14577
0.27732
0.305721
0.364328
0.523284
-5.90278
-6.36137
4.61547
2.67101
0.319609
0.385879
-1.99896
-2.48523
1.16957
1.1098
583.351
565.445
-1.67683
-1.09822
83.1575
83.5382
-1.2933
-2.08756
131.211
216.524
2134.05
2445.22
-0.807938
-0.787508
0.00238823
0.0425765
0.305078
0.293534
-5.00747
-5.59855
-2.44199