/*--------------------------------*- C++ -*----------------------------------*\
| =========                 |                                                 |
| \\      /  F ield         | OpenFOAM: The Open Source CFD Toolbox           |
|  \\    /   O peration     | Version:  v2012                                 |
|   \\  /    A nd           | Website:  www.openfoam.com                      |
|    \\/     M anipulation  |                                                 |
\*---------------------------------------------------------------------------*/
FoamFile
{
    version     2.0;
    format      ascii;
    class       surfaceScalarField;
    location    "0.25";
    object      phi;
}
// * * * * * * * * * * * * * * * * * * * * * * * * * * * * * * * * * * * * * //

dimensions      [0 3 -1 0 0 0 0];
oriented        oriented;


internalField   nonuniform List<scalar> 
49400
(
-5.66229e-06
6.28074e-09
5.61596e-06
4.00479e-08
1.30562e-05
3.59767e-06
-2.23161e-05
1.28606e-05
2.018e-07
-3.42067e-06
1.73151e-05
-8.27843e-06
2.02224e-05
-2.00454e-05
-2.0766e-05
5.09417e-05
-3.41784e-07
8.08345e-06
1.95869e-05
-4.99865e-05
-1.54929e-07
-6.13406e-07
-1.22895e-05
2.34608e-07
1.21447e-05
-8.97575e-08
2.62934e-05
1.15553e-05
-5.01383e-05
2.59146e-05
-1.31246e-05
1.50675e-06
2.37625e-05
-1.32613e-05
4.69375e-08
2.94642e-05
-3.11702e-05
5.68856e-05
-2.68277e-05
4.47128e-07
2.64017e-05
-2.11924e-08
9.19641e-06
1.56149e-05
-5.16389e-05
5.00306e-07
9.14323e-06
4.11677e-05
2.27323e-05
-4.82852e-05
1.73245e-05
5.02449e-05
7.6746e-06
-7.39637e-06
2.22081e-07
-3.70888e-06
2.05267e-05
6.23586e-06
9.1001e-06
1.98515e-05
8.84512e-06
4.7706e-07
-2.00223e-05
4.93941e-05
3.06289e-07
-8.44725e-07
9.07288e-06
-3.09189e-06
-5.13627e-06
1.4313e-05
-5.66524e-06
-9.49247e-06
-1.04948e-05
-1.6321e-05
-3.3019e-06
1.04119e-06
-8.31184e-07
6.04891e-07
-9.57204e-06
-1.19155e-05
2.46187e-06
-2.76317e-05
3.24827e-06
-2.75027e-06
-1.01818e-05
9.6838e-06
-7.05547e-06
-9.79318e-06
2.00969e-05
-4.48139e-06
-5.32435e-06
2.46531e-07
1.25181e-05
-1.72461e-05
8.05726e-06
-1.31351e-05
-2.33384e-06
5.05881e-06
-4.45838e-06
6.64943e-06
2.77879e-07
-6.30575e-06
-6.21553e-07
-7.85254e-06
-6.0988e-06
2.06008e-05
-8.78452e-06
1.20986e-06
6.57936e-06
5.67989e-06
-1.8565e-05
7.93195e-06
-1.97415e-06
-4.51072e-06
6.34387e-06
-7.61535e-06
2.77105e-06
1.25215e-05
-6.23748e-06
-9.05506e-06
7.25102e-06
-6.43148e-06
1.95151e-06
-2.12427e-06
2.18968e-05
1.01119e-05
2.06484e-06
-1.86083e-05
6.06977e-06
5.99369e-06
8.03392e-06
-1.22066e-05
1.19794e-05
-1.21014e-05
-1.13782e-05
-6.31017e-06
2.97898e-05
-8.7831e-06
-1.58678e-05
1.25495e-05
-2.42653e-05
4.10402e-06
9.07817e-06
1.16641e-05
-3.661e-05
2.0835e-05
7.92624e-07
5.2204e-06
-1.78216e-05
1.97452e-05
2.69224e-06
-1.98715e-06
-2.39286e-06
1.68778e-06
-5.13834e-06
4.84232e-07
7.34634e-06
-1.01067e-06
-6.11483e-06
4.93842e-06
-5.07164e-07
-6.82411e-06
1.3745e-06
5.25169e-06
-3.35418e-06
5.21291e-06
-4.87201e-06
-4.18739e-08
-5.58389e-07
2.27536e-06
-1.67509e-06
-1.94925e-06
2.24599e-06
-3.38615e-07
9.48885e-07
-3.45652e-06
-2.60059e-06
-1.67357e-06
6.52016e-06
-2.27422e-06
-6.64991e-07
9.89993e-07
-2.31533e-06
1.59178e-06
-7.26627e-06
-1.1947e-05
-8.64218e-06
2.78555e-05
4.48277e-07
-6.42916e-06
-1.28539e-06
-1.42146e-05
2.71582e-06
7.51563e-06
3.72973e-06
-1.76745e-05
9.32118e-06
-3.09093e-06
-1.20296e-05
1.27086e-05
-2.25144e-05
1.55091e-06
-1.25098e-06
-1.37559e-06
1.07566e-06
-4.1113e-06
-1.08758e-06
6.74978e-06
-3.19019e-06
-2.17209e-06
3.46486e-06
1.50906e-06
-6.34951e-06
2.38412e-06
2.1564e-06
-3.12821e-06
4.42476e-06
-4.80933e-06
-1.78114e-06
-1.68696e-06
-1.45797e-06
4.92607e-06
-3.0947e-07
-2.19562e-06
7.23954e-07
-1.8187e-06
-1.77722e-07
2.27463e-06
1.39279e-06
-5.48612e-06
1.90895e-06
1.87958e-07
1.47766e-06
-2.28049e-06
1.92863e-06
7.4095e-07
3.88309e-06
-6.34414e-07
-3.98963e-06
3.81611e-06
-6.01648e-06
2.94132e-06
-5.30979e-06
1.3009e-05
-3.14515e-06
4.87245e-06
-2.36172e-06
4.88714e-06
-1.20219e-05
7.00059e-07
-1.8294e-06
2.62721e-07
8.08237e-06
6.99781e-06
6.32143e-06
-2.14016e-05
-6.6333e-07
6.76067e-06
1.98503e-06
5.58818e-06
7.46305e-07
-8.5207e-06
-4.5543e-06
1.86632e-05
-9.70963e-06
1.93524e-06
-6.47917e-06
8.68554e-06
-9.86737e-06
2.24379e-06
-1.8113e-07
-2.32984e-06
2.67182e-07
-5.7344e-06
-1.66113e-06
9.63931e-06
-1.12308e-07
-5.80322e-06
-1.004e-05
9.23453e-06
6.932e-07
8.28713e-06
-2.41304e-05
1.80916e-06
4.14813e-06
9.38256e-06
6.92009e-07
3.7233e-06
8.77749e-06
1.29708e-06
2.21401e-05
3.61462e-06
-3.15491e-08
-3.54934e-06
-3.37366e-08
-3.87093e-06
-2.83545e-06
1.0321e-05
-7.04717e-09
-3.89544e-06
-5.25191e-06
4.70136e-06
5.43508e-07
4.07159e-06
-1.32189e-05
-1.68732e-06
3.55323e-06
-1.16506e-06
1.68708e-06
1.43537e-05
-4.21307e-06
-1.18277e-05
1.36614e-05
-8.42107e-06
-1.10918e-05
-1.08939e-05
-2.31598e-07
-1.6272e-05
3.67196e-06
3.79057e-06
3.55477e-06
-1.10173e-05
-6.28177e-07
3.67193e-06
6.28199e-07
5.01778e-06
-1.85538e-06
-3.82322e-06
-3.39742e-06
1.08926e-05
-5.09863e-06
1.90361e-06
3.14502e-06
-4.68888e-06
4.76538e-06
3.81756e-07
-2.01923e-06
-2.87996e-07
1.92547e-06
-2.85403e-06
1.78236e-06
1.45343e-06
7.3331e-07
-5.60657e-06
3.06196e-06
-2.48557e-06
-8.64385e-07
-1.21321e-06
6.20064e-06
-2.33041e-06
2.89955e-06
-4.08266e-06
7.55799e-06
-5.6949e-07
-8.61772e-06
1.62922e-06
-6.52759e-06
-6.16377e-06
2.02493e-05
-9.19785e-07
-6.17729e-06
-6.11394e-06
7.94881e-06
-2.75465e-06
5.83256e-06
-1.81238e-05
-4.32115e-06
6.10618e-06
-7.1063e-06
8.08265e-06
5.17482e-06
1.44271e-06
-1.47002e-05
-1.02233e-06
4.8887e-06
4.21628e-06
-1.60355e-06
5.75604e-06
9.12659e-06
-5.2186e-06
-5.51154e-06
-2.98796e-06
1.78706e-05
-5.68857e-06
7.58932e-06
-9.46446e-06
4.38051e-06
-7.1476e-06
-4.78393e-06
7.55101e-06
-1.41386e-05
5.72388e-06
1.27952e-05
1.1719e-06
-2.24581e-05
1.29316e-05
-4.83669e-06
-1.28788e-05
-1.21302e-07
2.06039e-05
-9.02623e-06
1.46288e-05
-1.2691e-05
-6.47047e-06
-5.15891e-06
6.27792e-06
5.35146e-06
1.20141e-06
1.05069e-05
-1.81787e-05
1.11103e-05
-1.50678e-05
-1.33209e-06
-1.07087e-05
1.83188e-05
-1.23449e-05
1.63643e-05
1.71756e-06
-3.55562e-06
2.11909e-06
-1.55137e-05
-7.11027e-06
2.64825e-06
1.99757e-05
6.86949e-06
-2.60774e-06
-1.97755e-05
-7.13107e-06
6.8903e-06
1.66999e-05
-2.64033e-06
-2.11907e-05
3.24326e-06
2.0347e-05
1.08722e-05
-1.61203e-05
1.67637e-05
-8.39165e-07
-6.22403e-06
-9.53643e-06
1.65996e-05
-5.33412e-06
-9.68251e-06
1.41775e-05
-6.09904e-06
-5.45911e-06
7.87507e-07
1.23204e-05
-1.9207e-05
1.2971e-05
-1.76426e-05
5.00764e-07
2.13715e-06
3.93531e-06
-1.18478e-05
-1.8326e-06
8.25845e-06
5.42198e-06
6.80414e-06
6.10983e-06
-2.47618e-05
-1.68219e-06
6.65373e-06
7.66054e-06
-5.82343e-06
-3.5193e-06
-2.62543e-06
1.69397e-05
5.31974e-06
-5.03333e-06
1.09528e-05
7.46562e-06
8.74273e-06
5.69988e-06
-2.19082e-05
-5.42111e-07
7.55264e-06
4.55097e-07
9.37957e-06
-1.17895e-06
-9.0511e-06
-5.85672e-06
2.24605e-05
-9.2149e-06
6.189e-07
6.89043e-06
-1.04055e-05
1.04133e-05
-1.22904e-05
-1.55017e-05
-9.14154e-06
3.69336e-05
-1.65538e-07
2.7674e-08
-1.21525e-05
-1.48444e-05
-8.22828e-07
-1.51817e-05
1.4971e-05
2.38321e-07
8.96707e-06
-3.63013e-05
1.16351e-05
-1.75124e-05
1.74646e-05
-4.25875e-06
6.45053e-07
4.59677e-06
-9.83076e-07
6.27704e-06
1.95013e-06
-1.24859e-05
5.10654e-06
1.81555e-06
-6.24738e-06
-1.64262e-06
1.24868e-05
-4.18604e-06
-3.04441e-06
5.19584e-06
-7.43175e-06
8.65976e-06
-1.13032e-05
-1.52751e-05
-7.99698e-06
3.45753e-05
-8.07191e-07
-1.17782e-05
1.28212e-06
-1.58431e-05
-2.3919e-07
1.6372e-05
8.9667e-06
-3.71169e-05
1.5232e-05
2.42211e-06
1.40475e-05
-2.09239e-05
2.12826e-05
-9.57398e-06
1.72006e-06
1.42236e-05
-6.36964e-06
1.02951e-05
1.063e-05
-3.0499e-05
1.81777e-06
1.01974e-05
9.66517e-06
-1.24491e-05
4.60171e-06
-1.02087e-05
3.00712e-05
5.86197e-06
-7.68112e-06
9.87685e-06
-4.59116e-06
1.17624e-05
3.65061e-06
-1.08218e-05
1.94657e-05
-8.03548e-06
-1.60214e-05
-4.0435e-06
3.52716e-05
-1.58744e-05
1.01807e-05
9.3443e-06
3.04743e-06
-2.97437e-05
1.13016e-05
-1.62897e-05
1.74389e-05
-1.16678e-05
-5.17095e-06
1.15398e-05
5.29892e-06
7.15103e-06
1.57697e-05
-3.45885e-05
1.79242e-05
-1.59442e-05
-7.94899e-06
-1.57003e-05
3.51891e-05
-2.11038e-05
1.84537e-05
6.61266e-06
-1.19468e-05
8.83662e-06
-4.64202e-06
1.72396e-06
-4.33915e-06
7.25722e-06
3.99759e-06
-2.51103e-07
-8.38851e-06
-6.24638e-06
1.19679e-05
-9.61456e-06
5.0243e-06
2.29718e-05
-4.09748e-05
2.17497e-05
6.18165e-07
5.02124e-07
3.43154e-07
-1.46344e-06
4.63485e-07
-6.99831e-07
8.54511e-07
-6.99233e-07
1.66484e-06
-1.71633e-06
1.35966e-06
5.10409e-06
-8.28387e-06
5.76451e-06
1.12027e-05
3.71818e-06
-6.84917e-06
-8.07171e-06
-4.69455e-06
3.09162e-07
1.55881e-05
-5.94332e-06
4.96695e-06
1.23197e-05
-3.85698e-08
-1.82245e-05
4.18845e-06
1.30982e-05
-1.06819e-05
1.51795e-05
-1.75697e-05
-6.71222e-07
-6.11284e-06
-1.29683e-05
1.97523e-05
-5.70759e-06
-1.35651e-05
1.86015e-05
-6.7038e-06
-5.11663e-06
1.19549e-06
9.17824e-06
-1.70775e-05
9.17707e-06
2.15435e-07
-4.60231e-06
-3.57575e-06
6.91978e-06
1.53767e-05
-2.82676e-06
-1.94697e-05
6.97349e-06
-6.94343e-06
6.88972e-06
2.57434e-06
1.97758e-05
1.67779e-05
-2.85357e-06
-2.08678e-05
2.54769e-06
2.11199e-05
-1.05469e-05
1.56689e-05
-1.62272e-05
-5.73828e-06
7.09346e-06
5.74763e-06
-7.10281e-06
1.68024e-05
-4.41252e-06
-1.81282e-05
1.79937e-06
2.20965e-05
-1.64718e-05
4.70806e-06
1.75114e-05
-1.59209e-06
-2.19825e-05
1.26709e-05
-1.86755e-05
1.91783e-05
1.57251e-05
6.05685e-06
1.96795e-06
-2.37499e-05
-6.00383e-06
3.49005e-06
1.82389e-05
-4.95803e-06
5.01105e-06
1.02963e-05
-4.28051e-06
-1.09739e-05
1.13071e-06
1.41767e-05
-7.79093e-06
1.24117e-05
-1.01035e-05
-4.8088e-06
5.96986e-06
3.63726e-06
-4.79833e-06
1.01014e-05
1.22165e-06
-1.61318e-05
1.45218e-06
1.46191e-05
-1.20193e-05
6.65642e-07
1.49909e-05
-4.32167e-06
-1.24959e-05
4.90796e-06
-8.00799e-06
7.02578e-06
4.83635e-06
9.47917e-06
-9.9601e-07
-1.33195e-05
4.04216e-06
-5.08921e-06
5.8834e-06
2.54783e-06
1.09735e-05
1.38648e-05
-2.57261e-06
-1.63814e-05
1.40774e-06
1.83404e-05
-7.53913e-06
1.14947e-05
-1.11077e-05
-8.851e-07
-1.11408e-05
4.16184e-08
1.19843e-05
-1.7194e-05
1.7827e-05
-1.51819e-06
9.74744e-06
-3.80822e-05
1.52771e-05
-1.44176e-05
-8.1788e-07
-4.4319e-06
3.16933e-05
-1.95256e-05
3.29208e-05
-2.41958e-05
-7.58208e-06
-6.85645e-06
-5.35638e-06
1.97949e-05
-6.32577e-07
-8.32691e-06
1.3774e-06
-6.49732e-06
-9.91702e-07
7.27657e-06
5.95751e-06
-1.97314e-05
9.21333e-06
-2.92846e-06
6.12365e-06
-8.49305e-06
9.9806e-06
2.14668e-06
4.19674e-06
5.00485e-06
-1.13483e-05
2.57741e-06
6.80117e-06
-7.23189e-06
4.56083e-06
2.21332e-06
-3.03894e-06
-6.25067e-06
1.38504e-05
-7.08748e-06
6.26186e-06
-2.57131e-06
3.12181e-06
-4.65395e-06
-5.74771e-06
-1.26285e-06
2.4412e-06
4.56936e-06
3.10668e-06
6.47899e-07
-9.50229e-06
-1.1619e-06
3.00572e-06
4.90037e-06
-2.57604e-06
-3.48623e-06
-7.1311e-07
8.6192e-06
3.79557e-06
-5.72371e-06
5.52366e-06
4.57207e-06
-4.80668e-06
4.72117e-06
-4.48656e-06
-1.27869e-05
1.66821e-06
1.56908e-05
-2.77012e-06
-1.48235e-05
-1.08481e-05
2.31364e-06
1.32556e-05
-2.23579e-06
-1.30989e-05
-8.88685e-06
1.28687e-05
-1.38928e-05
3.22987e-06
9.77913e-06
-4.9398e-06
-8.0692e-06
5.54682e-06
3.60007e-06
-5.91703e-06
-9.06638e-07
1.62326e-05
-1.26118e-05
4.91558e-06
1.12963e-05
1.32372e-06
-1.98525e-05
-7.39842e-06
1.14074e-05
-1.10145e-05
6.10301e-06
5.28625e-06
5.72847e-06
-1.71177e-05
6.97432e-07
7.32442e-06
-1.91884e-06
5.0917e-06
8.91981e-07
-4.62042e-06
-4.15682e-06
1.38689e-05
-6.09574e-06
2.3673e-06
-3.76362e-06
6.93122e-06
-4.13089e-06
4.99267e-06
3.55733e-07
-4.3891e-06
-9.59301e-07
-4.62768e-06
-2.02497e-06
1.16453e-05
5.68351e-07
-4.8403e-06
-8.22101e-06
6.33229e-06
2.45707e-06
4.16601e-06
-1.72273e-05
-4.73249e-06
9.03981e-06
-4.95558e-06
-5.13418e-07
4.96769e-06
-5.88009e-06
1.42582e-06
4.20592e-06
-4.2951e-06
-4.24241e-07
-4.83127e-06
1.40049e-05
3.86769e-06
3.48253e-06
4.26146e-06
-8.18011e-07
-2.05137e-06
1.48156e-06
-4.44893e-06
7.61175e-07
-4.01743e-06
5.57527e-06
-2.31902e-06
-4.02223e-06
8.40993e-07
3.94241e-06
4.9988e-06
-1.30385e-05
3.10006e-06
-4.33617e-06
2.0771e-06
-3.57186e-06
1.06143e-05
-1.47239e-06
3.4758e-06
-8.09765e-07
-3.64845e-06
-6.09432e-07
6.02249e-07
3.65563e-06
3.77464e-06
3.50021e-06
-1.09233e-05
4.98271e-06
-1.81749e-06
3.81812e-06
-5.06068e-06
1.8448e-06
-3.36316e-06
1.08369e-05
3.13e-06
-4.69047e-06
4.74955e-06
-2.39861e-06
1.03107e-06
2.49921e-06
-1.13167e-06
4.53094e-06
4.29706e-07
-7.35926e-06
2.11179e-06
3.45021e-06
-4.22474e-06
-4.43251e-07
7.16721e-06
-1.92581e-06
-3.4306e-06
3.16963e-06
-4.66574e-06
4.83818e-06
3.03739e-07
1.70236e-06
-1.66346e-07
-1.83975e-06
1.79691e-06
-2.186e-06
6.92825e-07
-1.4417e-06
4.94097e-06
-2.29932e-06
1.90209e-06
2.30885e-07
1.35939e-06
-5.49845e-06
1.50962e-06
-2.33623e-06
1.97e-06
-1.43394e-06
1.51174e-06
1.27406e-06
-1.35186e-06
3.52784e-06
1.27443e-07
-5.08922e-06
8.81361e-07
4.15822e-06
-2.71566e-06
2.21684e-07
3.76804e-06
-9.11361e-07
-3.15617e-06
1.82035e-06
-2.60427e-06
2.9234e-06
1.17107e-05
9.31886e-09
-1.14969e-05
-2.23101e-07
-1.39774e-05
-9.66628e-06
3.53544e-05
-1.35821e-05
-3.85994e-07
1.31671e-05
9.62874e-06
-3.42927e-05
1.35902e-05
-6.46249e-07
-7.93392e-06
1.18579e-05
-1.18873e-05
-2.86475e-06
-2.49211e-06
-5.67201e-07
5.92407e-06
1.20134e-06
-2.23661e-06
-1.82948e-06
2.60438e-06
-3.89515e-06
-1.01644e-05
2.26819e-06
1.05005e-05
-4.76791e-07
-1.35827e-05
3.33656e-06
-6.04997e-06
5.03755e-06
-4.34708e-06
-1.6456e-06
-9.44013e-06
1.54328e-05
5.54343e-06
-5.68252e-06
-4.20798e-06
-1.64566e-05
2.03544e-05
2.20389e-07
1.88648e-05
-2.47677e-05
1.34172e-05
-1.74048e-05
6.03614e-06
-3.6279e-06
1.00132e-05
1.07934e-05
1.11698e-05
1.34532e-05
-3.54164e-05
3.97294e-06
1.79738e-05
-1.11534e-05
1.00591e-05
5.0836e-06
-6.63705e-06
-1.15991e-05
2.82953e-05
-1.78348e-05
1.62814e-05
-1.15823e-05
1.7957e-05
-1.59639e-05
3.30604e-06
-1.82267e-05
1.36756e-05
1.245e-06
-1.06056e-05
7.32088e-06
6.59074e-06
2.52582e-05
-5.40905e-05
-8.28906e-07
-1.46847e-06
9.61825e-06
-3.54844e-06
9.31028e-06
1.14892e-06
1.06404e-07
-2.72379e-06
-7.30835e-06
4.90883e-06
1.28939e-05
5.056e-06
2.66759e-05
3.26243e-06
3.63204e-06
-4.03609e-06
1.66088e-05
4.50478e-06
-5.28528e-06
3.71932e-06
7.32767e-06
-5.76171e-06
6.27254e-06
7.99116e-07
-1.23569e-05
8.72908e-06
1.26278e-06
-7.11452e-06
-1.04808e-05
2.4923e-05
-2.62753e-05
1.3399e-05
1.82509e-06
-2.73013e-05
7.33422e-08
8.45003e-06
-4.61856e-07
3.06213e-06
-1.10503e-05
-1.58493e-05
2.43726e-05
-1.50483e-05
-7.29388e-07
-2.49685e-05
1.73512e-06
1.92457e-06
5.34704e-06
-9.00672e-06
2.14787e-06
3.45706e-06
-3.86982e-06
1.93876e-06
2.13368e-06
2.96432e-06
-2.91702e-06
1.89146e-06
-4.99861e-06
1.00966e-05
-2.10546e-06
2.6455e-06
-1.75703e-06
-3.31305e-06
5.82655e-06
4.25577e-06
-6.76927e-06
1.27454e-05
-9.33017e-06
-6.72827e-06
-1.22131e-06
1.97933e-05
-1.1023e-05
5.04936e-06
1.02294e-05
2.38642e-06
-2.01786e-05
9.58252e-06
-1.65263e-05
1.34106e-05
4.94637e-06
1.31985e-06
-5.20095e-06
-1.06526e-06
-4.67818e-06
-5.34367e-06
1.49682e-05
-7.98472e-06
4.62639e-06
5.15856e-06
5.49006e-06
-1.58496e-05
7.0876e-06
-2.99431e-06
-4.42628e-06
6.17022e-06
-6.92095e-06
4.78754e-06
5.0901e-07
-5.0852e-06
-2.11343e-07
-4.40093e-06
-4.1346e-06
1.33231e-05
-5.59238e-06
1.70045e-06
6.34949e-06
6.31559e-06
-1.77503e-05
6.6875e-06
-5.49361e-07
-2.19146e-06
4.74437e-06
-1.46825e-06
1.22061e-06
-6.703e-06
-1.45516e-06
6.93755e-06
-9.69639e-06
6.72902e-06
4.18798e-06
3.08488e-06
-1.94843e-05
1.03083e-05
-6.79856e-06
-4.96489e-06
-3.45196e-06
2.06978e-05
-7.11483e-06
1.03919e-05
-1.08285e-05
-9.19969e-06
-4.09116e-06
1.09094e-06
1.21999e-05
4.11801e-06
-2.46556e-06
-1.08521e-05
-4.55556e-06
4.58241e-06
1.1072e-05
-3.7877e-07
-1.52488e-05
2.16387e-06
1.34905e-05
6.26972e-06
-9.11405e-06
9.52454e-06
-3.41376e-07
-3.54286e-06
3.92091e-07
3.49214e-06
-4.38802e-06
4.1639e-06
-1.17263e-07
3.63077e-06
-1.15616e-05
3.29072e-06
-3.80589e-06
9.07256e-07
-3.07792e-06
9.86078e-06
-1.54205e-06
2.62804e-06
-1.71717e-06
-1.25501e-05
-3.69401e-06
4.20925e-06
1.20348e-05
6.14499e-06
2.93349e-07
-1.89884e-05
-3.40977e-06
5.86075e-06
1.16529e-05
-4.43256e-06
-1.06301e-05
8.60993e-09
1.7505e-05
8.72754e-06
-1.28667e-05
1.29454e-05
-1.50634e-05
-2.11926e-05
-1.08722e-05
4.71282e-05
-1.77173e-07
-1.71343e-05
2.24807e-06
-2.52588e-05
3.889e-06
5.0647e-05
4.40582e-05
-0.000119964
3.88815e-05
1.56545e-05
-8.9353e-06
3.69446e-05
1.79886e-05
-1.24552e-06
5.86611e-06
-8.2721e-06
3.65151e-06
5.60687e-06
-5.84485e-06
-1.00754e-06
-3.88834e-06
1.53613e-05
7.47091e-06
5.40599e-06
-1.87218e-05
9.22306e-06
-2.75969e-06
8.41066e-06
-1.12768e-05
1.37454e-05
-2.36509e-06
-2.12172e-06
-1.56514e-06
6.05195e-06
5.2985e-08
-2.08684e-06
-3.31235e-07
-2.02275e-06
-4.59834e-08
2.4291e-06
1.65769e-06
-6.10953e-06
2.58277e-06
-1.99658e-07
1.31356e-06
-1.74272e-06
2.3312e-06
-1.99878e-06
-1.68111e-06
-1.85849e-06
5.53838e-06
-8.88605e-08
-1.90917e-06
-7.47006e-10
-1.54069e-06
-2.29277e-07
1.19496e-06
9.14607e-07
-3.65026e-06
1.6534e-06
-6.87717e-07
7.19936e-07
-1.7145e-06
5.14844e-07
2.52854e-06
-1.45704e-06
-2.22851e-06
1.15701e-06
-6.29159e-06
-4.57221e-07
9.27735e-06
-1.77021e-06
-5.97841e-06
3.94999e-06
-3.75387e-07
-5.80312e-06
1.59956e-06
3.50744e-06
-3.89426e-06
5.0366e-06
-6.03986e-06
9.99263e-06
-6.89438e-06
2.62638e-05
-2.93621e-05
-1.25977e-05
1.2535e-05
1.00553e-05
1.94288e-05
-3.89209e-05
-4.01733e-06
-2.07579e-05
3.73102e-05
-2.28461e-05
2.8884e-05
-8.00905e-06
1.3515e-05
-1.14263e-05
-2.05271e-05
-7.66362e-06
1.70567e-05
1.11341e-05
1.50263e-05
6.99275e-06
-4.25462e-05
-8.23604e-06
1.55988e-05
2.685e-05
-2.15372e-05
-1.35489e-05
-1.04577e-05
5.29066e-05
1.59505e-05
-3.04949e-05
2.25494e-05
-1.6316e-05
-1.43467e-05
-1.26533e-05
4.33161e-05
-1.567e-07
-2.02354e-05
4.07606e-06
1.14495e-07
-1.46179e-05
-1.91341e-05
1.94554e-05
-2.06748e-07
1.71329e-05
-5.08849e-05
8.92737e-06
-1.20298e-05
1.57294e-05
-1.71022e-06
1.90755e-05
-9.9414e-06
-7.42391e-06
1.82898e-05
-1.6098e-05
-3.90206e-06
-1.06548e-06
3.84308e-05
2.39548e-05
5.0731e-06
-4.51259e-05
1.85827e-05
1.47003e-06
-3.8538e-06
2.1371e-05
-8.7221e-06
-1.23998e-05
-1.91081e-05
-2.1439e-05
5.2947e-05
-5.91879e-06
-2.00897e-05
1.36087e-05
-8.10428e-06
-1.69227e-05
-9.31698e-06
2.86461e-05
-2.74334e-05
2.311e-05
-4.93496e-05
2.37543e-06
6.44882e-07
9.58252e-06
6.48165e-06
8.82161e-06
-6.06088e-06
-9.24238e-06
3.13504e-06
-1.39179e-05
1.72645e-05
-1.23028e-05
2.42594e-05
-5.41912e-06
1.85668e-05
-1.92085e-05
1.57765e-05
-3.0438e-05
4.59386e-06
-2.73529e-06
1.08579e-05
-2.78134e-06
-7.34772e-06
4.19209e-06
5.93697e-06
-6.75091e-06
9.47614e-06
-5.50656e-06
8.54079e-06
-2.26394e-05
3.88173e-06
-1.22059e-05
1.25163e-05
-7.78119e-06
1.75999e-05
-6.6426e-06
8.33754e-06
-1.03077e-05
1.0639e-06
1.00894e-05
-2.30665e-06
-8.84661e-06
1.10479e-05
-1.35193e-05
3.53531e-06
-1.03159e-05
3.14531e-05
-6.04099e-06
1.15696e-05
-7.83528e-06
9.84143e-06
-2.4729e-05
4.4128e-06
-8.09066e-06
5.66653e-06
-1.64404e-05
-3.28244e-07
1.70241e-05
-2.55548e-07
1.39406e-05
1.04063e-05
-4.07873e-05
-4.49561e-07
1.40619e-05
1.83692e-05
-1.83188e-05
-4.99963e-07
-1.08859e-05
4.33169e-05
1.4368e-05
-2.22805e-05
2.05063e-05
1.85468e-07
-1.8884e-05
1.93981e-05
-6.99618e-07
-1.52525e-05
1.53492e-05
8.87951e-08
1.14814e-05
-4.56179e-05
-1.91696e-05
-1.1575e-05
4.60938e-05
-1.93899e-05
3.0917e-07
-1.56171e-05
2.34402e-05
-2.35256e-05
-9.32113e-06
-4.81556e-07
8.08648e-06
1.7162e-06
7.04076e-06
4.76024e-06
-2.11221e-05
-4.48744e-07
7.00795e-06
9.21226e-06
-8.38594e-06
-1.27507e-06
-4.83554e-06
2.10558e-05
6.94832e-06
-1.0574e-05
1.01993e-05
3.16338e-06
-5.69596e-06
-1.41693e-05
1.67018e-05
-7.61876e-06
-1.14044e-05
2.21866e-05
-8.32887e-06
-4.98584e-06
5.1849e-06
1.16935e-05
-2.52072e-05
1.25194e-05
-1.23204e-05
-4.37695e-06
5.49194e-06
-6.85275e-06
-5.73782e-06
-2.70858e-07
4.92866e-06
1.08003e-06
5.27389e-06
3.52099e-06
-1.45327e-05
-2.16104e-07
5.21914e-06
6.18673e-06
-5.89596e-06
-5.06873e-07
-4.56052e-06
1.59664e-05
2.45174e-06
-4.82671e-06
2.81988e-06
-3.07879e-05
8.484e-07
3.00173e-05
-7.77429e-08
2.88453e-05
1.93275e-05
-7.89607e-05
2.90942e-05
5.99452e-07
-5.11864e-05
-4.26609e-05
0.000123865
-5.22186e-05
9.54451e-07
2.20233e-05
-5.49145e-05
8.45665e-06
1.54478e-06
4.34633e-05
-4.44086e-05
3.26579e-05
-3.23137e-05
1.20064e-06
8.45778e-05
5.81032e-05
-0.000181473
-2.91249e-05
3.11331e-05
2.32648e-06
-3.55515e-05
2.09193e-06
-2.67941e-05
-1.13296e-05
6.92567e-05
-3.13564e-05
6.88878e-06
7.47432e-05
7.09099e-05
-0.000181205
7.23756e-05
4.45951e-06
-3.39715e-05
9.50175e-05
5.582e-06
2.7764e-05
1.14504e-05
-3.23256e-05
-2.29433e-05
-3.90793e-05
3.21134e-05
1.84163e-05
-6.58229e-05
0.000104188
-2.87712e-05
-1.58376e-05
-3.41121e-05
7.87209e-05
-4.39906e-06
-5.58176e-05
3.14455e-05
7.43852e-05
-9.32583e-05
8.74014e-05
-1.26101e-06
-7.46852e-07
1.49953e-06
5.08331e-07
3.63023e-07
1.14945e-06
-2.77348e-06
1.66573e-06
-2.04956e-06
-1.01456e-06
-2.356e-06
4.87009e-06
-1.86536e-06
1.35914e-06
-6.00179e-08
-6.55895e-07
-7.50281e-07
7.1272e-07
2.3724e-06
-2.05453e-06
-1.0306e-06
2.12563e-06
-2.82413e-06
1.41122e-06
-2.60479e-06
7.10281e-06
1.21759e-07
3.2543e-06
-5.43059e-06
2.82684e-06
-3.73567e-06
-6.64233e-08
4.96595e-07
1.55628e-07
1.2123e-06
-1.45131e-06
-1.05752e-06
1.29653e-06
-3.01865e-06
1.22462e-06
3.00634e-06
-5.91069e-08
-4.41085e-06
3.24916e-06
-1.4957e-06
-2.81098e-06
1.28789e-09
4.5444e-06
-2.64711e-06
3.87301e-06
-4.20191e-06
-1.09223e-06
5.53162e-07
-2.06015e-06
2.59922e-06
1.69174e-06
-1.80337e-06
-9.8061e-07
-2.16595e-06
1.26611e-06
2.92638e-06
-5.99586e-06
2.88221e-06
-2.59671e-06
-1.49226e-07
8.65483e-07
7.17001e-07
-4.86065e-06
-7.11641e-06
-1.50197e-06
1.3479e-05
-1.52449e-06
-5.19236e-06
1.8562e-06
-5.12302e-06
-3.51788e-06
9.33809e-06
2.94068e-06
-1.74711e-05
5.89229e-06
5.302e-06
6.60453e-06
-8.78687e-06
1.09948e-05
6.21644e-06
1.1015e-05
1.47475e-06
-1.87062e-05
3.6503e-06
5.70576e-06
-3.13963e-06
5.15971e-06
9.50557e-06
-1.12954e-05
-1.33894e-06
1.83401e-05
-5.94266e-06
-8.49236e-06
-8.18374e-06
1.20045e-05
-1.26517e-05
8.77933e-06
1.25642e-06
-9.8948e-06
-1.40948e-07
-1.12766e-05
-9.56728e-06
2.96233e-05
-1.52264e-05
5.20619e-06
1.25125e-05
8.36599e-06
-3.07733e-05
1.1608e-05
7.63561e-07
-1.03659e-05
1.24066e-05
-1.72263e-05
-2.796e-05
-6.2252e-06
1.20901e-05
2.20952e-05
1.58623e-05
1.39799e-06
-4.52203e-05
-6.17879e-06
1.58158e-05
2.66001e-05
-1.25242e-05
-2.02546e-05
-4.34801e-06
4.6764e-05
1.84724e-05
-2.95987e-05
2.62145e-05
-3.58865e-06
-1.69165e-05
1.47307e-06
1.90321e-05
-8.76148e-06
2.63179e-05
-2.11451e-05
2.15319e-05
-4.72098e-05
1.76714e-05
-2.14745e-05
5.2762e-06
-1.36814e-05
5.03848e-05
-6.17106e-06
1.88076e-05
-6.11372e-06
3.55409e-05
-3.69283e-05
6.66356e-06
-3.48423e-05
0.000120768
4.13546e-05
-8.43965e-05
3.73531e-05
1.0665e-05
2.13185e-05
5.98364e-06
1.55175e-05
2.23762e-05
-4.38774e-05
1.07345e-05
2.20888e-05
-2.68396e-05
1.16088e-05
1.46432e-05
3.54831e-06
-2.29662e-05
3.10268e-05
-2.2181e-05
4.03725e-05
-1.10106e-06
1.00882e-06
-1.69108e-06
1.31231e-06
-5.62129e-06
-1.33949e-05
1.77039e-05
-6.25786e-06
-1.18314e-05
1.94016e-05
-5.63771e-06
-6.24143e-06
-1.58708e-06
1.16319e-05
-1.56826e-05
9.5342e-06
-1.73627e-05
-3.67162e-06
3.47211e-06
-7.5323e-06
-1.60055e-05
-6.76746e-06
1.85614e-06
2.09168e-05
6.31819e-06
-4.22676e-06
-1.80969e-05
-6.35268e-06
5.9034e-06
1.44039e-05
-3.78717e-06
-1.69694e-05
3.07436e-06
1.7233e-05
1.1354e-05
-1.9368e-05
1.62845e-05
2.35719e-06
-1.76268e-05
1.69921e-05
-1.72248e-06
-2.27197e-05
2.11506e-05
3.9262e-06
1.46952e-05
-5.50417e-05
-2.10481e-05
-1.39557e-05
5.1996e-05
-2.0186e-05
-2.58458e-06
-1.17001e-05
1.88951e-05
-1.7191e-05
-2.8944e-06
-2.22369e-06
1.58888e-06
3.52921e-06
7.67226e-07
9.30119e-08
-3.75463e-06
-2.0346e-06
5.78132e-07
6.54451e-07
-1.93432e-08
-2.66971e-06
5.82429e-07
6.50154e-07
9.27091e-07
-8.53422e-07
3.0984e-06
-1.65167e-05
-1.56346e-05
-1.14901e-05
4.36414e-05
-8.86606e-08
-1.49847e-05
-1.4434e-06
-1.5589e-05
-1.34253e-07
1.8038e-05
1.09897e-05
-4.46168e-05
1.82576e-05
-3.5377e-07
1.08559e-05
-1.48508e-05
1.76233e-05
1.40688e-05
4.70911e-07
-1.41729e-05
-3.66832e-07
-1.5186e-05
-1.15988e-05
4.08537e-05
-1.65992e-05
1.88413e-06
1.60851e-05
1.32229e-05
-4.3481e-05
1.74523e-05
-1.73407e-06
-9.2381e-06
1.50916e-05
-1.26144e-05
-1.0191e-05
-7.99423e-06
-5.18809e-06
2.33733e-05
8.93384e-07
-9.56613e-06
-1.51828e-06
-8.21559e-06
1.11474e-06
1.1669e-05
6.51953e-06
-2.64041e-05
1.01683e-05
2.61546e-06
7.94024e-06
-1.09868e-05
1.29205e-05
1.65215e-06
-1.05215e-05
-1.98395e-06
1.08533e-05
-1.54953e-05
1.02052e-05
6.94231e-06
6.27981e-06
-3.22966e-05
1.38468e-05
-9.22242e-06
-6.60833e-06
-6.32328e-06
3.10234e-05
-7.11546e-06
1.09973e-05
-1.00581e-05
-4.22993e-05
1.86831e-06
4.31146e-05
-2.68358e-06
3.7506e-05
1.98088e-05
-9.96142e-05
3.83493e-05
1.02501e-06
-6.85958e-05
-5.42091e-05
0.00016592
-6.07394e-05
-1.05401e-05
2.74429e-05
-6.83734e-05
1.1583e-05
-1.89569e-06
5.81994e-05
-5.52787e-05
4.23943e-05
-3.84163e-05
-5.87366e-06
0.000112177
5.25402e-05
-0.000207433
-5.42495e-05
-6.16298e-06
3.68776e-06
5.8292e-06
-3.35398e-06
1.28239e-05
2.65723e-07
-1.92526e-05
4.26632e-06
1.22453e-05
-1.1502e-05
-1.06114e-07
1.74373e-05
-4.53596e-06
-1.032e-05
8.71499e-06
-1.29852e-05
1.28752e-05
-2.4982e-06
-3.61802e-06
2.5554e-06
3.56082e-06
-1.72707e-06
6.27937e-06
-7.0505e-06
5.09607e-06
-1.04412e-05
1.71263e-06
-7.7936e-06
8.63638e-06
-6.50695e-06
1.17804e-05
-2.5855e-06
2.35793e-06
-5.28304e-06
-1.72915e-06
-2.29798e-06
1.78658e-06
2.24056e-06
-7.13245e-07
4.43678e-06
-5.45269e-06
4.30466e-06
-7.31589e-06
5.87477e-07
-4.54524e-06
5.74434e-06
-4.09931e-06
6.92734e-06
-6.39446e-07
9.76919e-07
-8.80023e-07
9.78182e-07
5.03164e-06
-4.69372e-06
-1.3161e-06
6.34178e-06
-8.04496e-06
2.68136e-06
-8.98185e-06
-9.87796e-06
1.06594e-06
-1.38046e-05
-5.78561e-06
-4.51235e-06
-1.45976e-05
-2.72496e-06
-3.61601e-06
1.05485e-09
6.33991e-06
1.12757e-06
-1.55225e-06
-2.30028e-06
8.37063e-07
-3.3255e-06
3.42767e-06
-2.63615e-06
-2.34378e-06
-4.5738e-06
8.00252e-06
-8.24908e-06
-1.42107e-05
-7.29466e-06
-9.43184e-06
-3.62223e-06
-5.97271e-06
-1.53978e-05
-1.24074e-05
-1.02322e-05
-1.05282e-05
3.31678e-05
-3.73015e-07
-1.301e-05
9.75586e-07
-1.00347e-05
-5.70492e-07
9.74363e-06
7.65801e-06
-2.74364e-05
1.06583e-05
-1.48513e-06
5.50759e-06
-1.08595e-05
5.63764e-06
-1.69317e-06
-5.20314e-07
-6.41912e-07
2.8554e-06
1.11796e-07
-3.38727e-07
-1.46624e-06
-3.8701e-07
-2.15072e-08
8.29294e-07
-4.29055e-07
-7.87248e-07
-2.33607e-07
1.04139e-06
6.19276e-07
-1.38706e-06
-2.56243e-07
1.78696e-06
3.17536e-07
-1.84802e-06
-2.5647e-07
-1.91541e-06
-1.64394e-06
5.34631e-06
-2.5726e-06
9.74726e-07
2.05484e-06
1.71347e-06
-5.61634e-06
2.47609e-06
-6.77717e-07
-1.72869e-06
2.56085e-06
-2.58782e-06
3.17113e-06
4.94262e-06
1.81937e-06
-9.93312e-06
9.16659e-07
3.04722e-06
-7.92752e-07
3.29835e-06
2.56093e-06
-4.6644e-06
-1.57952e-06
9.29114e-06
-3.46687e-06
-1.99028e-06
-3.45412e-06
5.17295e-06
-5.10162e-06
-4.5621e-06
-5.13892e-06
-4.34741e-06
1.40484e-05
-7.76688e-07
-5.68133e-06
1.89591e-06
-5.27345e-06
-6.42161e-07
6.09266e-06
5.50776e-06
-1.68739e-05
6.72239e-06
-1.27189e-06
2.88044e-06
-3.05401e-06
5.25542e-06
1.04486e-06
7.00452e-06
-8.972e-07
-7.15218e-06
7.13499e-06
-9.62193e-06
3.53181e-06
-5.94134e-06
2.00809e-05
-8.68572e-06
1.11541e-05
-3.36556e-06
8.21036e-06
-2.40483e-05
6.78551e-06
-8.19709e-06
1.19983e-05
9.28714e-06
8.7664e-06
9.37841e-06
-2.74319e-05
2.37196e-06
1.25233e-05
-5.60812e-06
7.5933e-06
3.54507e-06
-6.02994e-06
-8.95619e-06
2.25794e-05
-1.2175e-05
9.69016e-06
-6.96689e-06
1.0534e-05
-9.76351e-06
1.51968e-05
1.31127e-05
1.0933e-05
-3.92425e-05
2.15794e-06
1.80731e-05
-5.03417e-06
1.29331e-05
2.33752e-06
-1.12036e-05
-1.21118e-05
3.62485e-05
-1.68977e-05
8.03161e-06
-1.21574e-05
1.81187e-05
-1.81221e-05
-3.24516e-05
-3.57638e-06
2.02995e-05
1.57285e-05
1.99442e-05
9.82673e-06
-6.22226e-05
-1.44247e-06
1.78103e-05
2.25298e-05
-1.70595e-05
-6.91274e-06
-1.16965e-05
5.20366e-05
1.79865e-05
-2.52192e-05
2.65895e-05
1.70718e-05
-7.11596e-07
-1.75879e-05
1.22774e-06
-1.99591e-05
-1.54268e-05
5.24577e-05
-2.13995e-05
7.28765e-07
1.90844e-05
1.59827e-05
-5.2655e-05
2.08601e-05
-5.47893e-07
-9.90151e-06
1.53348e-05
-1.53183e-05
-1.10611e-05
-5.73405e-08
1.09052e-05
2.13233e-07
2.3981e-05
7.20668e-06
-4.22488e-05
2.39504e-05
-2.67733e-08
-4.04071e-05
-3.47062e-05
9.90638e-05
-3.91315e-05
-1.30237e-06
-6.61033e-06
-1.71907e-05
-3.85352e-05
1.09378e-05
-2.86675e-07
-1.09966e-05
3.45542e-07
-1.96746e-05
-6.85092e-06
3.74633e-05
-1.91485e-05
-8.12827e-07
7.37318e-06
-3.98866e-05
2.15168e-05
-3.92804e-05
3.98026e-05
3.89861e-05
-9.80211e-05
-1.10711e-06
1.65962e-05
3.89945e-05
-9.78395e-05
-3.81218e-07
7.80555e-08
-3.4881e-06
8.26871e-07
2.98771e-06
-3.2648e-07
5.58154e-06
2.50824e-06
-1.15779e-05
7.99797e-06
-1.58956e-06
-1.51951e-06
-3.41126e-06
7.91847e-06
-2.71601e-06
8.70025e-07
2.4811e-06
-2.68887e-06
7.06782e-06
-1.35193e-05
-1.35051e-05
-8.7076e-06
3.5732e-05
7.66605e-09
-1.36537e-05
1.26747e-07
-1.34484e-05
-4.90498e-08
1.81083e-05
1.35502e-05
-4.51069e-05
1.85327e-05
-4.73414e-07
9.76904e-06
-9.87257e-06
1.95941e-05
1.66092e-05
2.01623e-05
1.22965e-05
-4.90681e-05
6.85174e-07
1.69907e-05
-1.06664e-06
1.97805e-05
1.067e-06
-1.99289e-05
-1.25345e-05
4.94541e-05
-1.93925e-05
-1.60308e-06
1.38663e-05
-2.09622e-05
2.11122e-05
1.4267e-05
1.72513e-05
9.00623e-06
-4.05245e-05
-1.49483e-07
-1.55534e-07
1.4572e-05
1.63013e-05
8.00531e-07
1.82908e-05
-1.60251e-05
-2.42128e-06
-1.03022e-05
4.3165e-05
-1.28886e-05
1.88876e-05
-1.99074e-05
8.34881e-06
4.33884e-06
-9.44804e-06
-3.23961e-06
-6.34467e-06
-1.16825e-05
2.63759e-05
-1.63057e-05
1.42999e-05
1.06977e-05
1.20779e-05
-3.22237e-05
1.62026e-05
-8.74444e-06
-1.02744e-05
1.47945e-05
-1.45022e-05
-2.09822e-05
-4.82648e-05
-1.36775e-05
8.29245e-05
3.02609e-06
-1.99278e-05
-4.08048e-06
-4.35693e-05
-1.66938e-06
-9.71157e-06
-7.75515e-05
7.35856e-05
-6.69289e-05
3.72895e-05
6.41087e-05
-0.000174607
-1.51122e-05
3.83818e-05
-5.17274e-06
-8.61268e-05
-1.7714e-05
1.94004e-06
-1.93453e-06
-6.63507e-06
6.62956e-06
-3.3134e-06
-5.66748e-06
1.09209e-05
-1.86411e-06