/*--------------------------------*- C++ -*----------------------------------*\
| =========                 |                                                 |
| \\      /  F ield         | OpenFOAM: The Open Source CFD Toolbox           |
|  \\    /   O peration     | Version:  v2012                                 |
|   \\  /    A nd           | Website:  www.openfoam.com                      |
|    \\/     M anipulation  |                                                 |
\*---------------------------------------------------------------------------*/
FoamFile
{
    version     2.0;
    format      ascii;
    class       volVectorField;
    location    "0.25";
    object      U;
}
// * * * * * * * * * * * * * * * * * * * * * * * * * * * * * * * * * * * * * //

dimensions      [0 1 -1 0 0 0 0];


internalField   nonuniform List<vector> 
24700
(
(0.0184061 -1.74916 0.0186859)
(-0.00742294 -1.69569 0.0104327)
(-0.00545208 -1.64283 0.00151102)
(0.073441 -1.44496 -0.0171995)
(0.032508 -1.55924 -0.0384378)
(0.0805949 -1.51175 -0.0565976)
(0.0580061 -1.56323 -0.0486771)
(-0.0104649 -1.48954 0.0047044)
(0.0816085 -0.896931 -0.0189129)
(0.0260425 -1.39625 -0.0231287)
(-0.00255048 -1.46799 -0.0216235)
(-0.00363591 -1.49902 0.00446466)
(4.52709e-05 -1.48522 -0.0208136)
(0.00417328 -1.47114 -0.0190124)
(0.00579339 -1.48442 0.00350051)
(-0.00169933 -1.4952 0.000583837)
(-0.00221141 -1.48962 -0.0164063)
(-0.0047385 -1.57111 0.018116)
(0.0329313 -1.54388 0.0210995)
(0.00192654 -1.6737 0.0965217)
(0.0436001 -1.45228 0.00381776)
(0.00856396 -1.49765 -0.000820294)
(0.0255023 -1.44587 0.008931)
(0.00406443 -1.57568 0.0539312)
(0.0521905 -1.43822 -0.00216229)
(0.00747169 -1.51485 -0.005854)
(0.0475734 -1.20873 -0.00214661)
(-0.010751 -1.50007 0.0105766)
(-0.0261255 -1.50375 -0.0311406)
(-0.0348599 0.657473 -0.0928152)
(-0.00473941 0.715541 0.0701498)
(0.0375891 0.677034 -0.0173896)
(-0.0512634 0.711619 -0.0218424)
(-0.0366228 0.766791 0.117509)
(-0.0349405 0.693261 -0.0592771)
(0.0750508 0.692817 0.00739078)
(0.0751698 -0.547815 0.88433)
(-0.0797423 -0.650623 0.97593)
(-0.00513505 -0.580227 0.964581)
(-0.0696113 -0.907094 0.871857)
(0.0828979 -0.857032 0.669346)
(-0.0762919 -0.900964 0.912858)
(0.124105 -0.74184 0.70773)
(0.00272167 -1.0443 0.0992101)
(0.0107425 -1.11301 0.0895227)
(0.0240443 -1.18862 0.0798718)
(0.0114988 -0.984096 0.0622714)
(-0.00578934 -0.994541 0.102998)
(0.0108537 -1.04975 0.0793158)
(0.0277694 -1.12308 0.0521347)
(-0.00689213 -1.12067 -0.485066)
(-0.000641647 -1.14494 -0.370219)
(-0.00123561 -1.15902 -0.485001)
(-0.00318894 -0.994258 -0.309792)
(0.0120031 -1.0347 -0.32341)
(0.0319843 -1.01836 -0.356166)
(0.0346565 -1.03624 -0.375263)
(0.144784 -2.19758 0.353739)
(0.274802 -2.72609 2.18163)
(1.00027 -2.10021 -0.998883)
(0.285841 -1.82778 -0.861253)
(-0.832135 -1.49202 -0.319506)
(0.708377 -1.87288 -0.866462)
(-0.8066 -1.61608 -0.903323)
(0.000307426 -0.405424 -0.274017)
(-0.00937094 -0.38759 -0.310739)
(-0.00334252 -0.355759 -0.323852)
(0.00886236 -0.335335 -0.267609)
(0.00217354 -0.363669 -0.260998)
(-0.00568008 -0.365091 -0.301039)
(-0.00444087 -0.344456 -0.308012)
(-0.0611705 -0.198968 0.0954908)
(0.00947102 -0.30497 0.0060561)
(0.0636742 -0.191244 0.113937)
(-0.0207961 -0.345311 -0.0287564)
(0.0189997 -0.300113 -0.026693)
(0.0930496 -0.256211 0.035598)
(-0.00741444 -0.312722 0.00819216)
(0.00228083 -1.44771 -0.0851358)
(-0.0237514 -1.11559 0.0170737)
(-0.00552365 -1.49751 -0.0775487)
(-0.0550847 -1.5581 -0.0559639)
(0.0461288 -1.32889 -0.11369)
(-0.0238483 -1.52468 -0.127148)
(-0.0250451 -1.53386 -0.103406)
(0.00944194 -0.261493 -0.208991)
(0.0401138 -0.352115 -0.131833)
(0.0192905 -0.429823 -0.110422)
(-0.0906426 -0.365289 -0.155902)
(-0.014457 -0.300619 -0.0918186)
(-0.0447762 -0.396026 -0.0930284)
(-0.0686116 -0.497028 -0.111726)
(0.00167964 -0.0381684 -0.26707)
(-0.0072016 -0.0344653 -0.273989)
(0.000446124 -0.0453668 -0.285941)
(-0.00253321 0.0200515 -0.28939)
(0.0120504 0.0126666 -0.267513)
(-0.00470254 -0.00930861 -0.278967)
(0.0121341 -0.00410592 -0.259947)
(-0.00361139 0.0882286 -0.625063)
(0.0057253 0.155125 -0.677626)
(0.00536238 0.106086 -0.672706)
(-0.0062156 0.140894 -0.709915)
(-0.0106376 0.194685 -0.707677)
(-0.00886586 0.18799 -0.721966)
(-0.000709251 0.130412 -0.726247)
(-0.0647276 1.29421 0.0600248)
(0.00851271 0.937804 0.139659)
(0.00968918 0.935138 0.0884711)
(-0.0329532 0.983982 0.047843)
(-0.134818 1.15981 -0.0495812)
(-0.145938 1.1215 0.158296)
(-0.190223 1.39376 0.059628)
(0.00141005 0.605219 0.0203801)
(0.00557574 0.656003 0.0209956)
(-0.00196741 0.673661 0.0225295)
(0.0167493 0.646446 -0.0302009)
(-0.00179787 0.642124 -0.0170682)
(-0.0105001 0.626763 -0.0159025)
(0.0191205 0.647018 -0.0370844)
(-0.0489319 0.424235 -0.00250953)
(0.0171859 0.611964 -0.0522692)
(-0.00888562 0.602806 -0.00341623)
(-0.00690744 0.663792 -0.00890892)
(-0.00117417 0.653453 -0.00161988)
(-0.000510104 0.656233 0.00200096)
(0.0140702 0.678612 -0.0323629)
(-0.00494252 0.673532 -0.0377608)
(0.00988608 0.679596 -0.0382066)
(-0.0139274 0.684692 -0.0413515)
(-0.00197665 0.662196 -0.0297384)
(0.00987979 0.660489 -0.0318617)
(0.00355072 0.658221 -0.0149201)
(-0.0149251 0.682197 -0.0102333)
(-0.0033163 0.686026 -0.02986)
(-0.00268538 0.582769 -0.112639)
(-0.000297631 0.585215 -0.096553)
(-0.0046079 0.58405 -0.0972452)
(0.00458222 0.578043 -0.0916863)
(0.00116102 0.580526 -0.0990564)
(-0.00176359 0.583167 -0.111006)
(2.82624e-05 0.578243 -0.0956842)
(9.14349e-05 0.0406881 -0.327386)
(-0.00443702 0.0867914 -0.3135)
(0.00340134 0.0963609 -0.330416)
(-0.00530459 0.0437413 -0.330429)
(-0.0045011 0.0412713 -0.3185)
(-0.00969745 0.0750528 -0.313395)
(-0.00707236 0.0685083 -0.330508)
(0.0013931 -1.16476 0.0870032)
(6.78055e-05 -1.08365 0.106494)
(-0.00673975 -1.00606 0.12662)
(-0.00571916 -0.97622 0.142756)
(-0.0200979 -0.951914 0.105497)
(-0.00913295 -1.03281 0.1077)
(-0.00451174 -1.10427 0.0703908)
(0.0111431 -0.346363 -0.785765)
(-0.00408746 -0.239565 -0.799411)
(-0.00435048 -0.135489 -0.94207)
(-0.0140312 -0.270513 -0.949713)
(-0.0299956 -0.202516 -0.951087)
(-0.0387409 -0.224046 -0.81841)
(-0.0172747 -0.298289 -0.811116)
(-0.00737969 0.80624 -1.18676)
(0.0188469 0.655872 -1.12225)
(-0.0129048 0.620052 -1.11962)
(0.010324 0.770024 -1.19404)
(0.0182466 0.780488 -1.20859)
(0.0160043 0.713193 -1.20061)
(-0.00966891 0.722611 -1.19989)
(-0.00287846 0.866084 -1.04556)
(-0.00685761 0.817276 -0.969682)
(0.0180895 0.840055 -0.901318)
(0.0034245 0.906951 -1.00245)
(-0.0181242 0.8858 -1.0328)
(-0.0231216 0.841384 -0.968466)
(0.0178766 0.857581 -0.84663)
(0.021661 1.07203 -1.06589)
(-0.00603354 1.02186 -1.06363)
(9.11748e-05 1.14322 -1.09947)
(-0.0119969 1.10721 -1.01989)
(0.0208016 1.1607 -1.0332)
(-0.0271827 1.0823 -1.08714)
(-0.00370938 1.13552 -1.08682)
(0.0124572 0.87405 -0.989801)
(0.00304959 0.857761 -0.974161)
(-0.00255496 0.907738 -1.01636)
(-0.00245968 0.863797 -0.964314)
(0.00555908 0.893841 -0.973008)
(-0.00123308 0.84353 -0.942649)
(0.0144956 0.877968 -0.963834)
(0.0170513 -1.2229 -0.261956)
(0.0151573 -1.25786 -0.222154)
(0.00363295 -1.18785 -0.319126)
(-0.0290262 -1.22652 -0.211756)
(-0.00906257 -1.19653 -0.266917)
(0.00200725 -1.26849 -0.21112)
(0.0169165 -1.22301 -0.243901)
(-0.0154295 -1.1732 0.0415212)
(-0.00858005 -1.21759 0.0798142)
(-0.00933834 -1.20607 0.0584299)
(0.0129635 -1.20586 0.052923)
(0.024302 -1.22631 0.0338699)
(0.00690763 -1.17232 0.0364034)
(0.00213254 -1.18274 0.0493624)
(0.00119333 -1.98858 -0.0137254)
(-0.00597089 -1.98228 0.0148708)
(0.00689872 -1.99649 -0.0361765)
(0.00348194 -1.97135 -0.00451977)
(0.00170469 -1.95395 -0.0332817)
(0.00450774 -1.97405 -0.0364955)
(0.00215856 -1.97051 -0.0166041)
(-0.00420012 -0.729658 0.128228)
(-0.0277261 -0.607256 0.116495)
(0.00454439 -0.665551 0.0738132)
(0.00809222 -0.729776 0.15595)
(-0.00292025 -0.696628 0.177763)
(-0.0283333 -0.642134 0.159888)
(-0.00501171 -0.6513 0.116677)
(-0.0290353 -1.84854 -0.100108)
(0.0164544 -1.82174 -0.196817)
(-0.0534767 -1.88167 0.0135546)
(0.0240592 -1.96496 0.00101849)
(0.00677859 -1.96343 -0.134809)
(-0.0154439 -1.95066 0.0339192)
(-0.00825684 -1.94851 -0.0760884)
(0.0612989 -0.366978 -1.66562)
(-0.0150945 -0.300099 -1.63811)
(0.0033027 -0.368127 -1.55259)
(0.0384269 -0.173517 -1.5344)
(0.0478486 -0.242563 -1.56756)
(0.0450945 -0.116568 -1.7444)
(0.108489 -0.214884 -1.7503)
(0.003197 0.755022 -1.81816)
(0.0602644 0.832135 -1.50467)
(0.0625346 0.798683 -1.70035)
(-0.0148926 0.549282 -1.85612)
(-0.0105576 0.539982 -1.68242)
(0.0567637 0.703163 -1.54482)
(0.083066 0.666324 -1.79024)
(0.00830839 0.848352 -1.85549)
(-0.0453829 1.00156 -1.85842)
(0.00658006 0.838988 -1.76624)
(-0.0210814 0.874595 -1.87369)
(-0.0623992 0.984596 -1.92921)
(-0.174597 1.118 -1.89753)
(-0.0653631 0.910601 -1.81415)
(-0.179999 -0.168784 -0.0588406)
(-0.261331 -0.87226 0.00686462)
(-0.433176 -0.325395 0.0174817)
(-0.0225403 -0.432014 0.188549)
(0.0102692 -0.938027 0.476853)
(0.13251 -0.923423 0.64577)
(-0.0378458 -0.00622872 -0.0823291)
(-0.00358063 0.0105145 -0.0198864)
(-0.0380665 0.0120388 -0.00161896)
(0.0132664 0.0785808 -0.113212)
(-0.0770833 0.0599636 -0.215134)
(0.0145785 0.158845 -0.187873)
(-0.0713831 0.376359 -0.954877)
(-0.02222 0.571574 -0.856519)
(0.000991388 0.798505 -0.878514)
(0.0174679 0.651703 -1.11352)
(0.0217024 0.783063 -1.01233)
(-0.0478061 0.613871 -0.976737)
(-0.0588459 0.453346 -1.11365)
(-0.0269282 0.928741 -0.99987)
(-0.0189449 0.925124 -1.03169)
(0.00468041 0.960713 -1.12938)
(0.00153375 0.826419 -1.03336)
(0.0221858 0.861326 -1.02683)
(-0.0229249 0.85654 -0.988651)
(-0.0408621 0.836703 -0.933291)
(-0.0150201 1.05002 -1.02024)
(-0.00788523 1.06708 -1.07637)
(0.00261267 1.05829 -1.03869)
(-0.0353946 1.01571 -1.01917)
(-0.00824133 1.0246 -1.02923)
(-0.0150132 1.04133 -1.02876)
(-0.0303476 1.03875 -1.03346)
(-0.0020813 0.940937 -1.07977)
(0.0364797 0.958791 -1.27309)
(0.0112213 0.93621 -1.19028)
(0.00394869 0.947862 -1.1362)
(0.018255 1.00245 -1.19861)
(0.0725388 0.994378 -1.20454)
(0.0497594 0.935139 -1.1757)
(0.0415612 1.22776 -0.810107)
(0.0372926 0.978771 -0.893275)
(-0.00305938 0.858553 -0.936404)
(-0.104753 0.940223 -0.536045)
(-0.0294804 0.86678 -0.825148)
(0.0117695 1.02773 -0.757991)
(0.10201 1.21521 -0.635859)
(-0.0100075 0.698642 -0.953858)
(0.0323477 0.899295 -0.438225)
(0.015863 0.735758 -0.85675)
(-0.0821023 0.742769 -0.845579)
(-0.0151967 0.856284 -0.583668)
(-0.132924 0.758964 -0.252299)
(-0.158162 0.745365 -0.54613)
(-0.0170484 0.535005 -0.708759)
(0.00476419 0.72159 -0.864261)
(-0.0115245 0.623867 -0.759987)
(0.0063879 0.844746 -0.897607)
(0.00772618 0.835592 -0.913498)
(-0.00911804 0.733544 -0.823728)
(-0.0117086 0.678759 -0.794107)
(-0.0233432 -1.90743 0.0170333)
(-0.0666591 -1.73413 0.0252512)
(0.0068301 -1.94487 -0.00693611)
(0.0415496 -2.2369 -0.032886)
(0.012692 -2.18417 -0.0383993)
(-0.0178129 -2.06868 -0.0189802)
(0.0336942 -2.17617 -0.0277051)
(0.00695352 -1.08617 -0.0997253)
(0.0113641 -1.1078 -0.0682756)
(-0.00778321 -1.05245 -0.130611)
(-0.0123649 -0.983651 -0.0972735)
(-0.0030609 -1.01098 -0.137856)
(0.00297082 -1.06794 -0.0542928)
(-0.000985411 -1.04247 -0.0972077)
(-0.00642081 -0.608973 -0.338679)
(0.000949693 -0.635993 -0.384822)
(-0.00222644 -0.698725 -0.382511)
(0.00675369 -0.680379 -0.352671)
(0.00280838 -0.659762 -0.309713)
(0.00213418 -0.634003 -0.356256)
(-0.00295012 -0.612944 -0.298195)
(-0.0118026 0.25763 -0.508925)
(-0.000377763 0.277519 -0.52567)
(-0.000862084 0.191731 -0.516962)
(0.00370864 0.208794 -0.521682)
(0.00587867 0.192877 -0.504859)
(0.00124691 0.255351 -0.534205)
(-0.00544723 0.247096 -0.509849)
(-0.00116741 0.682001 -0.717917)
(-0.0219888 0.777821 -0.691371)
(-0.00923989 0.836126 -0.71964)
(0.0174909 0.694047 -0.716943)
(0.0121656 0.714151 -0.76162)
(-0.00155273 0.753751 -0.700455)
(-0.00680527 0.772621 -0.745074)
(-0.0248095 1.02301 -0.464743)
(0.000393361 0.887096 -0.537153)
(-0.0222736 0.962162 -0.482873)
(0.018606 0.935327 -0.551219)
(-0.00567256 0.978508 -0.575198)
(-0.0154874 0.978508 -0.500404)
(-0.036467 1.0234 -0.510251)
(-0.00658272 0.870603 -0.12234)
(0.00679133 0.856435 -0.0981523)
(-0.000568566 0.85479 -0.129135)
(-0.00548365 0.815987 -0.116394)
(-0.00651922 0.806925 -0.130544)
(-0.000427191 0.836113 -0.0968408)
(-0.00537853 0.842447 -0.124348)
(-0.00561537 0.764593 -0.066405)
(0.00275728 0.748235 -0.0753582)
(-0.000658129 0.751076 -0.0718342)
(0.00537611 0.772022 -0.109981)
(-0.00542915 0.787126 -0.111269)
(0.00635266 0.763138 -0.0989831)
(0.00330327 0.776541 -0.0886817)
(-0.0134475 0.711369 -0.0653687)
(-0.000548216 0.710667 -0.0740124)
(-0.00266526 0.708441 -0.0573119)
(-0.00232499 0.736946 -0.0659198)
(0.0119333 0.742877 -0.0460052)
(0.00910269 0.727744 -0.04271)
(-0.00881544 0.732646 -0.0663619)
(0.0033098 0.645841 -0.115774)
(0.00101269 0.646241 -0.128896)
(0.00012354 0.647219 -0.131526)
(-0.0105977 0.629885 -0.114354)
(-0.00557944 0.62935 -0.112231)
(0.000236083 0.632229 -0.105676)
(-0.00497623 0.637406 -0.120159)
(0.000398697 0.582778 -0.0949152)
(0.00330513 0.577415 -0.108451)
(0.00341299 0.580472 -0.0952492)
(0.000123229 0.577937 -0.0960412)
(-0.00452866 0.575543 -0.0896016)
(0.00335989 0.579388 -0.108001)
(-0.000445975 0.574617 -0.093743)
(-0.000880006 0.378568 -0.164432)
(-0.00352526 0.363092 -0.197529)
(-0.00196335 0.363031 -0.172508)
(0.000830524 0.394345 -0.172786)
(0.00403328 0.39972 -0.190166)
(0.00174948 0.38718 -0.205442)
(-0.00182993 0.379313 -0.183124)
(-0.00056255 -0.0439756 -0.28794)
(0.00787041 -0.0325092 -0.274646)
(-0.000450177 -0.0369775 -0.268174)
(-0.0125877 0.015772 -0.269845)
(0.000263958 0.0222926 -0.291005)
(0.00460056 -0.00487957 -0.281055)
(-0.0114405 -0.00053321 -0.262381)
(-0.00039868 -0.230046 -0.21776)
(0.0100966 -0.174989 -0.255266)
(0.0184831 -0.201622 -0.242475)
(-0.00924892 -0.200937 -0.219565)
(-0.0177788 -0.172381 -0.228263)
(-0.00924637 -0.172655 -0.257727)
(0.0058014 -0.190613 -0.24838)
(-0.00290575 -1.89397 0.000264027)
(0.00287924 -1.91795 0.0205614)
(0.0121655 -1.93484 0.0419589)
(-0.00151607 -1.86552 -0.00362518)
(-0.00337498 -1.86779 -0.0190905)
(0.00455048 -1.88505 -0.00215346)
(0.0129761 -1.89901 0.018288)
(0.00122245 0.107068 0.448588)
(-0.0349861 0.109583 0.480094)
(-0.00175299 0.296814 0.506807)
(0.00463959 0.574109 0.71319)
(-0.0644499 0.68459 0.705559)
(-0.139212 0.379548 0.55349)
(-0.0240794 0.36234 0.591923)
(-0.0936446 0.852061 0.988152)
(0.00344371 0.541924 0.759332)
(-0.0327573 1.19041 1.26336)
(0.1268 1.3281 1.27792)
(-0.0490075 0.834745 0.624551)
(0.130011 1.54985 1.52762)
(-0.0118772 0.98529 1.06802)
(-0.0167438 0.796681 -1.88557)
(-0.0358714 0.601275 -1.81287)
(0.0101903 0.70709 -1.64728)
(0.0109257 0.692703 -1.60535)
(-0.0307702 0.847125 -1.38193)
(-0.0342381 0.612995 -1.78874)
(-0.0756472 0.964659 -1.68881)
(-0.0895349 0.032909 -0.96465)
(-0.0690032 0.746045 -1.56912)
(0.0908267 0.271899 -1.42835)
(0.165462 0.776093 -0.741051)
(0.16821 0.644481 -1.14298)
(0.393878 -0.00994584 0.403219)
(0.494688 -0.175962 -0.439789)
(0.554247 -0.403525 -1.64036)
(-0.209379 -0.525752 -1.44065)
(0.55474 0.748168 -0.130009)
(-0.0215409 0.510702 -0.167431)
(0.236681 0.305725 0.216502)
(-0.000844302 -1.14796 0.152677)
(0.130597 -0.680906 -0.569637)
(-0.472141 -0.980699 0.166275)
(0.0995306 -1.30122 0.621167)
(1.34098 -1.31661 1.13965)
(1.34595 -0.991478 0.81177)
(-0.170999 -1.17354 0.580328)
(0.851781 -0.586059 0.383588)
(0.2616 -1.07278 0.581399)
(-0.163206 -0.78153 -0.160492)
(0.0185853 -0.852659 -0.8005)
(1.39114 -0.790897 0.754408)
(-0.10305 0.20377 0.497933)
(0.0635565 0.20463 0.2139)
(0.0271032 0.261245 0.420492)
(-0.128842 0.848527 0.0303439)
(0.0863906 0.680742 0.277786)
(0.0385401 0.329161 0.266974)
(-0.0562645 0.516491 0.496971)
(-0.000886896 0.71859 -0.869945)
(-0.0500569 0.297006 -1.24752)
(-0.0187503 0.549133 -0.990171)
(0.00118983 0.565241 -0.949684)
(-0.0479882 0.253117 -1.07776)
(-0.122085 0.29829 -1.17963)
(-0.0709638 0.498803 -1.03337)
(0.000644157 -0.816131 -0.178254)
(-0.00837726 -0.821814 -0.227384)
(-0.0129668 -0.846226 -0.252581)
(0.0051423 -0.851102 -0.180802)
(-0.00406701 -0.784923 -0.164654)
(-0.00818071 -0.802431 -0.19857)
(0.00269002 -0.866941 -0.225175)
(0.00225622 -0.783931 -0.0289974)
(0.00112629 -0.795385 -0.0590262)
(0.0059872 -0.844592 -0.0942419)
(0.0188243 -0.890794 -0.0558694)
(-0.00824332 -0.849435 -0.0265402)
(0.00021127 -0.846517 -0.0422895)
(0.0233177 -0.911709 -0.0732129)
(-0.00228102 -1.10795 -0.198242)
(-0.0102374 -1.05132 -0.223174)
(-0.00490711 -1.04173 -0.250603)
(0.0132228 -1.0937 -0.266079)
(0.00354709 -1.10132 -0.241246)
(-0.011416 -1.06166 -0.251186)
(-0.00236251 -1.06393 -0.270314)
(-0.0168437 -0.628594 -0.66267)
(-0.0183348 -0.572153 -0.682771)
(-0.000260182 -0.687486 -0.660763)
(0.0227609 -0.60187 -0.758751)
(0.016952 -0.659373 -0.718304)
(0.00845096 -0.585175 -0.748868)
(0.0034088 -0.62925 -0.721001)
(-0.000310653 -0.0665717 -0.58265)
(-0.0203559 0.00782775 -0.586931)
(0.00850541 0.0174269 -0.603046)
(0.00903286 -0.0495492 -0.606375)
(-0.000218315 -0.063054 -0.582229)
(-0.0135894 -0.0113799 -0.57537)
(0.0107035 -0.00661872 -0.618423)
(-0.0074628 0.644505 -0.961983)
(0.0206615 0.644043 -1.00546)
(0.000596823 0.538253 -0.958609)
(0.0200166 0.585338 -0.961263)
(0.00388255 0.566211 -0.939501)
(0.021906 0.587047 -0.980757)
(0.00327314 0.615403 -0.944575)
(-0.293746 2.65216 0.115195)
(0.218945 3.17411 0.0406706)
(-0.417908 2.06581 -0.0190625)
(-0.252549 2.98383 0.0196316)
(-0.663155 2.9789 0.108441)
(-0.675403 3.1379 0.248225)
(-0.147439 3.43483 -0.0681528)
(-0.00123889 0.888503 -0.207299)
(0.000271636 0.948722 -0.179083)
(-0.00833661 0.892573 -0.190527)
(0.00154629 0.958812 -0.186328)
(0.0125009 0.939641 -0.142858)
(3.78807e-05 0.917275 -0.214813)
(0.0050128 0.913214 -0.165481)
(-0.000198205 0.340601 -0.00498219)
(0.00281185 0.338353 -0.0192611)
(-0.00224646 0.328858 0.00449629)
(-0.00534584 0.303331 -0.0112223)
(0.00235572 0.314837 0.00790096)
(-0.00281522 0.310016 -0.0166929)
(-0.000295991 0.326177 0.00176724)
(0.00173061 0.261645 0.027142)
(0.00259374 0.25215 -0.00126139)
(-0.00325409 0.256921 0.0347507)
(-0.0107482 0.208809 0.00269644)
(0.00506939 0.218056 0.0377709)
(-0.00766391 0.22065 -0.00166131)
(0.00377664 0.238017 0.0338627)
(0.000945923 -0.349221 0.18139)
(-0.00600013 -0.402143 0.239792)
(0.019932 -0.394453 0.268553)
(0.00716294 -0.332302 0.235421)
(-0.0191039 -0.369239 0.21209)
(-0.0194711 -0.399879 0.240498)
(0.012848 -0.346456 0.250252)
(0.00371332 2.28475 1.57301)
(-0.01468 1.91206 1.54724)
(-0.0278726 2.07035 1.27611)
(0.0566302 1.95689 1.63332)
(0.0885865 1.95835 1.53535)
(0.070978 2.15411 1.64764)
(0.0912324 2.03812 1.4466)
(0.33204 2.5857 0.548142)
(0.107921 2.50096 0.32739)
(-0.052651 2.75485 1.0671)
(-0.467068 2.8184 0.421766)
(-0.187609 2.78083 0.616418)
(-0.299353 2.66205 0.422585)
(0.126258 2.65097 0.509066)
(-0.0956321 2.54074 0.109167)
(-0.152563 2.76685 0.286528)
(0.0210995 2.21373 0.141005)
(0.042748 2.36812 -0.0550979)
(-0.0504037 2.53222 0.0166248)
(-0.290505 2.72153 0.436389)
(-0.079634 2.51436 0.124034)
(-0.00476884 1.35359 0.490104)
(-0.0101884 3.41015 -1.33341)
(-0.0472166 1.77543 0.78994)
(0.00493148 2.42026 0.392363)
(0.0154097 2.93886 0.420914)
(-0.334529 0.791705 -0.268996)
(0.404853 1.08179 -0.268312)
(-0.0722417 3.0097 -1.04186)
(-0.0744404 2.74282 -0.676582)
(0.0283048 2.93524 -1.17676)
(-0.0860865 2.54935 -1.37624)
(0.0210948 2.53608 -1.08492)
(-0.0133623 2.36609 -1.06173)
(-0.1294 2.65306 -1.41356)
(-0.0020174 1.00422 -1.38249)
(-0.024628 1.00068 -1.35955)
(0.000738792 1.01276 -1.41826)
(0.0209341 0.940069 -1.55693)
(0.0287156 0.952653 -1.48073)
(0.0201013 0.964073 -1.41553)
(0.0228214 0.943463 -1.51062)
(-0.000796462 0.637647 -1.15211)
(0.0119478 0.336164 -1.118)
(-0.0411725 0.431243 -1.29335)
(-0.02058 0.646193 -1.0881)
(0.028616 0.583484 -1.0013)
(0.0141685 0.340946 -1.01207)
(-0.0558003 0.502336 -1.20789)
(-0.00609326 -0.22322 -1.49878)
(-0.0159878 -0.205002 -1.81469)
(0.00708054 -0.23619 -1.64875)
(-0.0228093 -0.392592 -1.23156)
(-0.0387866 -0.397966 -1.31559)
(-0.0176502 -0.269146 -1.58261)
(-0.0025688 -0.336266 -1.45256)
(0.0300048 -2.06139 0.0420094)
(-0.0132469 -2.20951 0.0162794)
(-0.00647251 -2.24018 -0.0866288)
(-0.0223365 -2.36082 0.00191651)
(-0.0292447 -2.35874 -0.00782964)
(-0.0161384 -2.31399 -0.00220253)
(0.000128129 -2.26518 0.0180241)
(0.00683826 -2.45618 -0.0311)
(-0.00129843 -2.47405 -0.023215)
(-0.000250028 -2.45262 -0.0215167)
(-0.00212418 -2.47639 -0.0193738)
(-0.00459207 -2.4764 -0.0145521)
(0.00178236 -2.46048 -0.0275003)
(-0.00210426 -2.46316 -0.0193078)
(-0.00112542 -1.11246 -0.0863839)
(0.00483237 -1.13342 -0.0989873)
(0.00187672 -1.13688 -0.0541716)
(-0.00672871 -1.14368 -0.0649183)
(-0.00497567 -1.13257 -0.0604313)
(-0.000972442 -1.14715 -0.0858417)
(-0.00356298 -1.12267 -0.0853993)
(0.010484 -0.855158 -1.25424)
(-0.00821145 -0.863008 -1.19621)
(-0.00300577 -0.885381 -1.29957)
(0.0390845 -0.660162 -1.36744)
(-0.0232895 -0.666418 -1.18014)
(-0.0280752 -0.700193 -1.15498)
(0.00698089 -0.753361 -1.28948)
(0.00610993 0.0627189 -0.839395)
(-0.00904437 0.0863248 -0.85053)
(-0.000501714 -0.00138139 -0.890237)
(-0.0202226 0.0121676 -0.865915)
(-0.00117735 0.00698285 -0.859076)
(-0.0329163 0.0545043 -0.849307)
(-0.00468474 0.0505168 -0.826519)
(0.00961967 3.63835 -0.032054)
(0.101549 4.94808 -0.231783)
(-0.0136491 4.87328 -0.0552502)
(-0.015744 4.59816 0.0597278)
(0.0862068 4.36835 0.0494794)
(0.0641775 4.76846 -0.12441)
(-0.0599737 4.85065 -0.0303657)
(0.0643736 4.82671 -0.177815)
(0.0289416 4.12046 -0.0578982)
(-0.00564404 4.47197 -0.0473634)
(0.11983 4.86388 -0.376589)
(0.0922991 4.52735 -0.172363)
(-0.727033 2.19228 0.0952705)
(-0.222126 3.8034 0.163464)
(0.440256 4.85245 -0.168354)
(-0.137543 4.3865 -0.128703)
(-0.357841 3.50709 0.103909)
(-0.223095 4.43976 0.0270275)
(0.0987546 5.04946 -0.350373)
(0.021567 2.92466 -0.79447)
(-0.318214 3.2986 -0.00479192)
(-0.123213 2.80574 -1.01246)
(-0.258637 3.83329 -0.385902)
(-0.301421 3.98992 -0.314634)
(-0.0444773 2.22591 -0.624972)
(0.112412 2.16896 -0.695322)
(-0.0437717 2.82881 -0.513942)
(-0.152636 2.54186 -0.533495)
(-0.193257 2.37904 -0.202582)
(-0.00217357 0.227199 0.111925)
(-0.0124145 0.163124 0.0678308)
(0.00195334 0.183025 0.118112)
(0.00468828 0.234111 0.107225)
(-0.000972945 0.216769 0.0686829)
(-0.0123966 0.171318 0.0651779)
(0.00677824 0.205083 0.115093)
(-0.00134798 -0.347049 0.124875)
(0.0273789 -0.348123 0.0476855)
(0.00829689 -0.372358 0.0587809)
(-0.0236518 -0.282419 0.303866)
(-0.00282953 -0.305627 0.209721)
(-0.00145513 -0.284559 0.20079)
(-0.0108342 -0.30744 0.135435)
(0.000128661 -0.194771 0.235019)
(0.0118243 -0.193264 0.272235)
(0.00739526 -0.178723 0.27835)
(-0.0144862 -0.149573 0.267604)
(-0.00848472 -0.165198 0.251136)
(0.00519678 -0.172267 0.27859)
(-0.00512326 -0.158945 0.292351)
(0.0141995 -0.163959 0.279425)
(-0.00157766 -0.180197 0.313707)
(-0.00193266 -0.161487 0.285245)
(0.00594083 -0.13638 0.313532)
(-0.0111352 -0.131371 0.312403)
(-0.0116272 -0.129674 0.290229)
(0.0107677 -0.138673 0.296756)
(-0.010639 -0.253782 0.800397)
(0.003424 -0.282692 0.820852)
(-0.0166908 -0.209217 0.811665)
(0.0128809 -0.208121 0.87583)
(0.0154697 -0.25922 0.857251)
(-0.00662752 -0.198891 0.850044)
(0.00505801 -0.243998 0.8458)
(0.0328851 -0.504385 1.12014)
(0.00191268 -0.57796 1.02294)
(0.0266668 -0.561364 1.08979)
(-0.0203016 -0.509779 0.994618)
(-0.0337681 -0.442055 1.00581)
(0.0176777 -0.512993 1.06149)
(0.0126533 -0.454014 1.07587)
(0.0111627 1.5206 0.0949046)
(-0.0548353 1.51263 0.1502)
(0.00313927 1.55005 0.237992)
(0.0853906 1.80402 0.0268008)
(-0.00473595 1.7381 -0.00336901)
(-0.0500108 1.6921 0.0406077)
(0.0850581 1.77629 0.193619)
(-0.0387916 2.54769 1.15513)
(-0.062518 2.43208 1.28679)
(-0.0142552 2.52878 0.861213)
(0.0189272 2.48954 1.08223)
(0.0102495 2.51784 0.968928)
(-0.17166 2.28628 1.1939)
(-0.136892 2.428 1.17512)
(-0.0890659 3.25552 -0.00885359)
(0.0838985 2.1526 -1.22532)
(-0.106004 2.56516 -0.927261)
(0.0737385 3.61149 -0.307219)
(0.165582 2.90269 -0.40217)
(0.395639 2.17565 -1.32868)
(0.159427 2.94013 -0.767361)
(0.899642 3.09642 -0.0770167)
(0.633405 3.2926 0.083865)
(0.526399 3.5725 -0.351346)
(0.409059 4.23396 0.106858)
(0.30309 3.68963 -0.288449)
(-0.0138742 2.4065 -1.30006)
(-0.00375273 2.11959 -1.46221)
(0.0448698 2.48524 -1.9167)
(-0.0974452 2.40584 -1.66961)
(-0.0408162 2.28088 -1.82271)
(-0.154417 1.87763 -1.46955)
(-0.125459 2.23236 -1.28326)
(-0.00792877 0.909594 -0.957808)
(-0.00946137 0.934113 -0.986694)
(0.00368815 0.922016 -1.02255)
(0.00411728 0.913218 -1.02422)
(0.00459801 0.900195 -0.999461)
(0.00142971 0.909151 -0.998691)
(0.00445601 0.901005 -0.973293)
(0.013939 0.935325 -1.12048)
(0.0575212 0.950925 -1.16295)
(0.00213486 0.966497 -1.05483)
(0.0736846 0.979353 -0.866006)
(0.00883525 0.939579 -0.986607)
(0.158796 1.0059 -0.971113)
(0.0598063 0.937691 -1.00633)
(-0.0287712 0.314922 -2.70502)
(0.128224 0.233821 -2.91511)
(0.0340505 0.154991 -2.96358)
(-0.015431 0.144589 -2.78529)
(-0.0520171 0.105364 -2.75976)
(0.117683 0.0875058 -2.93402)
(-0.00463035 0.0442186 -2.85584)
(0.0902759 -0.250737 -0.175864)
(0.0457901 -0.225048 -0.132129)
(-0.00847044 -0.126891 -0.311096)
(-0.141218 0.0856392 -0.060942)
(0.0157192 -0.0222315 -0.154305)
(-4.45337e-05 -0.0704024 -0.0643626)
(0.119298 -0.185223 -0.0693833)
(0.042755 -2.33147 0.0425678)
(0.0500133 -2.03639 0.084443)
(-0.0109801 -2.60095 0.00635057)
(-0.0276943 -2.38761 -0.0192646)
(-0.00545531 -2.53518 -0.0214263)
(0.0174471 -2.08638 0.0204751)
(0.0153961 -2.36902 -0.00901535)
(-0.000175429 -2.19359 -0.0544378)
(-0.0144788 -2.20133 -0.0904348)
(-0.0192747 -2.21598 -0.121925)
(-0.00263639 -2.15799 -0.106283)
(0.0157735 -2.08746 -0.100791)
(-0.00900357 -2.14795 -0.0935866)
(-0.0164658 -2.18744 -0.1023)
(-0.0157463 -1.26169 0.118259)
(-0.0345128 -1.26935 0.0728557)
(0.00780852 -1.25646 0.161331)
(0.0151083 -1.31726 0.0772307)
(0.0143305 -1.30529 0.130362)
(-0.00906067 -1.30681 0.0647874)
(0.00505333 -1.29721 0.103726)
(-0.000906998 -1.70587 -0.210382)
(-0.0172779 -1.62163 -0.357664)
(0.00774972 -1.6126 -0.445722)
(0.0165413 -1.70438 -0.368203)
(-0.0109505 -1.6977 -0.290745)
(-0.0283338 -1.65703 -0.389593)
(-0.00504081 -1.6651 -0.4555)
(-0.0534955 5.41806 -0.0226295)
(-0.204652 6.02768 0.0440407)
(0.00844603 6.44682 -0.141417)
(-0.166513 6.60783 0.0587327)
(-0.38554 5.83391 0.189924)
(-0.256731 5.65852 0.315993)
(-0.0241405 6.47537 0.0795448)
(0.0277315 6.2077 -0.0995218)
(-0.0405018 4.9449 0.345542)
(0.0404551 5.96596 0.10094)
(-0.126227 5.71709 0.0894352)
(-0.165585 5.03585 0.380702)
(0.000504962 0.532581 -0.9592)
(-0.0235342 0.684067 -1.02265)
(0.0094604 0.659358 -0.971388)
(-0.00326548 0.549503 -0.938049)
(-0.0175403 0.569808 -0.965773)
(-0.0220952 0.586095 -0.999687)
(-0.00608672 0.60505 -0.95124)
(-0.000509529 0.386123 -0.573033)
(0.00791188 0.410985 -0.637034)
(-0.00699629 0.435077 -0.610483)
(-0.00196763 0.425581 -0.574661)
(-4.91664e-05 0.406113 -0.582594)
(0.00788673 0.410396 -0.634803)
(-0.00937869 0.44038 -0.609825)
(-0.000574202 0.268302 -0.355305)
(0.000371271 0.289195 -0.403698)
(-0.00485309 0.323236 -0.387197)
(0.00267445 0.300317 -0.357583)
(0.000705601 0.274818 -0.362338)
(0.00219792 0.285588 -0.402301)
(-0.00454651 0.323835 -0.388549)
(0.00101522 0.386224 0.0836769)
(-0.00453574 0.378955 0.0727091)
(-0.00845082 0.400302 0.102224)
(0.00176017 0.366617 0.095755)
(-0.000960688 0.392385 0.117907)
(-0.00717056 0.39263 0.118036)
(-0.00186079 0.418071 0.132941)
(-0.0277928 0.442265 0.175801)
(0.0051542 0.383797 0.108002)
(-0.0343645 0.425267 0.181348)
(-0.00370807 0.392382 0.134971)
(0.0143738 0.370528 0.120425)
(-0.0166662 0.389707 0.160953)
(-0.0136371 0.410513 0.138873)
(-0.00203805 0.401853 0.156084)
(-0.0238764 0.429692 0.174974)
(0.00137671 -1.66444 -0.0392074)
(0.00277352 -1.65413 -0.02114)
(-0.0018633 -1.66505 -0.0558467)
(-0.00391666 -1.63128 -0.0355004)
(-0.00201726 -1.65631 -0.049879)
(-0.00191989 -1.63844 -0.0264294)
(-0.000801827 -1.65777 -0.0416522)
(-0.0626119 0.0686513 0.209802)
(0.0113596 0.0799232 0.0997742)
(0.00123336 -0.0200285 0.102571)
(0.00473245 0.0826004 0.0417226)
(-0.0229771 0.0553879 0.0401652)
(-0.0396731 0.0698823 0.0644073)
(-0.0896008 0.0459403 0.0688445)
(-0.000339201 -0.0498981 0.297018)
(-0.00216748 -0.0458619 0.284545)
(-0.0001599 -0.0516333 0.29082)
(0.00543143 -0.037798 0.298456)
(0.00278591 -0.0372442 0.295205)
(-0.00268883 -0.0349435 0.286562)
(0.00526759 -0.0414655 0.298215)
(0.0118432 -0.115899 0.531237)
(0.00229278 -0.144993 0.495139)
(0.00037305 -0.136055 0.517668)
(-0.00463209 -0.12361 0.494238)
(-0.00810616 -0.104641 0.506219)
(0.00357649 -0.129877 0.521154)
(0.00954448 -0.111078 0.530402)
(-0.000318897 -0.113043 0.827519)
(0.0111565 -0.103974 0.833544)
(-0.00202314 -0.126004 0.840598)
(-0.00266094 -0.0499866 0.835314)
(-0.0116616 -0.0624279 0.816255)
(-0.00263003 -0.0605132 0.847892)
(-0.016908 -0.0616179 0.816772)
(0.00523289 0.120225 1.10313)
(-0.00671705 0.202951 1.13839)
(-0.00829337 0.148132 1.12422)
(-0.0117965 0.152238 1.20896)
(0.012002 0.235112 1.18328)
(0.00571069 0.237743 1.1798)
(-0.007204 0.171114 1.18464)
(-0.00563804 1.46069 0.224743)
(-0.0157392 1.43416 0.3297)
(-0.0265033 1.20826 0.410239)
(0.0549596 1.21393 0.494289)
(0.0962575 1.29228 0.461762)
(0.0483469 1.36813 0.358415)
(0.107178 1.45056 0.330806)
(0.00255718 2.16529 0.316137)
(-0.0123456 2.17215 0.255281)
(0.0423077 2.23285 0.48321)
(-0.0401669 1.97484 0.455176)
(-0.107468 1.67485 0.455181)
(-0.06832 2.04092 0.35148)
(-0.15712 1.81298 0.43308)
(-0.0708161 3.75635 0.996466)
(0.0601684 3.73101 1.16047)
(0.0134572 3.2764 0.410081)
(0.126541 2.80934 0.385372)
(0.0278985 3.00008 0.311586)
(0.108109 3.2734 0.734283)
(0.00824794 3.5232 0.702713)
(0.023876 0.202473 -2.72359)
(0.0160043 -0.0356693 -2.80888)
(0.0530106 -0.060564 -2.8335)
(0.0314795 -0.141457 -2.7779)
(-0.104173 -0.0511709 -2.68664)
(-0.0584775 -0.178995 -2.78522)
(0.0242375 -0.187106 -2.83354)
(-0.000994011 0.0127367 -3.02401)
(-0.0667324 -0.0401642 -2.92039)
(-0.00758453 -0.0762695 -2.79353)
(-0.0698767 -0.0854262 -2.61252)
(-0.0890724 -0.102812 -2.68949)