/*--------------------------------*- C++ -*----------------------------------*\
| =========                 |                                                 |
| \\      /  F ield         | OpenFOAM: The Open Source CFD Toolbox           |
|  \\    /   O peration     | Version:  v2012                                 |
|   \\  /    A nd           | Website:  www.openfoam.com                      |
|    \\/     M anipulation  |                                                 |
\*---------------------------------------------------------------------------*/
FoamFile
{
    version     2.0;
    format      ascii;
    class       volScalarField;
    location    "0.3";
    object      alpha.water;
}
// * * * * * * * * * * * * * * * * * * * * * * * * * * * * * * * * * * * * * //

dimensions      [0 0 0 0 0 0 0];


internalField   nonuniform List<scalar> 
24700
(
1
1
1
1
1
1
1
1
1
1
1
1
1
1
1
1
1
1
1
1
1
1
1
1
1
1
1
1
1
0.000736127
0.000582025
0.00282854
0.00216298
0.000773814
0.00375756
0.00190775
0.000127712
6.72037e-05
6.72037e-05
6.72037e-05
0.000148525
9.07667e-05
0.000326111
5.12167e-06
1.85578e-05
5.53777e-05
8.50397e-06
5.07828e-06
1.88315e-05
5.4521e-05
0.000251768
0.000179088
0.000251981
0.000243365
0.000213015
0.000251729
0.000251942
0.00099157
0.000947863
0.000854883
0.00331375
0.00354575
0.000946138
0.00208202
1.09516e-10
1.59527e-10
1.86453e-10
3.8199e-11
5.84994e-11
6.35177e-11
6.10889e-11
1.92892e-06
2.74161e-06
2.56761e-06
2.74161e-06
2.44624e-06
1.02107e-06
2.07213e-06
0.536959
0.0778462
0.96751
0.560416
0.0647019
0.728344
0.938495
4.24604e-07
1.94716e-07
6.99126e-08
1.39697e-07
1.47947e-07
5.64531e-08
4.12309e-08
1.7363e-11
2.83225e-11
2.42898e-11
5.60402e-11
1.46979e-11
4.11817e-11
1.60093e-11
2.96324e-05
2.95068e-05
4.18776e-05
0.000151999
0.000116116
6.29358e-05
0.0001091
0.00292859
0.00292831
0.00370581
0.00282506
0.00164274
0.00509369
0.00386943
0.00656411
0.00656411
0.00656411
0.00305541
0.00589116
0.00576836
0.00433817
0.00647941
0.00201336
0.00653114
0.000110596
0.000105066
0.000104675
0.000170283
0.000105705
0.000331058
0.000229032
0.000700071
0.00083917
0.000399401
0.000275116
0.000207612
6.29952e-07
1.70648e-07
9.16356e-07
1.81552e-07
1.21314e-07
1.84717e-07
3.96313e-07
1.75634e-10
1.76283e-10
4.32354e-10
1.76071e-10
1.35329e-10
1.71338e-10
2.8815e-10
3.4372e-05
1.18226e-05
4.88271e-06
4.8711e-06
5.49019e-06
1.29821e-05
3.59391e-05
2.60436e-05
2.36413e-05
2.36215e-05
2.36215e-05
2.36198e-05
2.36305e-05
2.95473e-05
0.000352017
0.000310893
0.000171359
0.00132866
0.000515758
0.000304021
0.000429134
0.021342
0.0177281
0.00958701
0.019265
0.0204813
0.0304014
0.0193695
0.0190339
0.0190339
0.0190339
0.0135714
0.0190339
0.0128489
0.0140721
0.0140512
0.00983157
0.00984748
0.00303454
0.00337835
0.0105426
0.0129907
1.4858e-05
9.64499e-06
1.48244e-05
8.22732e-06
1.32997e-05
5.04253e-06
1.07233e-05
8.72824e-06
7.78219e-06
7.7769e-06
1.71707e-05
4.64725e-05
3.00967e-05
1.4994e-05
0.903098
0.846836
0.975522
0.845455
0.92099
0.932004
0.930496
3.66994e-06
9.24448e-06
1.32673e-05
4.22692e-06
3.57338e-06
9.08125e-06
7.24913e-06
0.000326729
0.000324357
0.000492781
0.000449332
0.000322212
0.00069875
0.000582671
0.000109143
0.000227913
6.77617e-05
2.43742e-05
4.97445e-05
3.02635e-05
3.72561e-05
0.000676857
0.00247432
0.00114412
0.000790903
0.000323733
0.00130344
0.000901948
0.94975
0.949826
0.957913
0.949838
0.949773
0.97635
0.975996
0.92185
0.837965
0.922877
0.837964
0.83824
0.844814
0.849656
0.847961
0.706598
0.849656
0.849656
0.601667
0.136699
0.106902
0.00892246
0.0220956
0.00832276
0.0288486
0.0353629
0.00220844
0.00134743
0.0063483
0.00590918
0.00401343
0.00254651
0.00339174
0.000202626
0.000319576
0.000202823
0.0002416
0.000203967
0.000203997
0.000202537
0.000348986
0.000391635
0.000203646
0.000165984
0.000154652
0.000155203
0.000157322
0.000248265
0.000259043
0.00058235
0.000362435
0.000834749
0.000487875
0.000210917
0.000686773
0.000254285
0.000496234
0.000257392
4.28426e-05
9.50914e-05
0.000309005
2.26415e-05
3.42659e-05
3.42552e-05
3.21291e-05
3.08965e-05
3.08653e-05
3.08653e-05
0.00064879
0.000644513
0.000846936
0.00844378
0.00408373
0.0021589
0.00296199
8.96306e-06
1.63512e-05
1.53072e-05
1.00181e-05
6.95102e-06
2.23165e-05
8.80816e-06
1.996e-09
1.23345e-08
4.89489e-09
5.67134e-09
1.61699e-09
1.25753e-08
1.3054e-09
1.28062e-07
2.71541e-07
1.11038e-07
1.71812e-07
1.11189e-07
2.51472e-07
1.16121e-07
0.000691897
0.00136012
0.0017549
0.000691488
0.0011388
0.000923371
0.00141695
0.000262654
0.000211327
0.000211569
0.000294666
0.000654606
0.000307341
0.00044085
0.00023668
0.00021938
8.2556e-05
7.6272e-05
9.7336e-05
0.000151933
0.000164577
0.000170552
8.83475e-05
2.25008e-05
2.23262e-05
5.10772e-05
8.59027e-05
0.000296134
3.97589e-05
2.35135e-05
2.33021e-05
3.90988e-05
4.09224e-05
2.32457e-05
2.32457e-05
9.70801e-07
8.25339e-07
7.36348e-07
5.10726e-07
2.19214e-06
1.39471e-06
6.98215e-07
4.10729e-08
9.53816e-08
1.35506e-07
3.55865e-08
6.40292e-08
3.13089e-08
1.0944e-07
5.03374e-12
1.57468e-11
6.79498e-12
7.3276e-12
1.50771e-11
1.775e-11
8.46909e-12
3.78999e-11
4.44917e-11
2.98499e-11
2.13648e-11
7.00831e-11
5.62263e-11
2.47677e-11
3.10108e-11
5.199e-11
4.67968e-11
1.58595e-11
8.54579e-12
1.76259e-11
1.87497e-11
0.984227
0.917801
0.761794
0.976142
0.984348
0.975098
0.895382
0.000589182
0.000695316
0.000500645
0.000758202
0.000502837
0.00111604
0.00101934
0.000739879
0.000739879
0.000739951
0.000686224
0.000270902
0.00073998
0.000739879
0.902432
0.674093
0.742218
0.918546
0.894636
0.921081
0.962616
0.0789728
0.300771
0.311318
0.0915468
0.287243
0.177423
0.0912931
0.181676
0.185284
0.0909832
0.142245
0.0911698
0.0800375
0.169564
0.0606374
0.0967441
0.60587
0.601761
0.0607328
0.0813609
0.0741257
0.060556
0.128259
0.191412
0.510735
0.0392846
0.505389
0.0774971
0.224704
0.0384176
0.195854
6.11666e-05
0.000195753
9.2225e-05
6.11393e-05
0.0001149
0.000144749
7.60068e-05
9.65692e-07
9.65692e-07
9.65665e-07
1.09796e-06
1.67955e-06
1.37851e-06
9.65692e-07
2.66908e-06
4.17863e-06
2.66491e-06
5.86323e-06
1.72728e-05
1.11629e-05
3.34711e-06
8.9171e-08
1.44059e-07
8.89943e-08
3.87429e-07
1.33523e-07
1.70278e-07
1.60201e-07
5.52594e-05
5.91059e-06
5.81498e-05
0.000123262
0.00117566
4.13229e-05
0.000414737
2.01488e-07
2.01633e-07
4.96643e-07
2.27482e-07
2.15639e-07
1.23881e-07
5.25945e-07
0.000340258
0.000658977
0.000325933
0.000325933
0.000326378
0.000421177
0.000325933
0.0517458
0.0211064
0.0335725
0.142191
0.0760604
0.0492586
0.0694261
0.000219674
0.000222312
0.000222827
0.000430775
0.000600987
0.000465366
0.00036706
5.67861e-16
8.37344e-16
8.43371e-16
2.79102e-15
1.42154e-15
1.20936e-15
8.1748e-16
9.59646e-15
2.73785e-15
7.24808e-15
8.53742e-15
7.97382e-14
4.46502e-15
4.64592e-14
4.05863e-08
4.03776e-08
4.04359e-08
2.91057e-08
4.07553e-08
4.51726e-08
1.73479e-08
8.58484e-05
0.000113618
4.39592e-05
0.000165361
0.000374373
0.000141047
7.86333e-05
0.00655381
0.0183606
0.00651904
0.0156282
0.0102286
0.0361503
0.00492207
0.0305111
0.0266874
0.0280589
0.0402131
0.11357
0.0370917
0.0302899
0.951677
0.934731
0.93473
0.974582
0.954729
0.975717
0.951789
0.948631
0.966216
0.948726
0.949281
0.969911
0.972502
0.948577
0.00220231
0.00100379
0.00146095
0.00221315
0.00130119
0.000596382
0.000919824
0.0331774
0.0267338
0.0195076
0.0179353
0.0184752
0.0188569
0.0185984
0.000474765
0.000281117
0.000278177
0.000474749
0.00027831
0.000278037
0.000278083
0.0018341
0.00331956
0.00186128
0.0173127
0.0105389
0.00665364
0.00319169
0.929889
0.95534
0.95534
0.906652
0.847442
0.950882
0.94802
4.6634e-05
4.6634e-05
4.6634e-05
7.85113e-05
7.52174e-05
7.46429e-05
4.66945e-05
0.00572374
0.00582264
0.00564713
0.00736612
0.00725834
0.0072692
0.0047081
9.48476e-05
0.000128347
9.38185e-05
9.38185e-05
9.38185e-05
0.000206326
0.00013746
0.0938768
0.0943748
0.0944169
0.0938768
0.0924082
0.159143
0.10555
0.162176
0.162176
0.162176
0.161597
0.161899
0.0644211
0.064242
0.0511461
0.155181
0.155181
0.155181
0.148279
0.0117153
0.147166
0.0106375
0.0322423
0.155181
0.0151749
0.014858
0.015461
0.0281295
0.0217553
3.59117e-10
3.36943e-10
4.05158e-09
2.92931e-10
5.1668e-11
1.51206e-10
1.57434e-09
2.09425e-06
2.73394e-06
2.96217e-06
3.46314e-06
1.79709e-06
3.4635e-06
2.96542e-06
1.62736e-07
1.06261e-07
3.10057e-08
1.35409e-07
1.6294e-07
9.31292e-08
3.99173e-08
1.97964e-08
2.37316e-08
2.36669e-08
9.03507e-09
1.46759e-08
2.80516e-08
1.42081e-08
0.000497521
0.000351839
0.00136845
0.000352637
0.000352801
0.00119009
0.000627297
0.000414356
0.000414356
0.00041436
0.00041436
0.000544785
0.00041436
0.00041436
0.000765478
0.000892438
0.00112306
0.00052544
0.000953158
0.00113221
0.00104431
0.000612589
0.000283963
0.000285189
0.000349733
0.000329394
0.000711839
0.000399835
0.0382176
0.0471797
0.0384673
0.0551142
0.11142
0.221457
0.0593593
0.289593
0.289512
0.235265
0.28733
0.28957
0.93269
0.935648
0.931711
0.948112
0.936303
0.974996
0.97363
0.0258442
0.0257232
0.0258445
0.0147063
0.0258438
0.0121896
0.0258443
0.00141156
0.0013596
0.00141141
0.0012673
0.00141123
0.000607594
0.00141133
0.0133985
0.0129174
0.02133
0.0737413
0.24368
0.0274629
0.0974449
2.5865e-05
1.60931e-05
2.58633e-05
1.64899e-05
2.24602e-05
1.08663e-05
1.9206e-05
0.00206725
0.00205881
0.002064
0.00437885
0.00811042
0.00218826
0.00437502
0.00267897
0.00413793
0.00715892
0.00517188
0.00264075
0.00213257
0.00424413
0.000235053
0.000108646
0.000171527
0.000581187
0.000487234
0.000261226
0.000349118
0.00180307
0.00282382
0.00498635
0.00185247
0.00174601
0.00174429
0.00156803
0.196455
0.196568
0.196455
0.157027
0.0422804
0.132001
0.132574
0.196729
0.0456957
0.125494
0.197223
0.0778544
0.00159849
0.00173314
0.0017489
0.00162909
0.00318784
0.00135036
0.00176241
4.54705e-06
1.41341e-05
1.50486e-05
4.53872e-06
5.50524e-06
8.83987e-06
1.29227e-05
1.22063e-09
2.73624e-09
3.32555e-09
1.34399e-09
1.21806e-09
2.05816e-09
2.48006e-09
3.75127e-10
2.52957e-10
1.75184e-09
6.01751e-10
3.38494e-09
4.29904e-09
1.04211e-08
2.91235e-08
9.23147e-09
3.06174e-08
1.1543e-08
9.22775e-09
2.61988e-08
3.04156e-08
7.37984e-08
6.248e-08
0.982849
0.993446
0.965846
0.990663
0.964262
0.9935
0.974931
3.20702e-06
3.23312e-06
3.2331e-06
1.57177e-06
2.5098e-06
1.03966e-06
1.50705e-06
3.01819e-09
3.01283e-09
2.89718e-09
1.60181e-09
2.69825e-09
3.00869e-09
1.85561e-09
4.74515e-06
8.21366e-07
1.79537e-06
7.77463e-07
5.91634e-07
1.27225e-06
1.81868e-06
0.000392665
0.000846351
0.000381822
0.000381861
0.000783855
0.000798966
0.000433861
0.000827913
0.000914921
0.000464232
0.000361764
0.000667026
0.000327245
0.000502302
0.00102532
0.00066239
0.000569004
0.00106154
0.000578982
0.00156436
0.000712236
0.000342184
0.000356648
0.000513418
0.000462788
0.000516545
0.000412155
0.000182426
0.0585466
0.0369556
0.0273825
0.0274234
0.0288862
0.0294061
0.0723173
0.0082577
0.0475321
0.15841
0.0139125
0.0081721
0.0175463
0.0609213
0.81954
0.81954
0.81954
0.81954
0.695701
0.819522
0.81844
0.8201
0.820084
0.820098
0.8201
0.820099
0.816009
0.818337
0.809665
0.819522
0.745213
0.000167112
0.000427293
0.0010177
0.000178392
8.37551e-05
0.000175498
0.00050335
0.938737
0.938722
0.938722
0.938707
0.88931
0.938707
0.938718
0.908145
0.935
0.936578
0.528532
0.0314557
0.142838
0.516817
0.00210004
0.00356449
0.00359637
0.00127624
0.00217769
0.00242881
0.00327309
0.00197978
0.00197978
0.00153262
0.000883966
0.00197978
0.00118573
0.000433665
0.199558
0.183339
0.185029
0.226548
0.216258
0.227506
0.227208
0.182527
0.198103
0.181065
3.38651e-07
5.26446e-07
3.90143e-07
2.37327e-06
1.56814e-06
1.43532e-06
9.9673e-07
3.08878e-13
9.58293e-12
1.64411e-11
2.92798e-17
2.654e-14
9.13214e-18
1.59429e-14
7.07277e-12
1.33035e-11
2.28365e-53
3.61098e-18
2.87662e-17
1.49814e-15
8.66241e-16
4.4424e-13
1.50307e-12
5.24961e-13
1.66039e-11
1.25223e-29
6.27951e-13
6.21022e-12
1.20049e-13
1.46879e-08
3.86973e-09
8.81578e-12
1.18552e-10
2.73703e-09
4.79661e-09
4.26035e-12
3.27786e-09
6.43964e-10
5.74433e-10
5.33924e-10
6.38905e-10
6.98057e-10
6.71523e-10
8.27814e-10
0.00190907
0.0037908
0.000961797
0.000946604
0.000980042
0.00164364
0.000965751
0.00277796
0.00658327
0.00130488
0.00128839
0.00212661
0.00284389
0.00211016
0.0151096
0.0235259
0.0132203
0.0177072
0.0129837
0.0146648
0.0127948
0.0422388
0.078974
0.0419042
0.0462611
0.0706844
0.07896
0.0421399
0.0136015
0.0296581
0.0296463
0.0187523
0.0240298
0.0251827
0.0382202
0.000320733
0.000319097
0.000320733
0.000228236
0.000277851
0.000395772
0.000195392
0.000211783
0.00026213
0.000279685
0.000211984
0.000211642
0.000226726
0.000211637
0.8201
0.746538
0.8201
0.805616
0.784846
0.805686
0.784858
0.149443
0.389622
0.805616
0.760843
0.805686
0.805686
0.74945
0.763487
0.000163666
0.000163666
0.000154336
0.000163666
0.000163666
0.000163667
0.000163667
0.000152259
0.0001332
0.000152185
0.000152323
9.25306e-05
4.83488e-05
9.68044e-05
0.000226625
0.000226625
0.000226623
8.10132e-05
0.000156378
0.000142238
0.000226623
0.00484897
0.00149814
0.00170506
0.00259771
0.00259713
0.00149465
0.00418954
0.00469063
0.00470882
0.00404465
0.00471099
0.00469259
0.00472717
0.00391199
0.00109551
0.00109821
0.00071421
0.000963616
0.00071421
0.00109858
0.00100342
0.000567376
0.00120081
0.00118668
0.00120081
0.000981483
0.00121707
0.000741805
0.00451879
0.00260102
0.00591383
0.0020071
0.00575203
0.00158821
0.00875233
0.00678363
0.00467483
0.00684949
0.00295339
0.00303616
0.00196426
0.00502827
0.000606952
0.000605428
0.000606952
0.00116531
0.00117273
0.000535139
0.00104387
0.00184777
0.00177662
0.000685474
0.000761554
0.00176981
0.000943968
0.000481113
0.00175033
0.0011354
0.00113041
0.00112821
0.00121714
0.00134668
0.00268284
2.56971e-07
3.47301e-07
2.80073e-07
2.5329e-07
5.51082e-07
1.4842e-07
2.06033e-07
0.000318502
0.000966292
0.00133996
0.000255789
0.000135744
0.000283901
0.000546408
5.39817e-27
2.80479e-12
9.02424e-10
1.69729e-12
2.18425e-27
2.83225e-10
3.54954e-11
4.04192e-13
2.99928e-39
2.1516e-13
2.64326e-10
3.63516e-10
2.15479e-10
6.44013e-10
1.0213e-09
3.46255e-10
3.08302e-10
0.00191108
0.00324007
0.00147172
0.00310984
0.00327013
0.0032913
0.00148471
0.0405704
0.0164145
0.0421415
0.0421415
0.0421415
0.0181646
0.0269825
0.0811205
0.055033
0.055033
0.055033
0.0823317
0.0554707
0.0957253
0.000787975
0.000533218
0.00086542
0.00151473
0.000380042
0.000235848
0.00185125
0.000162506
0.000162506
0.000162506
0.00016248
0.000162506
0.000162506
0.000118159
0.000162481
0.00016249
0.000152136
0.000101079
7.03793e-05
0.000155725
4.96912e-05
0.00029744
0.00029744
0.00029744
0.000294061
0.00029744
0.00029744
0.000168745
0.00252848
0.00504852
0.003518
0.00176496
0.0048104
0.00102215
0.00328557
0.000943077
0.000939759
0.000905646
0.00215702
0.00101936
0.000556918
0.00091526
0.000507507
0.00177813
2.63556e-05
4.30122e-05
2.62658e-05
0.000981762
0.000172981
7.66687e-06
4.03575e-06
4.07192e-06
9.99549e-06
1.68389e-05
4.08382e-06
3.84113e-06
5.05233e-13
2.10265e-13
8.94467e-15
2.8023e-10
1.76896e-10
2.5666e-10
1.58116e-10
9.81131e-09
7.11154e-09
1.14188e-08
9.62253e-09
1.1068e-08
5.83311e-09
3.70119e-09
0.00147704
0.00182811
0.00152483
0.000867181
0.00116577
0.00069096
0.000696964
0.0459626
0.0672569
0.066247
0.0544149
0.0123792
0.0350232
0.0672569
0.000894209
0.000528309
0.000836321
0.000293114
0.000796361
0.000490634
0.000214164
4.36021e-05
4.36021e-05
4.36072e-05
4.36117e-05
4.40292e-05
4.36025e-05
4.36072e-05
6.39524e-05
0.00014757
4.88048e-05
5.30448e-05
4.84123e-05
4.91664e-05
4.82606e-05
0.000241297
0.000241094
0.00018632
0.000241297
0.000241145
0.00024124
0.00011185
0.000300922
0.000301117
0.000300922
0.000300834
0.000300834
0.000229859
0.000299737
0.00030688
0.00024322
0.00030688
0.00014932
0.000266991
0.000140191
0.000271496
0.000253537
0.000253784
0.000221545
0.000253494
0.000253494
0.000229988
0.000138765
0.000465438
4.44661e-05
0.000184143
0.000662396
0.000179118
6.0304e-05
0.00031003
0.847325
0.611012
0.61614
0.847351
0.678821
0.847412
0.847418
0.847412
0.847443
0.805742
0.847388
0.846987
0.810324
0.788995
0.395091
0.573153
0.847062
0.847412
0.00198692
0.0019716
0.00288786
0.0019638
0.0042643
0.00282712
0.00164715
0.000182109
0.000114123
8.63338e-05
0.000152337
0.000182109
0.000168126
0.00013977
0.000340016
0.000297086
0.000340016
0.000248052
0.000248672
0.000178714
0.000339977
0.000350685
0.000156173
0.000159925
0.000271053
0.000252247
5.70551e-05
0.000123264
0.000107377
0.000117802
6.92224e-05
0.000138044
7.17063e-05
0.000308025
5.9087e-05
0.49263
0.454586
0.486319
0.237576
0.444098
0.409369
0.150359
0.523092
0.523039
0.260097
0.000359525
0.000451389
0.000359043
0.000359241
0.000360209
0.000476083
0.00035908
0.98208
0.982232
0.975196
0.665452
0.900747
0.961949
0.859837
0.00194271
0.00442899
0.000598109
0.00104597
0.000594641
0.00536969
0.00268831
4.32754e-06
9.79037e-06
2.90483e-05
7.7209e-06
4.30371e-06
1.19295e-05
3.64375e-05
1.78855e-09
2.08687e-09
1.96876e-09
3.14658e-09
1.44307e-09
2.94274e-09
1.67852e-09
4.75338e-10
5.35937e-10
4.32938e-10
6.26766e-10
7.48155e-10
7.55331e-10
6.58577e-10
1.55989e-10
1.75085e-10
6.33778e-11
5.04298e-10
9.82207e-11
1.40178e-16
2.66467e-10
1.67255e-12
2.73581e-12
5.60794e-12
9.1909e-13
1.33155e-11
1.10966e-17
2.53489e-14
2.56237e-17
4.53278e-14
5.97009e-34
4.91503e-19
1.78543e-18
6.69707e-15
1.44385e-14
1.09614e-10
2.66738e-09
1.56907e-08
2.78774e-09
2.91367e-12
6.2645e-11
4.93303e-09
6.3119e-10
0.00698413
0.00645929
0.00626961
0.00701137
0.00700668
0.00343327
0.00700273
0.00364821
0.00152949
0.00549861
0.00549861
0.00549838
0.00549838
0.00549854
0.00985988
0.00427263
0.0101124
0.00482705
0.00446757
0.00528977
0.0107963
0.00713358
0.00482705
0.067201
0.0273667
0.0676452
0.005025
0.00509251
0.00456487
0.00593805
0.00594119
0.00330333
0.00393962
0.000741528
0.000478116
0.00047489
0.0010548
0.00106219
0.00104687
0.000944059
1.06952e-06
1.4491e-06
1.47471e-06
3.65969e-06
1.77932e-06
2.98275e-06
9.65748e-07
0.00647191
0.00121137
0.00241318
0.00654454
0.00320343
0.00175284
0.00357617
0.820591
0.820591
0.820591
0.806358
0.820591
0.802226
0.000900824
0.000900751
0.000900688
0.00106536
0.000920186
0.00117798
0.00117827
0.0102202
0.0167695
0.0175762
0.0128179
0.00760489
0.0116847
0.00626522
0.523195
0.523415
0.31685
0.518166
0.499485
0.0599835
0.517194
0.523415
0.26831
0.523415
0.000452826
0.000509232
0.000840373
0.000195142
0.000304522
0.000328215
0.000687257
1.39965e-06
3.12423e-06
3.11912e-06
1.60744e-06
3.95599e-07
1.68031e-06
4.87019e-07
0.000271556
0.000274139
0.00027186
0.000272274
0.000475072
0.000298266
0.000608317
0.946648
0.910676
0.828502
0.946423
0.947156
0.896379
0.945674
2.39722e-08
1.30827e-08
2.39687e-08
1.81657e-08
9.06917e-09
4.87673e-09
2.73579e-08
2.7609e-08
4.08977e-08
2.75741e-08
6.70192e-08
1.53163e-07
2.0333e-07
6.10433e-08
3.04625e-09
2.29399e-09
2.21941e-09
4.03924e-09
1.86438e-09
3.2197e-09
2.19534e-09
9.66812e-10
1.13798e-09
6.21079e-10
8.70799e-10
9.84804e-10
1.08409e-09
6.99773e-10
1.55603e-09
8.45227e-10
1.98857e-09
5.30884e-10
3.78408e-09
4.58725e-10
2.48748e-09
9.777e-10
8.44375e-12
1.76286e-08
1.84371e-09
1.16703e-10
3.85672e-11
6.41446e-09
0.00462461
0.00498513
0.00503531
0.00504906
0.00504831
0.00504605
0.00504911
0.00484378
0.00484363
0.00253622
0.00376415
0.00212854
0.00381447
0.00147802
0.017115
0.0201357
0.0201357
0.0158351
0.0201357
0.0199107
0.0199926
0.0199926
0.00845896
0.019793
0.00568134
0.0141038
0.00997188
0.0196668
0.0130018
0.013874
0.024103
0.0129058
0.00626204
0.0243987
0.0184643
0.0216128
0.00534473
0.00729983
0.00565059
0.0110309
0.00596149
0.00577114
0.00643348
0.0106916
0.00479763
0.000598437
0.00265134
0.00129784
0.000171201
0.000405757
0.00016733
0.000219852
0.000885006
0.000387171
0.000625921
0.000841632
0.000836828
0.000475162
0.000476126
0.000834712
0.000834766
0.000714757
0.000834766
0.000834738
0.000801618
0.00041732
0.000458813
0.000295452
0.000459021
0.000246178
0.000264597
0.000235962
0.000242843
0.000852244
0.000852244
0.000852244
0.000852244
0.00063847
0.000743198
0.000348195
0.00170607
0.00278192
0.00168878
0.0101518
0.0161158
0.00734962
0.0034083
0.798928
0.798751
0.799854
0.031491
0.452401
0.120144
0.552307
0.829221
0.883652
0.883652
0.879375
0.883652
0.773366
0.883344
0.873892
0.87359
0.873587
0.873825
0.873875
0.218881
0.738864
0.873825
0.873827
0.771803
0.849584
0.852465
0.732995
0.727937
0.163564
0.872917
0.144579
0.849808
0.873823
0.0335549
0.0241151
0.0241151
0.0241151
0.0281216
0.0274163
0.0242095
7.81777e-05
4.30908e-05
5.904e-05
5.17777e-05
0.000125739
4.81105e-05
2.80622e-05
0.0310123
0.0310123
0.0219302
0.0245227
0.0310123
0.0178937
0.0130133
0.962417
0.962417
0.962418
0.962415
0.946462
0.962419
0.962417
0.01444
0.0397512
0.0425153
0.0425364
0.0265734
0.044654
0.0157683
0.0082637
0.0166238
0.0164039
0.00788698
0.011931
0.00704465
0.00660955
7.92951e-05
7.9295e-05
7.92944e-05
7.92946e-05
7.92944e-05
7.92944e-05
7.92946e-05
4.87705e-06
1.67242e-05
4.81195e-06
5.00559e-06
9.2246e-06
9.38464e-06
9.76321e-06
0.000361819
0.000199547
0.000200214
0.000399714
0.000400487
0.000172401
0.000400487
0.0264365
0.0176004
0.0177487
0.153832
0.279103
0.0468804
0.181057
9.17193e-09
8.56036e-09
8.54273e-09
7.93851e-09
7.9878e-09
9.15925e-09
7.91219e-09
9.7159e-08
2.38912e-08
6.82585e-09
1.94767e-07
8.46579e-08
2.09524e-08
2.09691e-08
0.000386602
0.000113067
4.55547e-05
3.35576e-05
4.36399e-05
6.20727e-05
0.00014332
0.00526419
0.00578244
0.00526419
0.0199107
0.0118996
0.00139396
0.000941641
0.000935194
0.000956322
0.000939774
0.000693962
0.00140959
0.000977409
0.00101124
0.00101113
0.000332617
0.000488121
0.000326011
0.000468988
4.59281e-05
3.811e-05
3.80964e-05
3.8146e-05
5.62959e-05
5.85003e-05
3.80966e-05
9.51724e-05
0.000168564
0.000168553
0.000134873
4.80904e-05
0.000122689
5.1613e-05
0.873892
0.873575
0.749733
0.0567256
0.0567187
0.0567187
0.16194
0.0843658
0.0567187
0.0742158
0.0564561
0.0564515
0.0564515
0.0564561
0.0564561
0.0564772
0.0564772
0.0567187
0.15957
0.0567256
0.0936443
0.102522
0.0564561
0.886154
0.944786
0.873387
0.914001
0.873387
0.944735
0.947024
0.915656
0.87366
0.943665
0.958599
0.94427
0.986839
0.986839
0.986835
0.986839
0.881068
0.956996
0.908989
0.881068
0.98225
0.881518
0.949644
0.813218
0.812838
0.760099
0.48673
0.80431
0.564284
0.486633
0.662331
0.486778
0.882085
0.684984
0.565298
0.727806
0.494287
0.487796
0.779944
0.779946
0.672002
0.568373
0.48674
0.489422
0.715272
0.779943
0.67406
0.0119222
0.0063412
0.00948068
0.00137723
0.00187687
0.00234793
0.00643575
0.00426063
0.00397259
0.0026812
0.00250303
0.00389883
0.00496714
0.00226159
0.00217398
0.000544731
0.00227198
0.00198797
0.00149945
0.000544574
0.00137849
0.000168001
9.17023e-05
0.000156645
4.34598e-05
6.65612e-05
4.49112e-05
9.31556e-05
5.05597e-05
5.77108e-05
0.000109992
8.71706e-05
0.000110059
4.56353e-05
5.04925e-05
5.89431e-05
6.63228e-05
8.30829e-05
8.21196e-05
3.7375e-05
5.16497e-05
3.72294e-05
0.000398265
0.000398278
0.000346013
0.000398222
0.000398237
0.000398335
0.000398375
1.7341e-07
5.30187e-07
1.44422e-07
1.78005e-07
1.23505e-07
4.40412e-07
1.32109e-07
6.7269e-05
6.7269e-05
0.000160753
9.00301e-05
0.000124583
8.17293e-05
0.000185396
0.00163338
0.00530146
0.0018835
0.011474
0.00476267
0.0124761
0.00479667
0.00820671
0.00738802
0.0124845
0.0124958
0.0122594
0.00786239
0.0125956
0.0125956
0.0125982
0.0125956
0.00442963
0.00889484
0.00548536
0.000258582
7.48904e-05
0.000471489
0.000139253
7.37574e-05
0.000157687
0.000330525
6.09167e-06
1.6485e-06
2.36989e-06
1.6485e-06
1.64898e-06
2.34909e-06
1.6485e-06
0.946996
0.955466
0.880126
0.955466
0.947588
0.954988
0.955434
5.79159e-05
5.30701e-05
7.57216e-05
7.32539e-05
5.84464e-05
7.57346e-05
7.57346e-05
3.21737e-05
3.21594e-05
3.21737e-05
3.21808e-05
3.2209e-05
3.2175e-05
3.21808e-05
5.9652e-05
5.0034e-05
3.1907e-05
3.19032e-05
3.19188e-05
4.59352e-05
3.18983e-05
0.827201
0.827184
0.827192
0.827201
0.826825
0.827071
0.827062
0.825529
0.825529
0.825529
0.825495
0.82552
0.825529
0.811866
0.778373
0.827201
0.615393
0.00309647
0.00208108
0.00210073
0.00992397
0.0218329
0.00566758
0.0154989
0.00654301
0.00132748
0.00458311
0.00208175
0.00462627
0.00106394
0.0106101
0.423803
0.858501
0.687049
0.298201
0.246521
0.858231
0.486182
0.174382
0.132573
0.161462
0.912907
0.886504
0.715627
0.873559
0.956084
0.95622
0.858847
0.715626
0.924924
0.915618
0.916088
0.881312
0.960773
0.984352
0.0569554
0.0188076
0.0188082
0.101312
0.0193197
0.0188082
0.0375398
0.781356
0.781356
0.781356
0.781335
0.781356
0.598986
0.711788
0.642223
0.825469
0.825469
0.825469
0.637123
0.515602
0.825469
0.244917
0.0784468
0.825499
0.221406
0.82552
0.80034
0.825468
0.00461444
0.0024847
0.000745836
0.00212401
0.00465169
0.0020523
0.000698654
0.000460948
0.000268361
0.000460809
0.000460912
0.000454739
0.000268306
0.000460923
0.000258518
0.000145162
0.000182895
0.000206826
0.000145108
0.000258499
0.000258527
6.6489e-05
6.64663e-05
0.000115855
5.08388e-05
5.0963e-05
6.73695e-05
7.01916e-05
2.53777e-05
2.54421e-05
2.53777e-05
3.71681e-05
2.5409e-05
6.13251e-05
2.67447e-05
8.2487e-05
1.15043e-05
3.3612e-05
1.78805e-05
1.14052e-05
5.27694e-05
2.49125e-05
4.34783e-05
4.22674e-05
8.06411e-05
0.000304591
0.000129825
0.000103978
0.000136399
0.000478817
0.000479748
0.000511471
0.000955351
0.000584331
0.000483438
0.000797658
0.000944029
0.00065703
0.00065703
0.00065703
0.000758764
0.000715316
0.00141868
0.00191547
0.00191547
0.00193494
0.00243553
0.00329174
0.00280814
0.00329473
0.000421847
0.000421266
0.000722822
0.000432028
0.000504319
0.000535017
0.00128388
0.000742165
0.000102712
0.000514686
0.000748124
0.000417577
0.000111072
0.000420059
0.000501928
0.000455593
0.000511266
0.0100663
0.0100652
0.0100688
0.00927687
0.0101058
0.0100366
0.0100663
0.00826815
0.0100292
0.00772241
0.00578973
0.00586891
0.0101562
0.0078686
0.00445658
0.00537911
0.00406638
0.00825539
0.00999176
0.010058
0.00841455
0.0100089
1
1
1
1
1
1
1
1
1
3.35512e-06
4.9477e-07
8.2236e-07
0.0187203
0.00647935
1.89869e-05
6.23535e-05
0.00113983
1.94724e-05
4.23231e-188
8.63669e-08
0.000166316
1
1
1
1
1
1
1
1
1
1
1
1
1
1
1
1
1
1
1
1
1
1
1
1
1
1
1
1
1
1
1
1
1
1
1
1
1
1
1
1
1
0.579403
0.2612
0.971868
0.993818
0.993316
0.936147
0.955854
0.00307897
0.00202567
0.00223055
0.00166478
0.00152178
0.00186778
0.00207984
0.00204994
0.00126612
0.987357
0.987411
0.987406
0.985043
0.956036
0.986719
0.991571
0.991573
0.968851
0.956183
0.88314
0.992467
0.989387
0.987426
0.990548
0.00203805
0.00524855
0.00233732
0.000805492
0.000797943
0.00124471
4.13923e-06
4.27435e-06
5.91422e-06
0.000583182
0.000916543
0.000581906
0.000372127
0.000400198
0.000486507
0.000412796
5.38133e-06
1.26704e-05
1.06217e-05
1.39232e-05
3.81961e-06
1.42763e-06
0.00120037
0.000473051
0.000827438
0.000785279
0.00145631
0.000904836
8.00281e-06
5.41594e-06
1.31815e-05
6.58672e-06
0.000631508
0.000736043
0.000529164
5.05702e-06
5.32408e-05
3.82541e-06
2.18636e-05
4.80689e-05
3.62025e-05
4.79879e-05
5.53975e-05
0.000978963
0.00112869
0.00058655
0.00110804
7.5731e-05
7.57346e-05
6.55001e-05
5.06473e-05
3.43843e-05
3.44238e-05
3.09117e-05
3.08872e-05
4.93113e-05
4.543e-05
0.000931134
0.00144457
0.000585171
0.000906663
3.62064e-05
3.62025e-05
0.000433798
0.000889557
7.2074e-05
6.39771e-05
0.000156055
0.000269622
0.000104276
0.00014367
4.07401e-05
3.78404e-05
6.56864e-05
0.000130219
9.01129e-05
4.15749e-05
0.000735785
0.000371708
0.00100244
0.00111169
0.000371384
0.00111604
0.00111576
0.000693103
1.50422e-08
1.0582e-08
9.35071e-09
5.09988e-09
0.0665921
0.0665004
0.0666306
0.0664928
3.55984e-09
4.5034e-09
1.3927e-08
0.000483977
0.000223926
0.000754399
0.000377198
0.00893373
0.0161918
0.0146278
0.0386723
8.28007e-05
8.59606e-05
9.50919e-05
0.000185723
0.000750367
0.00158796
7.6283e-05
0.0320686
0.0262867
0.00277111
0.00165275
0.00199059
0.00105016
0.866222
0.416812
0.557259
0.866504
0.000631049
0.00155385
0.000423935
3.58147e-05
0.000129128
2.81632e-05
0.935801
0.935801
0.785694
0.758058
0.01257
0.0125828
0.0108109
0.00949778
7.71414e-05
0.000142065
9.93887e-05
0.000156286
0.0346526
0.0346752
0.0415479
0.0878855
6.80519e-08
2.2635e-07
6.7619e-08
3.25548e-07
1.04737e-06
6.29018e-07
0.00055876
0.000467311
0.000611027
0.000607584
3.65046e-05
6.35223e-05
4.58689e-05
0.000138816
0.000284425
0.000308896
0.000181892
0.000308847
0.0708268
0.0706205
0.999978
0.999999
3.86103e-10
9.79063e-10
1.07367e-10
2.64805e-09
0.00011852
0.000170144
0.000174669
0.000156549
2.38601e-05
5.51611e-05
2.38729e-05
2.83128e-05
1.71178e-08
6.98424e-08
1.57584e-14
1.17829e-14
1.74163e-14
5.34753e-15
0.00798647
0.00256305
0.00286419
0.00136778
1.9146e-08
2.06263e-11
0.000230243
0.000130992
3.80964e-05
3.80964e-05
0.00934409
0.00947356
0.0556897
0.0822012
0.990549
0.979943
0.968577
0.0570332
0.100738
0.170227
0.626652
0.133325
0.131781
0.121676
0.466335
0.986846
0.985627
0.98683
0.675479
0.871716
0.250184
0.0495382
0.733392
0.453737
1.00059e-06
2.96598e-07
0.0705165
0.0235002
0.0217111
0.0340369
0.00897006
0.0116861
0.000272315
0.000365721
0.000331033
7.38553e-11
1.62391e-11
3.37612e-10
0.000606156
0.0004897
8.1102e-05
5.17643e-05
4.78121e-05
5.17449e-05
7.19471e-05
7.20789e-05
0.000139399
0.000139488
0.00329469
0.00696687
0.00265926
0.00994162
3.03933e-06
1.73168e-06
4.27831e-06
5.08089e-06
4.36072e-05
4.3672e-05
0.58714
0.253194
6.99398e-05
4.34322e-05
0.962415
0.943348
7.8957e-09
7.85668e-09
0.955466
0.91289
0.000227639
0.000103383
0.000227681
0.000227413
0.878763
0.95534
0.00252358
0.00343078
0.76482
0.961015
6.70489e-05
3.60183e-05
9.82103e-05
2.90563e-05
0.00602618
0.0168574
0.00912456
0.0185898
8.16933e-05
3.80966e-05
2.25212e-09
2.61233e-09
1.22791e-09
9.74349e-10
2.84494e-09
1.78307e-09
1
1
1
1
0.00266023
0.00212794
0.00217664
0.000462009
0.259708
0.0519608
0.549659
0.263448
5.7734e-11
1.29146e-10
1.87834e-10
2.31643e-10
0.0130519
0.0238995
9.37893e-05
0.000187647
0.000353075
0.00035412
0.000617255
0.000616974
0.011658
0.0189624
0.00176029
0.0022735
0.000128565
0.000211073
0.000811591
0.000825674
0.000322123
0.000585352
0.0101219
0.00424301
2.52594e-07
6.31732e-07
0.00166736
0.00227892
1
0.777012
0.683647
0.92436
0.361092
0.00638167
0.0105462
0.00569743
0.0209652
0.00325213
0.00183949
1.4858e-05
8.01357e-06
8.71526e-06
1.83347e-06
3.37102e-05
4.25912e-05
5.28102e-05
3.26066e-05
0.000158024
7.80083e-05
0.777458
0.554319
0.297769
0.0827728