/*--------------------------------*- C++ -*----------------------------------*\
| =========                 |                                                 |
| \\      /  F ield         | OpenFOAM: The Open Source CFD Toolbox           |
|  \\    /   O peration     | Version:  v2012                                 |
|   \\  /    A nd           | Website:  www.openfoam.com                      |
|    \\/     M anipulation  |                                                 |
\*---------------------------------------------------------------------------*/
FoamFile
{
    version     2.0;
    format      ascii;
    class       volScalarField;
    location    "0.3";
    object      p;
}
// * * * * * * * * * * * * * * * * * * * * * * * * * * * * * * * * * * * * * //

dimensions      [1 -1 -2 0 0 0 0];


internalField   nonuniform List<scalar> 
24700
(
-405.456
-444.744
-354.772
-419.531
-437.686
-316.473
-367.549
-424.876
-457.599
-468.977
-432.541
-459.488
-450.252
-387.886
-414.507
-439.223
-422.96
-229.699
-259.824
-270.68
-208.348
-194.415
-264.567
-247.75
-177.929
-224.164
-214.981
-214.567
-208.518
-11.4926
-14.9513
-14.1727
-8.5923
-7.97019
-7.60463
-7.5179
-0.788716
-1.04398
-0.911524
-1.00976
-0.717371
-1.09757
-0.802883
-1.86111
-1.7869
-1.81259
-1.94147
-1.88591
-1.83625
-1.8773
0.413565
0.370581
0.452094
0.286287
0.310233
0.344794
0.369767
-5.12193
-3.03874
-4.84966
-5.19706
0.845606
-4.03315
-5.7792
-2.68522
-2.68564
-2.70704
-2.69765
-2.6637
-2.67666
-2.70051
-2.7714
-2.74833
-2.76524
-2.7495
-2.73657
-2.75257
-2.75296
-47.2802
-14.8145
-33.9498
-32.4715
-7.33343
13.6638
-52.9643
-2.8336
-2.79584
-2.86247
-2.82707
-2.79062
-2.78408
-2.82778
-2.84987
-2.88304
-2.86952
-2.89111
-2.85717
-2.89322
-2.85515
-3.8477
-3.76664
-3.76614
-3.85002
-3.99654
-3.8598
-3.84689
-6.82286
-6.12055
-5.84121
-5.63614
-5.40743
-5.97548
-6.10091
0.479464
-4.15949
0.611845
0.502581
-2.28794
0.492199
-1.16456
-0.598678
-2.58131
-7.36171
-3.63426
-4.28941
-3.54417
-2.97793
-2.48496
-3.85623
-2.93828
-3.09363
-4.12985
-4.10927
-3.61528
-3.05223
-2.06685
-2.18941
-2.1019
-2.31383
-2.27294
-2.17187
-2.21159
-2.94407
-2.92072
-2.95979
-2.96505
-2.92447
-2.92022
-2.96081
-1.8125
-1.78404
-1.85695
-1.88402
-1.94058
-1.83187
-1.87027
2.35722
2.50941
2.26264
2.09376
2.17706
2.37489
2.22594
2.22778
2.16589
2.35659
2.26838
2.29968
2.27413
2.31761
3.55352
2.9789
4.30483
3.29773
3.50975
3.6271
3.30816
10.8385
10.1229
10.795
9.16192
13.1705
9.21528
11.8361
8.12434
7.07026
7.35303
6.88302
7.23935
6.67625
7.58788
1.10389
1.08468
1.25912
1.32766
1.58334
1.2395
1.39034
-0.864531
-0.742744
-0.768494
-0.590248
-0.693989
-0.786499
-0.676691
-7.83505
3.86118
9.4562
9.50352
4.38933
6.27079
-6.44205
-2.51514
-2.54747
-2.51476
-2.52225
-2.52583
-2.54202
-2.52201
-2.76913
-3.27426
-3.05854
-3.433
-3.35802
-3.247
-3.0278
-1.19228
-1.06806
-0.967817
-0.533741
-0.79788
-0.644182
-1.02562
1.69266
1.69508
1.90143
1.44117
1.85225
1.74641
1.65379
331.207
291.368
324.082
388.103
328.317
323.484
367.102
739.648
768.528
737.843
735.269
636.914
713.779
181.224
167.13
203.379
3.76291
173.022
118.441
4.74513
10.8686
12.2639
9.0196
9.5451
9.27723
8.22986
8.13722
7.96863
8.59784
8.72742
9.24347
8.45196
7.8176
7.98754
8.05655
8.02827
8.08582
8.08805
8.05806
7.96268
7.20406
7.16517
7.3752
7.15143
7.07791
7.14867
7.25768
6.66212
6.70113
6.57692
6.33617
6.4875
6.603
6.48617
5.70088
5.81666
5.814
5.56988
5.58334
5.70532
5.68476
4.25277
4.32333
4.18352
4.43
4.36135
4.24437
4.33177
0.143236
0.100171
0.102275
0.348016
0.249701
0.248265
0.247423
-3.1541
-3.15775
-3.17513
-3.17528
-3.20331
-3.14479
-3.19049
-2.56421
-2.52957
-2.55666
-2.585
-2.55768
-2.55362
-2.55833
-3.32369
-3.42708
-3.39561
-3.44746
-3.34338
-3.42938
-3.33137
-4.97578
-4.28876
-4.80103
-5.14359
-6.39398
-4.86422
-5.65707
1.05588
-0.00136758
0.263571
-0.562569
-0.983597
-0.180258
0.0886549
0.484159
0.278458
0.18695
0.182926
0.0681174
0.0620024
0.214511
-0.282347
-0.406179
-0.227281
-0.342277
-0.0542466
-0.360258
-0.203183
-0.761365
-0.553239
-0.894963
-0.510733
-0.433478
-0.650091
-0.562957
-1.3304
-1.44737
-1.30783
-1.59967
-1.60214
-1.48813
-1.47632
-2.18879
-2.06769
-2.11166
-2.2741
-2.31518
-2.17399
-2.21301
-2.63783
-2.64169
-2.66521
-2.6394
-2.59835
-2.62036
-2.65048
-2.86841
-2.88265
-2.84866
-2.85701
-2.88905
-2.89166
-2.85447
-2.75565
-2.77642
-2.76636
-2.73647
-2.75476
-2.76215
-2.75325
1.19712
-11.2495
5.85345
-4.8719
6.02445
-4.01048
-7.60505
-7.48264
-7.46158
-8.36121
-8.82655
-9.22583
-8.04305
-8.08257
-5.48463
-5.34946
-6.46457
-4.80169
-4.47099
-5.61869
-4.83577
636.678
592.244
622.72
723.486
546.555
584.133
584.562
718.878
796.614
770.744
807.132
759.313
763.376
757.439
729.43
701.546
790.092
734.52
767.494
762.603
747.483
794.389
714.909
728.121
761.058
754.362
739.991
708.929
786.862
731.288
722.232
97.9506
62.7243
84.2758
36.677
55.6899
56.0406
83.394
5.36694
5.41835
5.46061
5.27732
5.26569
5.33357
5.34896
3.44238
3.54207
3.46551
3.35936
3.4121
3.47783
3.41047
3.08579
3.21045
3.11736
2.99714
3.06761
3.14514
3.06216
-3.56991
-3.47191
-3.54792
-3.66982
-3.57903
-3.52261
-3.60231
-2.30558
-2.47879
-2.50865
-2.82729
-2.20329
-2.6905
-2.26955
-3.41153
-3.38942
-3.4481
-3.4439
-3.34227
-3.35928
-3.4452
-9.88287
-11.3569
-9.86412
-9.60713
-9.04591
-10.4899
-9.66531
28.0092
-7.73652
73.7235
-57.248
12.5199
-27.0263
-99.6792
0.898445
1.33522
1.09645
1.6721
1.45854
1.23639
1.27407
-2.88019
-2.86226
-2.86066
-2.84702
-2.85958
-2.85502
-2.87115
-2.84298
-2.82755
-2.82817
-2.81642
-2.82466
-2.82112
-2.833
-2.64081
-2.65892
-2.64999
-2.64197
-2.62398
-2.6317
-2.63982
-4.70114
-4.93081
-4.45451
-5.37363
-4.99737
-5.09416
-4.71869
-2.98052
-4.58591
-4.53221
-4.03691
-4.80583
-4.59633
-4.08383
-3.93597
-2.84349
-0.932625
9.09795
-2.63501
-2.35757
-2.86958
636.195
571.792
515.389
600.946
552.864
584.349
638.917
493.706
539.331
509.261
480.27
516.805
542.267
483.61
8.04347
7.79215
7.93987
7.97065
7.95394
7.76404
7.54229
10.7427
3.32726
8.03573
9.80841
11.3948
6.30134
7.72192
4.83536
4.8746
4.91372
4.81576
4.73053
4.77981
4.8773
2.93914
3.11492
3.09015
3.27433
3.12352
3.33974
3.04135
8.90507
8.70451
-2.6036
-2.65074
15.1804
-5.53739
2.46042
-2.4843
-2.59436
-2.52905
-2.55755
-2.38343
-2.57553
-2.41877
-5.93744
-6.17169
-5.44482
-6.21017
-4.75036
-5.60515
-6.89025
-4.44856
-4.62478
-4.35186
-4.28485
-4.21274
-4.44778
-4.39382
72.3578
113.735
83.951
-23.3069
20.9581
41.524
12.082
113.725
56.8329
-16.2876
26.2807
78.1109
-126.886
-285.497
-66.5886
-43.1463
-129.399
-204.676
-67.1233
-107.293
-209.985
-59.0476
-31.8962
-127.925
-8.60389
-72.1321
-74.4884
-34.7472
14.1883
-2.83783
-2.82236
-2.83658
-2.85339
-2.83598
-2.82763
-2.8441
-2.76337
-2.74547
-2.74856
-2.78036
-2.78134
-2.75378
-2.76571
-2.61213
-2.62006
-2.60111
-2.62022
-2.59749
-2.61053
-2.60884
-2.63222
-2.61576
-2.60175
-2.61703
-2.61974
-2.61127
-2.62816
-3.80859
-3.81965
-3.80874
-3.92041
-3.92997
-3.83493
-3.85175
-4.14405
-4.07863
-4.23911
-3.94548
-4.08684
-4.04005
-4.09536
-8.45578
-8.23109
-8.32711
-8.13075
-8.72099
-8.39608
-8.34801
-7.65154
-7.23852
-7.38241
-7.42367
-7.52155
-7.34935
-7.61501
-48.6405
-75.2566
-13.9119
-44.3407
-67.5185
-47.4394
-25.3223
-45.8842
-76.1031
-29.3467
-64.2516
-81.8133
340.662
306.55
338.833
381.057
332.028
329.581
370.737
10.9902
12.5015
10.1143
8.32047
11.3405
9.90402
10.8211
7.44811
7.33445
7.22933
7.02855
7.13206
7.17771
7.30293
3.58355
7.76086
0.596797
3.18614
5.09838
4.52627
-3.33167
4.27885
4.2291
4.27559
4.25904
4.32015
4.22858
4.29281
3.81945
4.08515
4.23118
4.15289
4.21693
4.158
4.02546
0.196208
0.120699
0.356832
0.156716
0.0397305
0.145426
0.436829
-2.65943
-2.68528
-2.75623
-3.0377
-2.73369
-2.8288
-2.78341
-7.34602
-7.26095
-7.89477
-7.56092
-6.93904
-7.41612
-8.23389
41.5882
47.7736
25.3425
-16.2473
5.43803
27.4258
-11.5586
28.8082
3.15597
-34.2068
-96.8893
18.7797
-9.88977
-11.0561
-9.58698
-9.32489
-10.0063
-10.5018
-9.41774
-3.82181
-4.00656
-3.91083
-3.6469
-3.71782
-3.87731
-3.78226
-2.93189
-3.00626
-2.92791
-2.88093
-2.92514
-2.96979
-2.90043
-2.92625
-2.92877
-2.94123
-2.92051
-2.93211
-2.9344
-2.94549
-2.94215
-2.93606
-2.93846
-2.93896
-2.93467
-2.93072
-2.94291
-2.94985
-2.9436
-9.01153
4.22524
3.30432
-3.48547
8.62268
-0.0452358
0.421881
-2.82115
-2.77251
-2.7724
-2.78237
-2.78463
-2.78405
-2.79052
-2.60253
-2.60232
-2.60971
-2.59086
-2.60864
-2.60406
-2.59648
-2.78821
-2.77083
-2.88382
-2.72343
-2.74248
-2.79993
-2.75133
-3.73032
-3.87138
-3.80171
-3.83244
-3.76388
-3.83856
-3.74634
-6.31442
-6.26136
-5.63802
-7.57614
-6.50553
-6.38343
-6.51027
-8.54145
-9.04431
-8.93714
-9.29082
-8.90064
-9.04984
-8.66339
-6.53298
-5.92795
-6.51378
-6.88708
-6.74115
-6.4665
-6.53729
1.18095
-11.4025
4.90877
7.53103
1.70067
0.997299
0.711478
11.258
8.98006
7.14182
7.87533
7.07151
5.90874
8.57444
-28.5686
-148.049
-100.896
140.965
69.838
-18.5756
-71.6289
55.8687
11.9719
-33.518
2.56552
-1.93759
161.11
-9.45045
251.544
-2.82147
-73.706
4.45653
4.38872
4.36489
4.48203
4.39789
4.37257
4.41375
8.72671
11.165
3.49457
2.2758
7.018
7.47934
9.10716
-14.012
22.5395
11.8958
-16.9813
-1.4848
-3.41775
-1.5613
0.446291
0.694728
1.0265
0.46674
0.284165
0.323192
0.474017
-12.0379
-12.2694
-11.6402
-11.8384
-12.3681
-12.4938
-11.7427
-77.0115
61.1913
33.6769
21.8804
71.2188
-36.4876
38.2684
44.2205
-167.499
-17.1634
-3.48683
-3.52426
-3.60131
-3.74556
-3.67645
-3.64435
-3.59518
-2.99156
-2.96139
-2.96064
-2.97075
-3.0192
-2.9761
-3.00921
-2.9717
-2.97637
-2.96201
-2.94983
-2.97792
-3.02613
-3.03403
-2.9889
-2.92656
-3.04087
-2.96081
-2.93489
-2.9636
-2.93457
-2.93297
-2.94077
-2.93141
-2.91967
-2.91032
-2.85389
-2.909
-2.95966
-2.91199
-2.61546
-2.61914
-2.61758
-2.60655
-2.63217
-2.61618
-2.62972
-3.16784
-3.10099
-2.89405
-2.72252
-3.00451
-2.87077
-3.07049
-9.5244
-8.07374
-6.92884
-5.90138
-6.40623
-7.1574
-8.9576
3.38029
3.68336
5.37646
6.21719
-3.77344
7.23081
1.1204
-25.7229
-55.1852
-25.519
-18.0804
-29.6153
-41.7316
-31.3089
5.09721
3.89832
4.52459
3.8017
4.29578
4.38649
3.41617
4.1614
4.35537
4.33594
4.48736
4.35987
4.39737
4.25543
4.99028
4.87991
4.85675
4.73205
4.83759
4.77038
4.88789
78.2148
117.331
296.456
28.3309
24.3745
75.7683
69.7974
1.55994
-18.3616
84.7591
54.5856
134.242
-1.92813
8.05718
-0.300793
0.366832
0.346343
0.377607
0.394457
0.419905
0.372715
0.396124
0.0550982
0.00834416
0.0423691
0.128246
0.0474941
0.0293825
0.0880183
-1.18813
-1.18728
-0.932619
-1.37388
-1.21163
-1.2933
-1.0639
-6.33713
-6.48853
-6.07862
-6.69234
-5.82221
-6.64725
-5.76811
-8.47126
-10.3165
-7.8974
-6.93556
-8.49464
-8.77147
-9.04245
-11.4632
-11.5468
-11.6359
-11.3947
-11.979
-11.4539
-11.9934
-7.22588
-6.75764
-6.95822
-6.6357
-6.72297
-6.3831
-7.04075
-7.25097
-4.9665
-5.51698
-5.1753
-5.46304
-4.71503
-6.67015
-5.26981
-7.25594
-6.22863
-4.30725
-4.09185
-4.52556
-3.30348
-4.49394
-4.87034
-4.75522
-4.99641
-5.12597
-4.92385
-4.82027
-11.9039
-12.2431
-12.0364
-11.7278
-12.0975
-12.3367
-11.825
-5.78351
-5.4009
-5.8353
-6.25026
-6.69711
-6.10917
-6.34228
-2.58358
-2.61222
-2.58202
-2.58784
-2.59652
-2.60154
-2.58741
-2.77367
-2.77004
-2.28795
-2.76132
-2.86088
-2.78791
-2.62525
-2.93563
-2.91831
-2.91543
-2.91848
-2.93612
-2.90515
-2.91849
-2.92307
-2.93868
-2.92357
-2.81129
-2.80904
-2.83307
-2.77799
-2.79867
-2.81129
-2.79185
-2.76753
-2.44145
-2.91862
-2.17147
-2.66872
-2.36507
-2.66082
1.24967
7.48009
2.99413
6.46564
6.02714
10.5037
4.04153
7.5697
-27.2875
-28.8638
-13.6965
-43.019
-5.3494
-20.1371
-3.36478
-4.15255
-3.22481
-3.2979
-3.29491
-3.72781
-3.38265
0.65424
0.625573
0.621083
0.685823
0.697749
0.660433
0.653712
0.600804
0.574437
0.551569
0.648036
0.62576
0.615817
0.59628
0.26427
0.344004
0.316767
0.421727
0.378517
0.312362
0.36061
-4.07614
-4.9352
-5.66623
-5.54953
-6.04191
-5.47041
-5.16674
-7.77882
-7.76482
-7.54132
-8.06856
-7.05604
-7.67501
-7.6771
-2.90092
-2.64546
-2.71454
-2.712
-2.68835
-2.57628
-2.73956
-2.78785
-2.7671
-2.78309
-2.77062
-2.79543
-2.76126
-2.78086
-2.9285
-2.92965
-2.93788
-2.90808
-2.90908
-2.91682
-2.91522
-2.6996
-2.66054
-2.67022
-2.74011
-2.71538
-2.70152
-2.70501
-1.89267
-1.98039
-1.29254
-2.2766
-2.01449
-1.75047
-2.20213
-4.25535
34.3014
17.9825
-4.48664
8.80979
5.82526
-11.6404
-6.39433
-5.88062
-6.48289
-6.55667
-6.9981
-6.49248
-6.41578
-4.38728
-4.81718
-4.60394
-5.37087
-4.95352
-5.04277
-4.75725
-0.757261
-0.574899
-0.691287
-0.982778
-1.22719
-0.843878
-1.12883
2.23094
2.50472
2.4279
2.0538
2.17612
2.37484
2.27048
3.17121
3.03888
2.9839
2.86172
2.90982
2.94324
3.05732
2.99225
3.09483
2.9777
2.84477
2.94362
3.01637
2.88368
3.73923
3.84897
3.71139
3.63223
3.7345
3.7691
3.65563
4.45808
4.39139
4.48557
4.34083
4.37698
4.38639
4.41521
1100.23
800.797
877.958
1274.39
436.358
1209.21
455.22
624.839
1437.38
1453.39
1576.55
1169.42
256.548
280.509
389.844
132.246
1230.81
1431.45
1.22671
1.12454
1.21742
0.868047
0.532864
1.39556
1.11148
0.930921
0.891193
0.866898
0.973289
0.983495
0.930469
0.919509
0.778805
0.747838
0.836449
0.886732
0.914441
0.820367
0.844171
0.734142
0.686359
0.636996
0.788685
0.781731
0.723409
0.700109
-1.6778
-1.24421
-1.35633
-1.18743
-1.19474
-1.17233
-1.44398
-27.7432
-39.4459
-39.142
-37.0557
-17.5149
43.5603
-24.4034
-23.5038
-22.1518
-48.359
-8.94734
-8.15623
-8.6504
-9.00534
-8.27297
-8.19569
-8.80114
6.96814
8.71405
-7.27729
2.18979
-10.3884
-2.88799
-6.54227
-2.74127
-2.59378
-2.65292
-2.54573
-2.71314
-2.54736
-2.7061
-2.60265
-2.61909
-2.6355
-2.6183
-2.59038
-2.61378
-2.62955
-2.62271
-2.61636
-2.61355
-2.6267
-2.60332
-2.62159
-2.6152
-2.62018
-2.61442
-2.61801
-2.63197
-2.6039
-2.62953
-2.61586
-2.90718
-2.8952
-2.9135
-2.88934
-2.91095
-2.93586
-2.87948
-2.90759
-2.90066
-2.81711
-2.8568
-2.87159
-2.91052
-2.87785
-2.87944
-2.84052
-2.93156
-2.89926
-2.89398
-2.89108
-2.85417
-2.8465
-2.78164
-2.86581
-2.88425
-2.92595
-2.89356
-2.83237
-2.91003
-1.85956
-1.82616
-1.56981
-1.80526
-1.721
-1.98707
-1.74129
0.194903
0.338327
0.296228
0.724611
0.128331
-0.249106
0.210323
2.72942
0.771024
-7.28656
6.70377
4.44746
-9.68353
0.194758
3.22138
0.0923823
-3.21423
8.64271
18.2659
-6.7987
-6.73931
-7.22769
-8.19759
-7.37092
-7.91288
-7.09271
-7.56245
-7.43198
-6.9914
-7.47525
-7.48447
-7.18767
-7.48022
3.46533
3.53996
3.4417
3.41352
3.35801
3.47661
3.41017
4.18144
3.91103
3.65898
3.91644
4.07573
4.05079
3.58051
-270.766
-43.912
-150.058
-1.61083
-59.7479
-3.55095
1.22744
1.29759
1.27164
1.35611
1.18168
1.3219
1.16284
1.19033
1.35141
2.05437
2.174
1.84197
1.66577
1.5483
2.54513
-18.686
27.0828
-12.4637
9.59099
27.6195
9.8671
-30.0161
-46.2052
-27.5255
-2.44478
-2.53674
-2.73985
-2.10144
-2.63892
-2.93786
-2.38915
-3.54848
-3.47407
-3.57185
-3.57952
-3.67166
-3.52431
-3.60425
-2.83148
-2.72313
-2.7736
-2.89922
-2.87603
-2.88203
-2.92049
5.46308
-3.02274
2.71457
-2.91074
6.45579
1.54671
-8.55749
-2.62367
-2.64694
-2.60568
-2.62898
-2.6292
-2.62555
-2.61228
-2.60717
-2.61722
-2.60743
-2.61899
-2.59338
-2.59924
-2.61036
-2.64277
-2.65569
-2.62559
-2.64088
-2.65035
-2.65779
-2.641
-2.60038
-2.61096
-2.5864
-2.60871
-2.60273
-2.60462
-2.59705
-2.55936
-2.54571
-2.5412
-2.54694
-2.52332
-2.5495
-2.54434
-2.73483
-2.75489
-2.71477
-2.69794
-2.73889
-2.73833
-2.67797
-0.456384
-0.942147
-0.76276
-0.308297
-0.81564
-0.99118
-0.646228
0.156832
0.562998
0.516591
0.394952
0.181213
0.473315
0.0852115
-1.34796
-6.91474
2.47822
-11.9105
-6.45991
-6.0397
-16.4941
-16.4795
-4.87956
-12.4572
-8.3883
0.394625
-12.23
-8.93086
14.8075
6.55544
16.1474
-7.62969
3.96381
-3.62421
20.8954
-11.291
7.94365
8.95721
-5.22124
-6.10843
-3.53634
-3.31689
-2.85932
-4.68777
-3.69397
-9.05238
-9.0977
-8.7323
-9.17
-9.2397
-8.99096
-8.8163
-9.26997
-9.90991
-8.94484
-9.54233
-10.3482
-10.0795
-9.78372
-8.12206
-8.11884
-8.07429
-8.4354
-8.30957
-8.36151
-7.99394
-9.23473
-9.01192
-8.76432
-9.40237
-9.89546
-9.45846
-9.04036
-2.88263
-2.38158
-2.52605
-2.54882
-2.86904
-2.55083
-3.11924
3.01627
3.08474
2.8874
3.03373
3.44175
3.64841
3.0492
16.7788
-8.84934
16.9689
-2.03979
-7.35147
-1.21551
1.80497
7.25088
45.9615
36.9317
63.8507
31.8044
17.336
50.5701
113.851
178.114
92.3807
58.6501
58.8178
96.1822
-69.1961
56.6611
53.2485
-9.46944
26.2592
52.4955
-58.0347
27.3218
103.195
46.8901
14.1521
151.861
104.477
9.81221
3.34809
3.41616
2.0403
1.58774
1.56036
2.06732
1.84952
1.70997
1.80912
1.99463
1.86118
1.7627
1.88814
3.65456
2.73942
4.28404
4.18111
4.1876
3.23452
4.03265
72.8322
99.635
98.8029
121.695
95.7509
106.937
86.1134
9.26881
24.5665
13.4111
8.10051
7.04584
15.0969
7.65915
1.08036
1.85241
1.20506
1.7889
2.00108
1.74463
1.56066
-2.37197
-1.98047
-1.95537
-1.66648
-1.74346
-1.79466
-2.05121
-3.12621
-2.96818
-3.06169
-2.89719
-3.1899
-2.90151
-3.12533
-2.39637
-2.5624
-2.51605
-2.5981
-2.48365
-2.58637
-2.41055
-3.28642
-2.35082
-1.48447
0.0796767
-9.93619
-3.11751
-2.99395
-2.63417
-2.65293
-2.6467
-2.64724
-2.62174
-2.6381
-2.64163
-2.41218
-2.43423
-2.42847
-2.39118
-2.38976
-2.40623
-2.40557
-1.54063
-1.60602
-1.7739
-1.96689
-1.90504
-1.80039
-1.77547
-4.60768
-0.866385
-9.9971
-6.03205
-6.81628
-4.64106
-4.84654
-4.3646
-4.18338
-4.26594
-4.70303
-4.32201
-3.22957
-3.17609
-2.84719
-3.3879
-3.45761
-3.22633
-3.20329
0.573374
0.537837
0.535651
0.60258
0.598158
0.570119
0.570097
0.65354
0.705288
0.672796
0.677369
0.620359
0.683925
0.633462
94.2319
86.4283
7.45524
227.337
219.869
204.804
184.216
124.636
174.891
202.399
66.0715
116.533
109.435
100.293
98.0531
120.482
120.454
222.333
217.288
210.271
53.1871
92.7014
90.6453
325.598
541.122
539.277
505.459
580.393
347.223
511.919
547.928
344.276
598.074
461.118
579.998
368.549
566.134
560.37
481.882
703.793
410.547
748.605
756.571
665.3
631.588
434.154
2061.7
2356.65
1856.77
2251.65
1692.29
1906.57
1933.29
1918.09
2347.34
2063.02
2445.15
2121.94
1335.4
1020.69
2070.24
1377.25
1325.54
1128.8
1888.53
2160.69
1561.08
1648.08
1455.29
1457.35
3.99102
3.54013
3.45988
3.09168
3.2673
3.32574
3.48774
2.71376
2.61966
2.57954
2.63211
2.74596
2.73533
2.72642
1.02457
1.05075
1.18495
1.17059
1.30526
1.1576
1.14136
0.64548
0.69157
0.729522
0.794133
0.779491
0.725443
0.700027
0.90099
0.875003
0.826478
0.776702
0.744847
0.815807
0.833164
0.200124
0.136571
0.117614
-0.00673084
0.0532172
0.0361066
0.111523
-2.18428
-2.08835
-2.09526
-1.97218
-2.13285
-2.02087
-2.17951
-2.74674
-2.74234
-2.72748
-2.72393
-2.68679
-2.7377
-2.70713
-1.85387
-1.98991
-1.99756
-1.72276
-1.66718
-1.85467
-1.87266
3.79405
1.80572
-2.0024
-1.29062
-8.50929
2.13567
-4.6317
-14.2883
-5.63566
0.956295
4.10457
-0.719153
7.77021
0.236361
5.79717
8.75485
5.07364
5.17883
-2.7919
9.01842
-1.7445
-1.76018
-1.80003
-1.89854
-1.59289
-1.64213
-1.90691
0.232569
0.224279
0.441004
0.121592
0.157956
0.171711
0.300633
0.436829
13.3022
18.2962
-1.40651
9.65481
2.92628
4.13009
0.572459
0.595335
0.552034
0.621385
0.649054
0.614874
0.591157
0.520237
0.562798
0.52999
0.535096
0.490771
0.546356
0.50353
0.656399
0.698722
0.687841
0.618405
0.625475
0.664182
0.655923
85.9317
-55.4283
79.7693
150.586
58.0576
64.2326
116.23
105.988
175.065
96.6169
67.9112
-60.8678
-169.045
22.6373
-151.589
33.9769
0.23705
3.13569
3.16602
2.91271
3.04256
2.482
2.96802
3.3865
3.67231
3.18314
3.19409
2.90043
3.82035
3.15329
3.15533
442.62
74.7861
313.965
369.981
343.85
132.203
275.525
188.718
208.725
266.315
313.091
340.594
336.267
494.067
524.191
507.976
-140.029
-94.4369
135.416
61.2292
46.7174
793.266
611.755
690.727
11.3067
7.32495
11.6632
17.5227
10.4165
8.29453
13.0972
194.446
-116.295
145.311
6.65402
-97.5661
41.9198
28.2818
-87.4181
17.9242
69.9706
153.543
31.0554
28.1371
130.507
83.8123
26.2161
-30.9229
52.4156
41.2264
62.0942
-19.4782
3.30728
2.87009
2.85093
3.15312
3.08848
2.79623
3.01457
1.84944
1.90583
1.99251
1.79798
1.71247
1.77854
1.9169
0.966569
0.930978
0.989025
0.879603
0.880707
0.934657
0.924609
0.53868
0.574975
0.506392
0.642022
0.620241
0.573461
0.552799
0.0362483
0.0121487
0.0573955
0.0504939
0.133933
0.0331992
0.0894848
-0.720248
-0.758415
-0.592353
-0.876159
-0.779829
-0.819257
-0.698705
-2.97244
-2.89765
-3.03201
-3.09518
-2.95057
-2.93496
-3.05148
-4.04887
-4.26454
-3.99904
-4.00394
-4.11086
-4.17558
-4.00735
-3.00439
-2.72982
-2.68148
-2.51986
-2.49
-2.59505
-2.66304
-1.13949
-0.843557
-1.08795
-0.995161
-0.761562
-1.15016
-0.804989
0.160317
-0.0355882
-0.0161539
0.32949
0.321291
0.0978321
0.168476
3.82259
2.01795
1.83882
4.56494
3.15965
3.20324
2.58145
-9.30418
-8.49063
-9.52604
-7.28463
-25.7183
-14.7262
1.59114
-30.8856
-14.3694
-34.3012
-32.7032
-18.3727
-4.95509
7.12525
-13.2259
-14.1136
-32.3895
-5.46468
-1.629
-23.6135
2.42964
-9.92503
-34.6107
-9.81541
-16.7885
-151.006
-145.14
-134.175
-108.585
-138.603
-153.835
-184.52
-129.286
-125.856
-3.09364
-2.73628
-3.12549
-1.30996
-4.41419
-2.42027
-3.3247
-3.60105
-3.11894
-3.01084
-2.7544
-2.59393
-175.962
-142.809
-158.662
-487.957
-508.209
-488.173
-483.727
-468.925
-470.919
-477.435
-488.713
-507.18
-500.75
-515.281
-493.21
-489.308
-476.67
-490.346
-499.873
-473.834
-491.903
-480.191
-509.844
-488.761
-489.145
-456.815
-480.563
-487.128
-469.612
-496.156
-520.079
-507.166
-512.488
-500.806
-494.282
-505.39
-496.816
-485.78
-501.042
-494.707
-487.396
108.09
-14.9743
8.93636
-7.95842
-20.5305
-2.76364
-41.3294
-5.14508
-2.83142
-4.55553
-4.53098
-3.40939
-3.46021
-5.22015
-5.20765
-3.18972
2114.37
2358.15
2265.79
2181.69
2266.95
2336.16
2432.58
2410.89
2255.58
2186.24
2401.54
2282.1
2305.04
2398.2
2003.67
-3.67194
-5.39365
-3.75455
-5.27715
-3.52698
-3.96652
-1.14395
-1.34533
-1.29861
-0.949661
-0.648602
-0.993232
-4.90332
-3.79198
-4.04016
-4.70565
-1.31659
-1.41844
-1.2883
-2.75711
-2.70703
-2.74273
-1.14421
-1.26386
-0.850834
-2.57459
-2.6335
-2.53944
-1.19587
-1.15314
-1.35717
-1.31996
-2.15232
-1.95859
-2.12703
-2.71909
-2.75095
-2.77088
-2.86126
0.550158
0.444884
0.546544
0.407388
-1.24824
-1.3414
-1.07236
-1.26584
0.631129
0.598623
0.648167
0.633205
0.686492
0.67835
0.679825
0.682415
0.685797
0.636711
-1.21854
-1.20366
-1.18465
-0.99755
0.514699
0.577116
0.304069
0.412188
0.354514
0.46614
0.537936
0.617167
0.626969
0.631247
0.633627
0.601579
0.678011
0.682705
0.64007
0.679838
-5.00152
-5.18288
-5.29161
-5.42495
-5.84471
-7.04172
-6.07179
-6.73354
-2.61401
-2.60841
-2.61217
-2.61281
142.323
117.296
167.961
163.257
-2.6929
-2.66327
-2.64127
-5.3077
-5.14784
-5.48172
-5.42631
8.59333
7.87384
6.131
6.74372
4.45799
4.52473
4.43922
4.51496
-0.0929418
0.090181
0.0480845
7.41414
4.91704
0.270971
0.0475974
0.201552
0.0087935
13.96
0.48038
1.73756
22.1205
0.57356
0.283553
-4.03684
-3.17912
-3.3135
-2.6593
3260.82
2770.54
2542.64
2153.52
-9.09067
11.8224
2.79991
7.01625
1.44819
1.49451
1.34004
1.36905
10.492
-11.5624
-27.5309
-19.4362
-2.8366
-2.87154
-2.82953
-2.77464
-2.60135
-2.59229
0.864244
0.879978
0.957352
0.898555
4.9817
4.85851
4.88735
4.7697
1.37326
1.34512
1.30074
1.22933
-28.2881
-20.2464
-101.128
-93.4828
-2.77854
-2.74097
-2.78604
-2.72652
3.96036
3.84591
4.02036
3.8147
3.84511
3.94339
3.84632
4.01876
-2.65707
-2.66744
-2.7829
-2.78444
-2.78832
-2.79917
0.179184
0.0431507
-0.0492684
-0.0558707
-2.67823
-2.73337
0.871137
0.854674
0.547576
0.515582
-17.4352
-12.2462
-32.2428
-4.30455
1898.86
1732.36
2366.05
1.11346
12.3712
13.639
21.5676
181.522
168.241
221.963
150.506
401.302
510.57
623.444
35.3032
15.9844
6.30069
7.47138
43.4328
59.4467
-2.7766
-2.78287
-34.0064
-8.45724
3.61684
-2.54279
-4.79491
1.7411
-2.68218
-6.05283
-4.42748
-2.87904
-2.90527
-2.87818
1.00208
0.942914
0.239091
0.267489
0.224362
0.289537
0.253639
0.224461
0.284213
0.222849
5.47918
8.17617
3.71623
6.96674
-0.880031
-0.988356
-0.912689
-1.07921
-3.89243
-4.32144
-14.242
-42.7149
-4.37994
-3.98808
61.2454
68.7002
-2.66157
-2.65698
-1.49137
3.53135
3.62313
3.53131
3.40686
3.3794
8.24582
1.05532
-2.79701
-4.97847
37.3109
-40.5911
-0.838137
-0.775025
-0.895966
-0.79707
1.97028
2.09244
2.65326
2.91646
0.632781
0.614376
-3.06658
-3.05429
-3.02313
-2.99026
-2.63392
-2.64009
-181.853
-182.593
-142.76
-149.292
-2.64548
-2.71464
-3.04032
-2.82698
60.4339
45.8588
236.674
71.5487
-6.42679
-3.19766
-7.14808
-6.39341
-4.42039
-4.74254
3.25986
3.2145
-8.11028
-8.48138
-8.97978
-9.17715
3.51684
2.58175
3.23868
2.73511
-2.47002
-2.42281
-2.51106
-2.5525
1.92081
0.884543
-1.60489
-0.364222
-1.67393
-1.54016
8.39276
8.47558
-397.688
0.100437
0.557001
-1.87835
-2.91913
-6.21838
-6.38117
-5.3583
-5.41531
-0.53883
-1.37195
1.09171
1.4179
-2.80039
-2.78264
-0.469064
-0.450038
-0.774977
-0.648868
1.50203
1.44782
113.781
131.666
58.2328
58.2601
2259.8
2403.98
2721.99
-3.28399
-3.22727
-3.22172
-3.16492
-8.39706
-8.57254
-8.8137
-9.03998
-2.43011
-2.42239
-2.4456
-2.47426
-2.50466
-2.80982
-5.11478
-4.9703
-4.45359
-4.7613
2.2591
2.35489
2.19294
2.35381
-3.79331
-3.83191
-4.12967
-4.20442
-7.96024
-7.94603
-8.48347
-8.28819
1.22926
1.13721
-2.6762
-2.68363
-3.49651
-3.43743
-3.40884
-3.34376
-3.35255
-3.36978
10.4415
5.25862
11.888
8.88071
-2.844
-2.84771
-2.90977
-2.92531
-2.80478
-2.80052
-2.81624
-2.81565
-2.43117
-2.43718
-2.47259
-2.45186
-3.0272
-2.57468
-8.79177
-8.44848
-1.54681
-1.70696
-1.55796
-1.87965
-1.72337
-1.54649
-1.88226
-1.57943
-0.429573
-0.566765
-0.346996
-0.555048
-0.566131
-0.433244
-0.550618
-0.356614
-2.61073
0.424758
0.570583
11.2742
10.8487
10.8018
11.5663
-4.46969
-4.98034
-6.58965
-7.27254
4.81229
11.9929
4.82111
6.74381
53.0122
63.8488
63.0349
69.8697
4.37251
10.132
5.30337
9.78326
3.3399
3.1404
3.00398
2.83102
-6.60951
-6.18804
-5.53574
-5.10808
8.26461
34.8144
-6.62761
-6.91929
-6.86747
-6.12782
-4.14942
-4.08749
-4.33657
-4.26749
-0.225701
-2.91667
2.24919
3.20109
-80.3251
-84.8834
8.65044
7.1829
-2.62971
-2.54482
-0.74604
1.27383
-3.79893
-4.86242
-3.73724
-3.78795
9.57045
9.57553
-1.39797
-1.40395
-1.85391
-2.08715
-72.9406
-60.1728
-1.27272
-1.23487
-1.92935
-1.80052
-1.99778
-2.08568
-3.01676
-3.0267
8.02029
8.32353
5.55681
-7.32445
-6.31889
-2.02499
-1.9673
-6.65401
0.569585
7.23021
2.83349
-8.73811
-8.65858
-2.23276
-2.1199
-2.24007
-2.16851
-4.71779
-4.54082
-4.88919
-4.69351
-3.65606
-3.74627
-4.64808
-4.79869
-4.90617
-4.99944
-2.40113
-2.28648
-2.28739
-2.40259
-2.88355
-2.91766
-2.81198
-2.85899
3.75404
3.81902
-1.19863
-1.26278
-1.17377
-1.29778
-4.06038
-4.39625
39.6506
31.6618
65.4928
41.4542
0.490427
0.485275
5.37651
5.50525
5.21952
5.32535
5.46978
5.36799
5.29232
5.21034
1.34768
1.37422
-6.90749
-7.79878
-1.83283
-1.48625
-0.762604
0.135525
-3.69422
-3.89902
-3.33491
-3.50172
0.521735
0.488905
-2.92991
-2.88569
2.26324
2.2662
2.35433
2.41532
-0.859922
-0.797996
4.02671
-7.65718
13.2652
6.79966
2.22253
2.17001
2.31562
2.18416
-0.573735
-0.464879
-0.726055
-16.2205
-0.0785316
-5.14546
-2.74118
-2.74571
-2.77313
-2.79956
-0.598854
-0.381273
-0.675563
-0.423821
0.172633
0.0945674
-2.82955
-2.81663
28.1959
60.4052
65.4238
91.8507
-2.83044
-2.81694
6.10563
25.4154
-8.39825
-1.64204
-0.475427
-0.569124
0.940887
0.89717
1.34182
-12.7107
-10.1724
-10.9259
-2.57786
-2.58243
-48.4247
-40.656
-76.8937
-74.7427
-2.63612
456.088
497.143
483.178
-4.91323
-3.91642
-4.63726
-4.41005
-4.39982
-4.31458
147.046
202.136
101.327
150.883
-41.0196
-38.2174
-46.138
-44.0763
-5.6818
-2.81035
-2.79322
-2.80001
-3.18446
-3.18764
7.86134
7.76089
8.11107
7.8795
7.76978
7.78418
7.74355
7.84718
-2.79332
-2.8004
-3.5055
-3.52583
0.816577
0.805628
4.10124
4.40167
0.242624
-0.687484
-0.683879
2.86392
2.76906
2.93788
2.80474
-0.902956
-0.797333
2.60273
2.56271
2.47991
2.41316
-2.50952
-3.41128
-1.98699
-6.07025
-420.139
-407.813
0.399646
0.403604
0.0642648
0.0295636
-0.380465
-0.389837
-0.172921
-0.169821
-1.72687
-2.68332
-2.70342
-2.7181
-3.11444
-2.50405
-3.11507
-3.1219
-11.7139
-10.6957
-10.792
-11.5617
-9.68341
-9.45949
0.580924
0.416663
-0.648369
-0.671449
0.579049
0.657975
0.491131
0.492166
-347.199
-351.07
10.8917
6.38056
28.9617
13.5396
-2.69506
-2.71013
-9.64973
-8.80783
0.522842
0.433403
0.562706
0.38202
-8.25296
-8.41238
-2.50799
-2.99007
-2.10506
-2.94757
-3.95049
-3.86947
14.897
-3.34149
-2.52015
7.47572
2.93564
2.93189
-4.37486
-4.29469
-4.20033
-4.51951
-5.48047
-5.8591
-2.81656
-2.82701
-2.81483
-2.82769
-9.55583
-8.87088
-2.55679
-2.67036
-391.326
7.23028
6.32041
5.37909
0.874891
0.84634
-7.82736
-7.80463
-4.92328
-4.9527
-2.3526
-2.3496
-2.62311
-2.61496
-2.60992
-2.35181
-2.35016
-2.57261
-2.60937
-2.89531
-2.95479
0.424322
0.426456
-34.8117
-13.394
16.0251
76.9418
-16.8819
-21.6266
-3.00601
-2.87777
-1.71171
-1.86285
0.0177631
-0.082145
-1.65761
-1.5662
-3.79061
-3.80732
-3.4229
-3.73864
-1.00363
-1.03878
-3.42491
-3.08092
-3.15355
-3.1303
-1.84446
-2.08196
-21.5977
-17.0428
-19.642
-16.577
-1.62489
-2.42496
-5.26616
-5.57654
-1.96371
-1.89391
-3.11652
-3.05199
-1.22111
-1.29091
-5.61921
-5.9816
-1.30141
-2.49749
-1.02744
-0.99605
8.23818
7.88317
-1.99466
-3.15755
0.650371
0.688781
4.16725
4.20108
0.659696
0.69893
13.8177
27.5554
17.3581
48.5068
0.865319
0.837852
31.7182
21.3554
53.7575
16.4371
1.8409
1.94275
-2.50341
-2.51723
-2.60435
-2.60586
2.40821
2.35213
-1.69106
-1.88372
-2.83576
-2.82522
-1.69066
-1.87974
-2.63303
-2.42699
-2.75961
-2.69687
-0.0422683
-0.0214148
-0.0357866
-0.0122991
4.64474
4.87539
-4.09233
-4.40484
4.62443
4.872
-26.196
-9.60116
-3.30444
-4.86747
1.66676
1.67355
-2.62902
-2.63401
-1.64307
-1.64695
-1.65819
-1.29682
-0.864477
-0.93854
1.2624
5.34926
6.0033
7.52872
3.19322
2.16272
3.67738
3.19627
3.61103
3.23635
1.28272
1.37099
-3.03928
-3.06773
1.66267
1.67431
6.39501
19.2631
-2.08594
-1.84765
-3.78455
-3.66428
-2.58108
-2.56321
-4.67132
-4.94382
-5.02235
-5.09455
4.09687
4.07409
-2.62756
-2.62381
591.736
382.543
358.684
212.55
1.33258
16.8583
4.84236
6.02259
-3.07901
-3.23539
4.0849
4.09233
-3.5784
-3.72396
-1.4889
-1.39486
-5.77049
-5.64824
-2.61578
-2.61059
-3.22675
-3.49326
-7.8389
-7.97384
-7.47711
-7.63004
1.50018
1.5966
1.47477
1.22729
1.17412
1.35091
0.0671084
0.00627687
22.5144
22.3242
-7.23528
-5.38724
20.7869
16.3834
-2.85571
0.0530686
-3.27729
-3.22429
-3.64642
-3.61443
-2.55164
-2.55658
-9.45411
-9.35043
-0.0757997
-0.0644537
-2.42593
-2.50319
-36.3175
-35.3946
-7.0486
-6.92019
-57.2769
-55.2796
-70.8003
-98.6109
-96.4544
-7.42845
-7.53341
-2.50117
-2.58983
-2.58964
-2.50092
-1.79092
-2.02595
-4.42438
-4.2825
-0.580824