/*--------------------------------*- C++ -*----------------------------------*\
| =========                 |                                                 |
| \\      /  F ield         | OpenFOAM: The Open Source CFD Toolbox           |
|  \\    /   O peration     | Version:  v2012                                 |
|   \\  /    A nd           | Website:  www.openfoam.com                      |
|    \\/     M anipulation  |                                                 |
\*---------------------------------------------------------------------------*/
FoamFile
{
    version     2.0;
    format      ascii;
    class       surfaceScalarField;
    location    "0.3";
    object      phi;
}
// * * * * * * * * * * * * * * * * * * * * * * * * * * * * * * * * * * * * * //

dimensions      [0 3 -1 0 0 0 0];
oriented        oriented;


internalField   nonuniform List<scalar> 
49400
(
-5.66183e-06
-2.54709e-09
5.61851e-06
4.58743e-08
1.30568e-05
3.59839e-06
-2.2317e-05
1.28501e-05
2.04156e-07
-3.42789e-06
1.7309e-05
-8.26262e-06
2.02075e-05
-2.0037e-05
-2.07673e-05
5.09264e-05
-3.55647e-07
8.06233e-06
1.95817e-05
-4.9961e-05
-1.54419e-07
-6.09781e-07
-1.22904e-05
2.28408e-07
1.21491e-05
-8.7123e-08
2.6298e-05
1.15641e-05
-5.01525e-05
2.59166e-05
-1.31288e-05
1.51305e-06
2.37648e-05
-1.32609e-05
4.50215e-08
2.94751e-05
-3.11719e-05
5.69048e-05
-2.68314e-05
4.828e-07
2.641e-05
-6.14265e-08
9.22321e-06
1.56087e-05
-5.16633e-05
5.41158e-07
9.16485e-06
4.1193e-05
2.27021e-05
-4.82864e-05
1.73443e-05
5.02587e-05
7.66853e-06
-7.39527e-06
2.67898e-07
-3.73151e-06
2.05649e-05
6.25624e-06
9.05057e-06
1.9869e-05
8.83541e-06
4.83057e-07
-2.00376e-05
4.94379e-05
3.14474e-07
-7.18014e-06
5.30814e-05
-1.73241e-05
-2.85772e-05
7.48295e-05
-1.9361e-05
-6.26486e-05
-6.78922e-05
-0.000102915
-2.38994e-05
6.78084e-06
-2.05535e-07
2.82997e-05
-7.15601e-05
-8.77259e-05
2.66146e-05
-0.000162341
3.39467e-06
1.02745e-06
-1.83095e-06
-2.59117e-06
-1.77374e-06
-1.16417e-06
6.33259e-06
9.59117e-07
-1.70541e-06
-3.95315e-06
3.60086e-06
1.31141e-06
1.24316e-06
-6.90172e-06
-2.54197e-06
4.97865e-06
-3.12976e-06
1.09811e-05
-3.05723e-08
-1.08063e-05
-1.44283e-07
-1.30467e-05
-9.38338e-06
3.34112e-05
-1.33184e-05
2.41099e-07
1.24512e-05
9.26159e-06
-3.25191e-05
1.32155e-05
-9.08597e-07
-7.68338e-06
1.15155e-05
-1.17402e-05
-3.64142e-06
-2.67271e-06
-4.85028e-06
1.11644e-05
1.18674e-06
-1.07651e-06
-3.75166e-06
-5.37897e-06
3.89301e-06
-3.13361e-06
6.54046e-06
-4.48335e-06
5.30899e-06
-1.21943e-05
-1.5806e-06
3.27078e-06
-1.65057e-06
-1.2087e-05
-1.25746e-05
-5.70111e-06
3.03627e-05
-9.75554e-06
-1.50499e-05
1.27185e-05
-2.30335e-05
7.0332e-07
8.92146e-06
1.05597e-05
-3.45311e-05
2.02196e-05
1.42034e-06
6.02928e-06
-1.85031e-05
2.05478e-05
4.02504e-06
-2.49539e-06
-3.77188e-06
2.24223e-06
-7.18352e-06
-3.00321e-08
1.12386e-05
-2.23927e-06
-7.43964e-06
7.34329e-06
2.87375e-07
-1.14025e-05
2.75783e-06
6.8277e-06
-4.65497e-06
7.38276e-06
-6.60687e-06
-6.43855e-07
-4.01235e-06
3.26323e-06
1.39298e-06
-2.38432e-06
2.44258e-06
-7.02114e-07
1.32317e-06
-7.71985e-06
-3.16954e-06
-2.21145e-06
7.82357e-06
-2.89571e-06
-9.75945e-07
1.85906e-06
-3.4316e-06
2.91083e-06
-7.16843e-06
-1.20066e-05
-8.55283e-06
2.77279e-05
4.47499e-07
-6.35218e-06
-1.26374e-06
-1.41658e-05
2.60673e-06
7.61317e-06
3.80676e-06
-1.77721e-05
9.25727e-06
-2.90784e-06
-1.20752e-05
1.27796e-05
-2.24343e-05
1.60385e-06
2.61946e-07
-1.18958e-06
-6.76224e-07
-3.43653e-06
-1.9646e-06
7.00498e-06
-3.10701e-06
-6.75764e-08
2.58098e-06
2.0901e-06
-5.86066e-06
2.85651e-06
-9.5175e-07
-2.27436e-06
3.16628e-06
-3.29127e-06
-6.28107e-07
-1.95767e-06
-3.10275e-06
5.68852e-06
-1.6118e-06
-3.34739e-06
4.33108e-06
-2.11155e-06
-1.45792e-06
9.40689e-07
3.1583e-06
-6.21054e-06
3.05154e-06
-3.56877e-06
5.36053e-07
-7.25138e-07
4.84844e-07
9.18872e-08
4.4533e-06
-6.60857e-07
-3.88433e-06
5.24367e-06
-6.22362e-06
1.07184e-06
-5.67921e-06
1.53762e-05
-2.37804e-06
6.05795e-06
-4.34077e-06
5.26851e-06
-1.15309e-05
7.97282e-07
-1.7524e-06
1.17602e-06
-2.27719e-06
2.18248e-06
3.15654e-06
-3.06183e-06
1.81024e-06
4.7938e-06
-8.88123e-06
4.72749e-06
-7.34762e-07
-2.83959e-06
-7.24516e-06
1.48122e-05
-5.81117e-06
2.23682e-06
1.76212e-06
-4.21349e-06
-8.92513e-07
1.47248e-05
1.00236e-06
-1.38147e-05
-1.91248e-06
-3.54714e-05
-9.88385e-06
6.008e-05
-1.59657e-06
-3.28724e-05
-4.94038e-05
5.70485e-05
-9.24125e-06
4.81109e-05
-0.000130387
7.64023e-06
2.6656e-05
5.48049e-05
-2.49858e-06
2.72421e-05
6.14192e-05
-9.11293e-06
0.000148741
7.78905e-06
-3.49732e-06
-1.18328e-05
7.54107e-06
-1.53286e-05
-9.15462e-06
3.22723e-05
-5.46909e-06
-1.33568e-05
-8.83214e-07
1.15244e-05
-1.61103e-05
1.63404e-05
-3.05804e-05
3.17233e-06
-8.02559e-07
7.67988e-06
-5.85558e-06
5.40513e-05
-4.85444e-06
-4.33412e-05
4.52248e-05
-5.1883e-05
-3.5718e-05
-4.99563e-05
2.17794e-05
-4.71309e-05
2.1115e-06
3.09528e-06
1.77647e-06
-6.98326e-06
2.4869e-07
1.92651e-06
-6.37069e-08
1.98151e-06
1.36246e-06
-1.74468e-06
-1.05642e-06
4.72761e-06
-3.39082e-06
1.58244e-06
1.9569e-06
-3.57125e-06
2.882e-06
-9.20265e-07
-2.3346e-06
1.05257e-06
2.2023e-06
-1.9771e-06
2.88173e-06
-1.8249e-06
2.14715e-06
-6.45886e-06
1.77403e-06
-3.93511e-06
3.21364e-06
-2.93091e-06
6.90724e-06
-1.89647e-06
1.84729e-06
-3.68442e-06
1.26871e-05
-3.57857e-07
-1.32492e-05
9.19914e-07
-1.09942e-05
-9.60254e-06
3.32839e-05
-5.42595e-07
-1.08095e-05
-1.20916e-05
1.33778e-05
-1.8288e-06
9.51037e-06
-3.24114e-05
-7.47359e-06
1.12488e-05
-1.12124e-05
6.97952e-06
8.77197e-06
9.49193e-06
-2.52434e-05
3.667e-06
1.13815e-05
-8.06902e-06
3.3339e-06
9.10508e-06
7.21088e-06
-1.25065e-05
8.62957e-06
-1.11759e-05
2.74918e-05
-4.1047e-06
4.31037e-06
-7.11932e-06
6.75741e-06
-7.11365e-06
-5.53402e-06
5.89026e-06
-2.04412e-05
3.53859e-06
2.366e-05
-1.94108e-06
-2.56138e-05
1.22726e-05
-3.08706e-06
-1.47196e-05
2.0485e-06
1.61144e-05
-1.15826e-05
1.71697e-05
-1.66108e-05
-3.27376e-06
-3.43542e-06
3.7585e-06
2.95069e-06
-1.2965e-06
6.37697e-06
-8.35424e-06
6.86783e-06
-1.15998e-05
-3.91751e-07
-6.51909e-06
1.06693e-05
-7.67105e-06
1.023e-05
3.61955e-07
-1.65604e-06
7.10698e-07
3.63591e-06
7.1405e-07
-4.23166e-06
-1.18296e-07
-1.98935e-06
-2.50582e-06
8.13108e-06
1.47949e-06
-2.75479e-06
-4.76138e-06
5.34606e-06
8.94811e-07
4.10604e-06
-1.16222e-05
-3.36385e-06
6.20409e-06
-3.48947e-06
3.19805e-06
-5.13301e-07
-1.84009e-06
-8.44652e-07
-3.17826e-06
-4.42127e-07
6.81844e-06
-6.0991e-07
-3.08166e-06
-5.93328e-06
2.2484e-06
3.07497e-06
-1.10172e-06
-7.91322e-06
-4.24025e-06
6.04653e-06
-7.18206e-06
-1.94451e-05
-6.41053e-06
4.12656e-06
2.17291e-05
6.65451e-06
-8.20407e-07
-2.52792e-05
-5.54974e-06
5.79371e-06
1.1019e-05
-4.33746e-06
-1.22312e-05
1.97874e-06
1.48339e-05
1.12345e-05
-1.63924e-05
1.73398e-05
1.07505e-05
1.36516e-05
8.45597e-06
-3.28581e-05
7.39007e-08
1.0566e-05
1.1062e-07
1.35503e-05
1.75163e-07
-1.33703e-05
-8.08835e-06
3.20247e-05
-1.32898e-05
3.0064e-08
1.05714e-05
-1.54052e-05
1.60334e-05
-1.23908e-05
-1.56477e-05
-9.16263e-06
3.72011e-05
-1.75586e-07
4.8605e-08
-1.22638e-05
-1.49675e-05
-8.55789e-07
-1.53136e-05
1.50809e-05
2.81259e-07
9.14007e-06
-3.67175e-05
1.17675e-05
-1.75949e-05
1.76858e-05
-9.72105e-06
5.89213e-07
9.9464e-06
-8.1457e-07
1.42372e-05
6.81847e-06
-3.07767e-05
1.292e-05
1.90643e-06
-1.24579e-05
-4.95992e-06
2.73642e-05
-1.07836e-05
-2.48883e-06
1.16755e-05
-1.56406e-05
1.96356e-05
-7.78483e-06
-1.67913e-05
-8.23173e-07
2.53993e-05
-4.38094e-06
-8.27546e-06
4.87157e-06
-8.08856e-06
-1.30837e-05
1.70311e-05
3.15524e-06
-2.84618e-05
7.85624e-06
1.40465e-05
1.29668e-05
-1.79001e-05
1.99998e-05
-2.30638e-05
-8.20008e-06
9.85161e-06
2.14123e-05
1.20941e-05
2.40056e-06
-3.75584e-05
-9.35761e-06
1.32516e-05
2.83363e-05
-9.13625e-06
-2.85577e-05
6.13723e-07
4.09742e-05
1.7993e-05
-2.47287e-05
2.84583e-05
-5.44182e-06
4.81795e-06
7.21525e-06
-6.59138e-06
1.35901e-05
-3.44946e-06
-1.55824e-05
2.39681e-06
1.60112e-05
-1.75296e-05
3.35027e-06
2.13946e-05
-1.78106e-06
-2.23399e-05
1.15092e-05
-1.67398e-05
1.72563e-05
-2.53812e-06
-3.05115e-06
2.45754e-06
3.13173e-06
2.37497e-07
5.06638e-06
-7.84199e-06
5.19106e-06
-8.00471e-06
3.32225e-07
-5.85565e-06
7.98097e-06
-5.94608e-06
9.41003e-06
7.13538e-07
-1.59324e-06
4.89492e-08
1.66874e-05
1.63444e-05
1.94651e-05
-5.24969e-05
1.2416e-07
-6.55449e-07
1.72187e-05
1.79041e-05
-1.43554e-06
2.09797e-05
-2.17005e-06
-2.10082e-05
5.92066e-05
-5.27419e-06
2.78806e-05
1.5607e-06
-7.3387e-07
-2.87074e-05
-3.43918e-05
-3.40624e-05
9.63348e-05
-3.44981e-05
1.66695e-06
-3.48645e-05
6.81633e-08
3.64518e-05
-0.000100024
2.02191e-06
2.21536e-05
9.04538e-07
-2.3174e-05
1.15838e-07
-1.5943e-05
-1.38735e-05
5.19701e-05
-1.6202e-05
1.1635e-06
1.77509e-05
1.03823e-05
-4.43352e-05
1.89734e-05
-5.89495e-08
-1.7238e-05
2.23379e-05
-3.00298e-05
-1.59315e-05
-1.43226e-05
-1.16935e-05
4.19476e-05
1.26588e-06
-1.40355e-05
-3.16186e-06
-1.39229e-05
8.66208e-07
1.56514e-05
6.98663e-06
-3.6561e-05
1.64587e-05
1.15794e-05
-1.86283e-05
1.63446e-05
1.13607e-06
1.91677e-06
2.96265e-07
-3.3491e-06
1.11951e-06
-4.85737e-07
5.02298e-07
9.9018e-07
2.0461e-06
9.27251e-07
-2.09264e-06
6.79652e-07
-1.15399e-06
2.58354e-06
-5.92317e-08
-1.04582e-07
-1.85561e-06
-1.24644e-06
-6.35384e-07
1.49227e-06
3.89559e-07
2.76552e-07
-7.1296e-07
-8.10034e-07
-4.7744e-08
-3.11089e-07
-1.39112e-06
-4.97526e-07
3.38091e-06
-7.35249e-07
-2.66309e-07
6.86864e-07
-2.13507e-06
1.41593e-07
-1.85665e-06
7.78347e-07
2.97893e-06
-1.90063e-06
2.4089e-06
4.10585e-07
-4.67614e-06
2.78789e-06
3.9936e-07
-2.34701e-06
-4.93453e-07
5.62836e-06
-2.40985e-07
-1.70667e-06
2.19402e-06
-2.02442e-06
4.67949e-06
-1.61713e-06
1.85172e-07
1.78042e-06
-3.48459e-07
6.27855e-07
2.44987e-06
-4.69486e-06
2.62694e-06
-1.81392e-06
-3.1062e-06
-2.50135e-06
7.38797e-06
-2.97612e-06
-4.78544e-07
4.61811e-07
-9.88056e-07
5.87403e-07
3.75564e-06
6.50121e-06
8.12468e-07
-1.10693e-05
2.838e-06
-2.89072e-06
3.80837e-06
3.14478e-06
6.19443e-06
8.09572e-06
-3.18244e-06
-7.80401e-06
-2.25001e-07
1.21291e-05
-5.01419e-06
7.93397e-06
-7.38416e-06
-2.77035e-07
-1.14892e-05
-1.3819e-07
1.19044e-05
-1.81444e-05
1.86272e-05
-7.5983e-07
1.00521e-05
-3.96857e-05
1.51243e-05
-1.49977e-05
-2.64794e-07
-4.73521e-06
3.17639e-05
-1.99402e-05
3.38323e-05
-2.48858e-05
-1.08473e-05
-9.67934e-06
-7.496e-06
2.80226e-05
-2.89643e-07
-1.23807e-05
1.82303e-06
-9.43808e-06
-5.309e-07
1.14123e-05
8.72457e-06
-2.95749e-05
1.32791e-05
-2.39777e-06
8.97938e-06
-1.26355e-05
1.47625e-05
2.68261e-06
5.98581e-06
7.45089e-06
-1.61193e-05
3.95107e-06
9.93095e-06
-1.11994e-05
6.47796e-06
3.45892e-06
-3.98286e-06
-9.37549e-06
1.98363e-05
-1.04123e-05
9.88831e-06
-3.41373e-06
3.96919e-06
-6.37509e-06
-4.62654e-06
8.74022e-08
3.8305e-06
7.08632e-07
3.5693e-06
2.70714e-06
-1.0903e-05
1.86928e-07
3.46977e-06
3.69197e-06
-3.87404e-06
3.69e-07
-2.55763e-06
9.71938e-06
2.75572e-06
-3.92262e-06
4.02859e-06
3.84939e-06
-5.93573e-06
5.61501e-06
-3.52867e-06
-1.33998e-05
-6.37355e-07
1.78866e-05
-7.39546e-06
-1.19401e-05
-6.26901e-06
2.30759e-06
9.57643e-06
-2.91832e-07
-9.50585e-06
-7.26774e-06
8.93798e-06
-1.4955e-05
6.19259e-06
1.43807e-05
-6.20257e-06
-1.43707e-05
6.40072e-06
5.90201e-06
-6.11015e-06
-1.3144e-07
2.09129e-05
-1.34088e-05
5.43451e-06
1.38763e-05
2.62326e-07
-1.97813e-05
-9.42481e-06
1.47279e-05
-1.53651e-05
1.4745e-05
9.42115e-06
9.41796e-06
-3.35841e-05
-6.59742e-07
1.41699e-05
1.23482e-06
8.99643e-06
-2.35022e-07
-9.12201e-06
-4.80419e-06
2.29226e-05
-9.31482e-06
-4.22154e-08
-8.26184e-06
1.76276e-05
-8.15869e-06
8.01056e-06
-5.47429e-08
-1.0185e-05
2.22918e-06
-8.73533e-06
-5.93599e-06
2.26819e-05
-6.17633e-07
-8.17244e-06
-8.47548e-06
1.07818e-05
-2.924e-06
9.30621e-06
-2.59541e-05
-5.67995e-06
1.05258e-05
-6.55873e-06
1.6525e-06
1.48185e-05
-5.03446e-06
-1.14365e-05
1.17309e-05
-1.05451e-05
4.66724e-07
-3.89055e-06
3.04399e-05
1.01001e-05
2.03669e-06
7.05765e-06
3.50916e-06
-7.79734e-06
1.09644e-05
-1.07951e-05
-1.39546e-06
-6.61266e-06
2.10045e-06
5.90767e-06
-3.62061e-06
-7.64052e-07
2.9892e-06
1.60676e-06
-1.184e-05
3.01329e-06
-2.47235e-06
-1.30499e-06
-3.01857e-07
6.30435e-06
-3.25949e-06
5.05807e-06
-4.12507e-06
-2.20637e-06
3.70891e-07
-1.2934e-07
1.96481e-06
3.37105e-06
1.53489e-06
-7.1123e-06
1.55651e-06
2.18543e-06
1.74929e-06
-3.33559e-06
1.45696e-06
-9.66811e-07
4.68092e-06
1.87899e-06
-3.6797e-06
2.46869e-06
-1.41454e-06
1.33936e-06
1.48007e-06
-1.40489e-06
3.54445e-06
-6.67683e-07
-4.29131e-06
4.74408e-07
4.4094e-06
-3.38992e-06
4.46817e-07
4.42317e-06
-5.858e-07
-4.20901e-06
2.32074e-06
-3.57422e-06
3.24196e-06
1.62301e-06
1.91511e-06
-1.46012e-06
-2.07799e-06
5.77737e-07
-3.31102e-06
4.3563e-06
-3.06588e-06
5.55872e-06
-8.97912e-07
2.9706e-06
-3.53281e-06
3.15855e-06
-6.13445e-06
5.00181e-07
-6.52659e-07
4.04899e-07
-1.69485e-06
2.78613e-06
1.52879e-06
-2.62007e-06
5.55059e-06
-1.49976e-06
-5.74567e-06
-1.3771e-07
8.47443e-06
-4.2987e-06
1.52753e-06
4.29996e-06
-6.14556e-08
-6.85732e-06
2.95824e-06
-4.51946e-06
4.34806e-06
1.16849e-05
3.32532e-08
-1.14868e-05
-2.31351e-07
-1.38743e-05
-9.66717e-06
3.52264e-05
-1.35864e-05
-2.54597e-07
1.3093e-05
9.68802e-06
-3.42678e-05
1.35796e-05
-7.18003e-07
-7.82248e-06
1.17349e-05
-1.17209e-05
8.40017e-06
8.56409e-06
3.45268e-07
-1.73095e-05
1.92405e-06
3.2291e-06
3.24702e-06
1.18819e-06
9.29995e-06
1.20054e-05
-5.53507e-06
-5.28214e-06
-7.28632e-06
2.85917e-05
-6.20968e-06
2.15246e-06
-1.13995e-05
1.28828e-05
2.70805e-05
-2.90481e-06
-3.70585e-05
1.35949e-05
1.20389e-05
-1.2751e-05
5.61068e-06
3.50647e-05
-3.36314e-05
4.2061e-06
4.14643e-05
-7.84471e-06
-3.85378e-05
-2.03637e-05
3.01805e-05
-3.11132e-05
-7.53997e-06
2.23812e-06
1.10932e-05
-5.79136e-06
8.08495e-06
5.87015e-06
-2.14951e-05
1.96419e-06
8.35887e-06
7.33295e-06
-1.0938e-05
5.56927e-06
-8.39595e-06
2.40878e-05
5.65368e-06
-1.07216e-05
8.35095e-06
1.12442e-05
3.09687e-05
1.57434e-05
-5.79563e-05
-1.416e-07
-1.53286e-06
1.29187e-05
3.1544e-05
-7.16866e-07
1.21011e-05
-1.24462e-05
-1.18777e-06
-5.42874e-06
3.04485e-05
6.02834e-06
-3.36902e-05
1.52157e-05
-2.33563e-05
2.39559e-05
-4.95797e-05
5.77674e-05
-6.75266e-05
1.49244e-05
-8.96487e-07
-3.26101e-05
7.7983e-05
-9.55071e-06
9.20477e-06
4.14923e-06
-9.9518e-06
-3.4022e-06
-1.0695e-05
-6.66544e-06
2.65653e-05
-1.08953e-05
4.34953e-06
1.07918e-05
1.21398e-05
-3.28834e-05
1.1328e-05
-3.93841e-06
-7.6157e-06
1.22782e-05
-6.37122e-06
-2.83234e-05
-6.83892e-06
2.39158e-05
1.12466e-05
2.51251e-05
-5.98198e-05
2.26357e-05
-1.83256e-05
1.78684e-05
-1.0085e-05
-3.3682e-07
1.2095e-05
-1.67317e-06
8.7116e-06
1.50244e-05
-3.38211e-05
1.10244e-06
7.27235e-06
4.88169e-06
-1.04004e-05
6.6211e-06
-6.65268e-06
1.88067e-05
8.30338e-07
3.79373e-06
6.27268e-06
-2.02753e-06
-2.00705e-07
2.34709e-06
-1.18857e-07
1.69379e-06
4.29856e-07
-4.15118e-06
1.50723e-06
-1.41473e-08
-2.77186e-06
1.2389e-07
4.99506e-06
-8.23739e-07
-2.06698e-06
1.6662e-06
-2.06008e-06
3.29732e-06
2.28948e-06
1.10822e-06
-2.65076e-06
-7.46933e-07
-1.76272e-06
-3.40174e-06
7.45393e-06
-4.72813e-06
4.07363e-06
2.49801e-06
3.90679e-06
-9.05557e-06
4.29723e-06
-2.54615e-06
-2.0752e-06
2.97069e-06
-2.89654e-06
2.78106e-06
5.7353e-07
-2.98439e-06
-3.70202e-07
-2.33316e-06
-3.12615e-06
8.24037e-06
-3.88703e-06
2.1274e-06
3.61609e-06
4.9008e-06
-1.15013e-05
4.77128e-06
-1.52539e-06
-9.4701e-07
2.59214e-06
6.67601e-08
5.22966e-07
-1.02037e-05
-6.17327e-07
1.02981e-05
-1.32555e-05
1.12625e-05
2.51597e-06
6.72519e-06
-3.01844e-05
1.32125e-05
-1.15047e-05
-2.32515e-06
-7.12786e-06
3.06385e-05
-9.16597e-06
1.33006e-05
-1.39455e-05
-7.23308e-06
-5.40792e-06
-4.82583e-06
1.74668e-05
-1.44029e-07
-1.97122e-06
-5.11784e-06
-3.0383e-06
-2.51365e-06
3.01023e-06
2.25799e-06
-8.30652e-06
1.11393e-05
-1.06427e-05
3.59135e-06
-3.30458e-06
9.9048e-06
-2.04202e-06
-3.62057e-06
2.12647e-06
3.53612e-06
-2.36995e-06
5.65953e-06
-5.3316e-06
5.92607e-06
-1.19166e-05
1.34814e-06
-4.97014e-06
5.74847e-06
-5.16632e-06
1.00506e-05
3.18153e-08
4.61403e-07
9.87746e-07
-6.70146e-06
-1.22465e-06
5.90424e-06
2.02187e-06
5.11739e-06
4.32125e-07
-1.2251e-05
-4.28663e-07
4.32141e-06
5.62956e-06
-2.63887e-06
-3.41936e-06
-2.21447e-06
1.21654e-05
3.47315e-06
-5.6799e-06
7.16292e-06
-3.52442e-05
-5.9769e-05
-2.68203e-05
0.000121834
1.98483e-06
-3.67259e-05
-5.03201e-07
-5.85956e-05
8.11483e-07
9.67586e-05
9.00172e-05
-0.000245371
9.13667e-05
6.20336e-06
-1.34404e-05
7.79868e-05
3.98509e-05
-1.31684e-06
1.20816e-05
-1.40859e-05
3.32111e-06
1.19716e-05
-1.27331e-05
-5.55383e-07
-6.45867e-06
3.05119e-05
1.84515e-05
9.19265e-06
-4.03772e-05
1.8359e-05
-4.62884e-07
1.72564e-05
-2.21496e-05
2.91567e-05
-1.6906e-06
-1.07828e-06
-3.70008e-07
3.13889e-06
3.6712e-07
-8.70128e-07
-1.18759e-06
-1.01146e-06
3.00304e-07
1.75213e-06
2.39715e-07
-3.00331e-06
1.00557e-06
1.04686e-06
1.14083e-06
-1.77124e-06
1.7764e-06
-1.30199e-06
-7.16106e-07
-4.38909e-07
2.457e-06
2.26331e-07
-4.47611e-07
-1.08071e-06
-6.16433e-07
1.26658e-07
6.43086e-07
-3.31128e-08
-1.22641e-06
5.62684e-07
2.07059e-07
5.51442e-07
-1.03217e-06
6.75217e-07
9.48114e-06
-1.34545e-06
-9.26156e-06
1.12587e-06
-1.39853e-05
-8.80498e-06
3.22715e-05
-1.03391e-05
-4.99171e-06
9.39921e-06
5.10468e-06
-2.37654e-05
7.38578e-06
3.13931e-06
-4.14432e-06
2.72512e-06
-9.37873e-06
-1.33014e-05
-4.11844e-05
1.23009e-05
4.21849e-05
-1.81499e-05
1.73081e-05
-1.24596e-05
-4.20306e-06
-5.51312e-05
-3.54388e-05
4.43912e-06
4.83078e-05
-9.27026e-06
-3.86282e-05
-3.06796e-05
4.74196e-05
-4.41529e-05
-4.40175e-06
3.84795e-06
1.19334e-05
-1.13796e-05
7.10382e-06
8.04919e-06
-1.95548e-05
3.21827e-06
7.7335e-06
3.99043e-06
-1.05664e-05
9.79421e-06
-1.31649e-05
2.48889e-05
1.70913e-06
-4.22632e-06
4.77579e-07
-9.43596e-06
-6.05826e-06
-1.39428e-06
1.68885e-05
4.13797e-06
-5.21276e-06
-8.36116e-06
4.10107e-06
-6.02136e-06
-1.2168e-05
5.40359e-06
1.08655e-05
1.35166e-07
-1.83245e-05
6.45655e-06
-1.15342e-05
1.04659e-05
-3.16881e-06
4.51166e-06
-1.08911e-05
9.54825e-06
7.03434e-06
-6.56688e-06
-3.63627e-06
-9.8818e-06
2.14278e-05
3.6674e-06
7.70635e-06
-1.79406e-05
9.97111e-06
-9.93998e-06
-3.27743e-06
3.36674e-06
-6.46217e-06
-2.19823e-06
-5.16451e-06
-6.32282e-06
1.36856e-05
-2.55562e-06
-6.4572e-06
6.81459e-06
-2.75847e-06
-4.96166e-06
-2.43841e-06
7.5574e-06
-7.87746e-06
6.73005e-06
-1.41301e-05
5.59789e-07
-2.86938e-07
1.79436e-06
-3.90882e-07
8.95307e-06
-3.54179e-07
-8.20801e-06
5.83052e-06
-8.80412e-07
-5.34099e-06
-1.7813e-06
1.65649e-05
-1.18814e-05
1.17293e-05
-2.0202e-07
4.43667e-06
-2.45261e-05
6.2901e-06
-2.73384e-06
1.62381e-05
-1.34006e-07
-1.65559e-05
2.75373e-07
1.64145e-05
-2.19257e-05
2.04058e-05
1.38589e-06
9.59987e-06
-4.80814e-05
2.27121e-05
-2.20902e-05
-3.46591e-07
-1.08535e-05
4.99801e-05
-2.25403e-05
3.20926e-05
-3.50306e-05
5.44636e-07
4.85627e-07
-4.15363e-07
-6.149e-07
6.00448e-08
-6.08972e-07
1.09356e-06
1.42894e-07
4.02777e-07
-5.21511e-07
-2.04528e-07
3.10676e-07
-2.42804e-07
-8.93608e-07
1.22627e-06
-2.07804e-06
1.16464e-06
-1.65874e-05
-5.41551e-07
1.68343e-05
2.94676e-07
1.37853e-05
1.05812e-05
-4.09539e-05
-3.47784e-07
1.35915e-05
1.82828e-05
-1.88235e-05
1.92934e-07
-1.0924e-05
4.27983e-05
1.45139e-05
-2.27562e-05
2.04242e-05
1.64298e-07
-1.88175e-05
1.93696e-05
-7.16468e-07
-1.52361e-05
1.53376e-05
6.28427e-08
1.14518e-05
-4.55054e-05
-1.91826e-05
-1.1549e-05
4.60692e-05
-1.93962e-05
2.76446e-07
-1.56042e-05
2.34248e-05
-2.35486e-05
-1.00453e-05
6.57618e-07
1.09664e-05
-1.57875e-06
8.40358e-06
7.68767e-06
-2.61366e-05
9.15978e-07
8.14522e-06
9.19156e-06
-1.14699e-05
3.19429e-06
-7.47959e-06
2.48164e-05
7.4566e-06
-1.12388e-05
1.09435e-05
1.98567e-05
3.24458e-06
-1.48355e-05
-8.26574e-06
-1.32044e-05
-6.44735e-06
3.95084e-05
-1.30221e-05
3.06227e-06
1.96763e-05
6.82905e-06
-3.95274e-05
1.44238e-05
8.31476e-06
-1.52085e-05
2.31849e-05
-2.3215e-05
1.53437e-06
3.16217e-06
6.15008e-06
-1.08466e-05
2.87192e-06
3.44365e-06
-4.7812e-06
2.38018e-06
3.65391e-06
-2.79993e-07
-4.36038e-06
7.02055e-06
-7.82324e-06
1.11972e-05
-2.21843e-06
1.3017e-06
-3.89159e-06
-3.79003e-05
2.58354e-06
3.80053e-05
-2.68851e-06
3.26068e-05
1.80363e-05
-8.85434e-05
3.35506e-05
1.63967e-06
-6.62588e-05
-5.11327e-05
0.000155397
-6.23296e-05
-6.61766e-06
2.66551e-05
-7.09484e-05
9.07311e-06
-6.28672e-07
5.3673e-05
-5.14046e-05
4.30791e-05
-3.89348e-05
-4.773e-06
0.000105825
5.12125e-05
-0.000191161
-5.86706e-05
6.34774e-05
-6.90046e-06
-5.74906e-05
9.13653e-07
-4.63475e-05
-1.92196e-05
0.000129044
-4.73468e-05
-5.90115e-06
0.00011103
9.47473e-05
-0.000263267
0.000117009
-5.06588e-06
-4.95916e-05
0.000147381
-2.19108e-06
5.6547e-05
-1.31638e-05
-4.92844e-05
-5.97799e-05
-4.1425e-05
5.26171e-05
-2.43558e-05
-9.29005e-05
0.000140218
-7.2648e-05
-3.8651e-05
-7.82951e-05
0.000189594
-6.96751e-07
-0.000107602
3.56505e-05
0.000171651
-0.000201266
0.000215189
-5.13401e-07
-3.07895e-07
6.61841e-07
1.59455e-07
1.10372e-07
4.01238e-07
-1.02501e-06
7.87169e-07
-9.84693e-07
-5.9587e-07
-9.51001e-07
2.20871e-06
-6.47445e-07
2.1103e-07
2.15628e-08
-2.6777e-07
-1.42269e-07
-8.06104e-08
2.32623e-06
-2.33821e-06
9.25859e-08
2.38851e-06
-3.25162e-06
7.82499e-07
-3.0121e-06
7.72684e-06
2.45889e-06
2.34916e-06
-7.14625e-06
4.10482e-06
-1.55335e-06
8.87844e-07
-1.7903e-06
1.98057e-06
6.50086e-06
-1.07457e-06
-6.19004e-06
7.63753e-07
-8.97285e-06
-2.33058e-06
1.78043e-05
-6.27496e-06
-3.77247e-06
1.00462e-05
3.35641e-06
-1.95926e-05
7.76477e-06
3.04514e-06
-8.25025e-06
1.36844e-05
-1.11688e-05
-6.65694e-06
-6.18339e-06
-5.14285e-06
1.79832e-05
1.58738e-06
-1.8441e-06
-6.40022e-06
-8.36847e-06
-6.80139e-06
1.08419e-05
-5.88462e-06
7.30009e-06
-2.05017e-05
6.60641e-06
-7.67479e-06
1.23055e-05
-1.72263e-06
-3.40344e-06
-3.79352e-07
5.50542e-06
-1.86089e-06
-2.07339e-06
2.21165e-06
-3.06221e-06
-2.20212e-06
3.83735e-06
4.36636e-07
-6.34738e-06
8.62618e-07
5.18638e-06
2.18637e-06
-4.81194e-06
2.66964e-06
1.31353e-06
6.88027e-06
-1.38559e-06
-6.80821e-06
4.99778e-06
7.06559e-07
-4.39081e-06
-9.69167e-07
1.28472e-05
-6.35119e-06
2.22233e-06
4.83542e-06
-9.24372e-07
-9.81762e-06
-4.25369e-06
5.50685e-06
-6.56365e-06
6.74222e-06
3.2674e-07
-8.87496e-06
1.80599e-06
-1.06583e-05
-5.22643e-06
2.26269e-05
-1.01251e-05
-2.06436e-07
1.40866e-05
5.81726e-06
-2.87788e-05
9.33726e-06
6.55529e-06
-1.03003e-05
1.44111e-05
-1.46081e-05
-1.06057e-05
7.78997e-06
2.65433e-05
-2.37276e-05
1.79083e-05
2.57647e-05
-5.42787e-05
8.55784e-06
1.71405e-05
1.0198e-05
-2.90719e-05
2.74317e-05
-2.40266e-05
5.13652e-05
5.56678e-06
-8.87392e-06
8.08343e-06
3.88317e-06
2.8726e-07
-1.86161e-06
-2.30882e-06
-1.26537e-05
-1.52835e-06
1.80652e-05
1.34702e-06
-1.37134e-05
-1.67576e-06
-2.8532e-06
2.66734e-06
-2.30715e-06
-1.67742e-06
9.05413e-07
-4.74091e-06
-6.00763e-07
2.60902e-06
-3.23113e-06
3.28945e-06
-1.36472e-06
2.29632e-06
3.70366e-06
-7.53555e-06
3.51286e-06
3.48025e-06
-2.59278e-06
3.92193e-07
3.43514e-06
4.92546e-06
-8.75279e-06
2.45111e-06
5.2039e-06
-7.26282e-06
2.48277e-06
3.40348e-06
4.71824e-07
-5.87329e-06
7.88423e-06
-5.76014e-06
9.63544e-06
3.66629e-07
-9.22859e-07
-5.812e-07
-9.23103e-06
-2.66999e-06
5.23463e-06
6.6664e-06
4.94536e-06
6.20517e-06
-2.03816e-05
-6.71101e-07
2.94647e-06
6.36633e-06
-7.66241e-06
6.24976e-07
-1.40782e-06
1.07206e-05
6.73214e-06
-8.18938e-06
1.05589e-05
-1.101e-06
-1.34612e-06
-2.50499e-06
4.95211e-06
-6.43014e-07
-2.26345e-06
1.80546e-06
-1.53844e-06
-4.50688e-07
1.56246e-06
2.6537e-06
-5.7546e-06
3.16631e-06
-2.05454e-06
1.41955e-06
-1.0293e-06
2.08087e-06
2.12752e-06
-1.74617e-05
1.68734e-05
-1.53926e-06
-2.26253e-05
2.1025e-05
3.72773e-06
1.44865e-05
-5.45735e-05
-2.05585e-05
-1.43643e-05
5.17963e-05
-2.03005e-05
-1.79728e-06
-1.12112e-05
1.7872e-05
-1.70252e-05
-4.10707e-07
1.81991e-07
5.77901e-07
-3.49184e-07
3.71105e-07
1.55947e-06
-2.34129e-06
6.44702e-07
-9.16076e-08
-5.78304e-07
-7.01647e-07
1.92465e-06
-5.60943e-07
-1.08969e-07
-4.19875e-07
1.2777e-06
-4.02917e-07
-1.72987e-05
-1.58466e-05
-1.17947e-05
4.494e-05
-7.74798e-08
-1.54695e-05
-1.75175e-06
-1.56949e-05
-2.29135e-07
1.84605e-05
1.10243e-05
-4.51797e-05
1.8304e-05
-7.26172e-08
1.13452e-05
-1.57904e-05
1.78545e-05
1.37473e-05
5.64656e-07
-1.37322e-05
-5.79749e-07
-1.47683e-05
-1.13719e-05
3.98875e-05
-1.61336e-05
1.92997e-06
1.52002e-05
1.27875e-05
-4.17199e-05
1.69116e-05
-2.29121e-06
-8.86017e-06
1.44e-05
-1.22063e-05
-1.50381e-05
-8.77949e-06
-2.8058e-06
2.66234e-05
3.64287e-06
-8.27738e-06
-1.04036e-05
-7.92488e-06
2.78825e-06
1.19223e-05
3.99577e-06
-2.38429e-05
9.27961e-06
5.43089e-06
9.77799e-06
-1.40596e-05
1.62518e-05
2.21842e-06
-3.41116e-06
-1.71275e-06
2.90549e-06
-6.63632e-06
2.48725e-06
6.36748e-06
2.37183e-06
-1.24193e-05
5.24528e-06
-5.43314e-06
-1.52489e-06
-6.62808e-07
8.81358e-06
-2.97778e-06
4.80223e-06
-6.0391e-06
-2.794e-05
1.35021e-06
2.7671e-05
-1.08118e-06
2.5418e-05
1.45039e-05
-6.78619e-05
2.54647e-05
1.30349e-06
-4.41686e-05
-3.43511e-05
0.000106191
-4.1169e-05
-4.08082e-06
1.86412e-05
-4.53063e-05
9.75486e-06
-4.07079e-07
4.28131e-05
-4.11026e-05
3.23341e-05
-3.04028e-05
-2.33844e-06
8.49021e-05
4.19459e-05
-0.00015091
-3.37631e-05
3.158e-07
8.48171e-06
8.0252e-07
-9.60003e-06
1.05387e-05
-9.90331e-06
-3.19573e-07
-4.67178e-06
2.36922e-05
-1.3906e-05
1.1478e-05
3.23053e-06
7.69864e-06
-3.12047e-05
9.71126e-06
-1.19159e-05
1.65175e-05
-9.89999e-07
-4.51716e-06
1.17846e-06
4.3287e-06
-4.1662e-06
6.61297e-06
-3.43677e-06
4.95417e-06
-1.36375e-05
4.82692e-06
-8.14968e-06
4.50122e-06
-5.79647e-06
1.49521e-05
-4.36788e-06
5.18438e-06
-7.56339e-06
-5.34804e-07
-2.72783e-06
6.25076e-07
2.63756e-06
-2.65642e-06
4.09564e-06
-1.97403e-06
3.58233e-06
-8.96658e-06
2.38589e-06
-4.36306e-06
2.60225e-06
-3.15006e-06
8.17351e-06
-1.82194e-06
2.76753e-06
-2.60267e-06
1.07576e-07
2.39927e-06
-2.27598e-06
-2.30869e-07
3.4158e-06
-3.47538e-06
1.67162e-07
-3.91256e-06
-4.69985e-06
9.00437e-07
-6.65179e-06
-2.87186e-06
-1.27156e-06
-6.67127e-06
-7.75603e-07
-1.1841e-06
-1.01631e-07
2.06133e-06
2.69376e-07
-6.40128e-07
-4.04851e-07
2.52615e-07
-1.16734e-06
1.19337e-06
-1.25995e-06
-5.73547e-07
-1.89066e-06
2.98239e-06
-2.9096e-06
-5.33689e-06
-2.12363e-06
-3.17727e-06
-1.56997e-06
-9.58516e-07
-5.32078e-06
-1.24056e-05
-1.02183e-05
-1.05108e-05
3.31347e-05
-3.51448e-07
-1.30001e-05
9.45986e-07
-1.00226e-05
-5.47195e-07
9.75264e-06
7.629e-06
-2.74042e-05
1.06494e-05
-1.444e-06
5.51183e-06
-1.08829e-05
5.65044e-06
5.16651e-06
-1.00049e-07
-7.01371e-06
1.94725e-06
-4.92615e-06
-4.64974e-06
1.47424e-05
-1.90269e-07
-4.83593e-06
-5.25863e-06
6.38642e-06
-1.31807e-06
3.73298e-06
-1.38275e-05
-3.95625e-06
5.69294e-06
-7.23698e-06
1.73507e-06
5.90114e-06
-1.95265e-06
-5.68355e-06
4.95638e-06
-8.02913e-06
4.80782e-06
-6.82121e-06
1.76787e-05
-4.54322e-06
8.17703e-06
-5.58646e-06
6.1867e-06
-1.64135e-05
3.16959e-06
-5.01203e-06
4.52541e-06
3.87537e-06
1.39818e-05
-4.76696e-06
-1.30902e-05
8.14268e-06
3.15116e-06
-7.41847e-06
-1.6729e-06
2.37974e-05
-1.21664e-05
4.93754e-06
1.038e-05
5.17845e-07
-2.01027e-05
-7.52465e-06
1.07893e-05
-1.17738e-05
-2.11308e-06
-2.78253e-06
-1.89201e-06
6.78762e-06
-2.98043e-07
-2.53164e-06
7.16602e-07
-2.30265e-06
-7.77928e-07
1.46358e-06
2.73749e-06
-6.50372e-06
2.11099e-06
-1.42534e-06
1.22313e-06
-1.01728e-06
1.44211e-06
-7.23783e-06
8.25147e-06
1.07855e-05
-1.17991e-05
1.615e-05
-1.01233e-05
-1.32645e-05
5.04565e-07
2.38969e-05
-2.91278e-05
5.54917e-06
3.43641e-05
-3.20469e-07
-4.06064e-05
1.64817e-05
-2.69255e-05
2.25355e-05
7.90596e-06
4.32289e-06
6.07827e-06
-1.83071e-05
-8.77959e-07
1.53548e-06
7.24844e-06
2.03384e-06
1.41109e-06
1.20607e-06
4.31166e-06
-3.48389e-06
-1.55021e-08
2.63267e-06
-5.11684e-07
6.35882e-06
5.55109e-06
3.83509e-05
1.91802e-05
-1.42456e-06
-5.61065e-05
-1.05377e-05
1.63701e-05
3.25185e-05
1.97673e-05
-1.11248e-05
-3.81768e-05
-8.58399e-08
5.80299e-05
-1.54691e-05
-3.38325e-05
-3.29601e-05
4.92444e-05
-4.98539e-05
-5.32649e-06
6.74479e-06
1.74144e-05
-1.88327e-05
1.09388e-05
1.16846e-05
-2.79499e-05
4.68983e-06
1.29938e-05
8.10554e-06
-1.30819e-05
9.66617e-06
-1.78937e-05
3.8993e-05
2.0895e-06
-3.48674e-06
1.61016e-06
1.74116e-05
-3.61088e-07
-1.8196e-05
1.14553e-06
-1.91333e-05
-1.55246e-05
5.20695e-05
-2.13824e-05
1.88801e-06
1.85427e-05
1.61887e-05
-5.29275e-05
2.11502e-05
-1.46201e-06
-9.50138e-06
1.5127e-05
-1.4695e-05
-1.11658e-05
1.81478e-08
1.10319e-05
1.15746e-07
2.43783e-05
7.26801e-06
-4.28121e-05
2.43313e-05
6.51349e-08
-4.12358e-05
-3.49884e-05
0.000100555
-3.95369e-05
-1.63379e-06
-6.7836e-06
-1.71729e-05
-3.90524e-05
1.10897e-05
-2.01001e-07
-1.11437e-05
2.54987e-07
-1.98994e-05
-6.89829e-06
3.78874e-05
-1.93167e-05
-7.83731e-07
7.42272e-06
-4.00157e-05
2.14493e-05
-3.93402e-05
3.98647e-05
3.93189e-05
-9.86513e-05
-8.05007e-07
1.65612e-05
3.93266e-05
-9.86999e-05
-4.95928e-07
-2.21795e-07
-6.44885e-06
2.38652e-07
6.08068e-06
1.29515e-07
8.59612e-06
3.31041e-06
-1.83554e-05
9.95632e-06
-1.12154e-06
-4.55627e-06
-4.48619e-06
1.51231e-05
-3.62504e-06
-8.01713e-07
4.73726e-06
-5.05189e-06
1.02074e-05
-1.33878e-05
-1.34698e-05
-8.74198e-06
3.55996e-05
-7.26027e-08
-1.36137e-05
2.98528e-07
-1.34366e-05
-1.05751e-07
1.80597e-05
1.35912e-05
-4.50876e-05
1.85358e-05
-5.81831e-07
9.65637e-06
-9.67884e-06
1.94502e-05
1.66157e-05
2.04268e-05
1.22914e-05
-4.93339e-05
6.82276e-07
1.69572e-05
-1.02378e-06
1.98334e-05
1.27564e-06
-2.05122e-05
-1.26038e-05
5.00732e-05
-1.95641e-05
-1.97187e-06
1.40108e-05
-2.12835e-05
2.12405e-05
1.45398e-05
1.74325e-05
8.7348e-06
-4.0707e-05
-7.65473e-08
-5.75464e-07
1.51918e-05
1.64161e-05
9.39829e-07
1.94148e-05
-1.63898e-05
-3.60047e-06
-1.03703e-05
4.49769e-05
-1.33673e-05
1.94131e-05
-2.10223e-05
5.46474e-06
4.78191e-06
-4.86971e-06
-5.37694e-06
-2.56224e-06
-6.86942e-06
1.48964e-05
-1.0644e-05
1.28637e-05
-2.45763e-06
8.5411e-06
-1.09532e-05
6.11875e-06
-1.39533e-05
-2.19937e-06
1.4487e-06
-4.30229e-06
-1.48467e-05
-3.56951e-05
-1.01148e-05
6.06566e-05
5.98899e-07
-1.37884e-05
-1.65719e-06
-3.31111e-05
-1.98513e-06
-8.18227e-06
-5.82867e-05
5.63542e-05
-4.92803e-05
2.73096e-05
5.18173e-05
-0.000134209
-8.45454e-06
2.72918e-05
-1.6393e-06
-6.29621e-05
-8.24722e-06
4.83033e-06
-3.24087e-07
-6.39871e-06
1.89247e-06