/*--------------------------------*- C++ -*----------------------------------*\
| =========                 |                                                 |
| \\      /  F ield         | OpenFOAM: The Open Source CFD Toolbox           |
|  \\    /   O peration     | Version:  v2012                                 |
|   \\  /    A nd           | Website:  www.openfoam.com                      |
|    \\/     M anipulation  |                                                 |
\*---------------------------------------------------------------------------*/
FoamFile
{
    version     2.0;
    format      ascii;
    class       surfaceScalarField;
    location    "0.25";
    object      alphaPhi0.water;
}
// * * * * * * * * * * * * * * * * * * * * * * * * * * * * * * * * * * * * * //

dimensions      [0 3 -1 0 0 0 0];
oriented        oriented;


internalField   nonuniform List<scalar> 
13152
(
1.01095e-06
2.03112e-05
-1.67808e-06
-1.9644e-05
1.87369e-05
-1.70933e-05
-6.32666e-07
-3.46773e-06
4.25158e-05
-3.4647e-05
3.54318e-05
-2.46288e-06
2.12137e-05
-7.55048e-05
2.85328e-05
-2.44124e-05
6.04969e-05
-1.60939e-05
-2.95467e-05
-2.8438e-05
7.40786e-05
3.87223e-07
-1.67723e-05
2.91223e-07
-2.99193e-05
7.59756e-07
7.84326e-06
5.15662e-06
-2.97722e-05
7.8098e-06
3.24677e-07
-5.08294e-06
-1.55452e-05
-2.98456e-05
-8.6501e-06
-1.46166e-05
-5.13287e-06
2.83996e-05
-7.63499e-08
-8.66387e-06
9.01115e-08
-1.41427e-05
-5.50285e-07
5.66933e-06
-3.05648e-05
1.62316e-05
-2.9313e-05
2.98495e-05
2.93711e-05
-4.92213e-07
3.73835e-08
-1.52579e-05
-2.99159e-05
1.07669e-07
-7.4946e-05
3.32498e-07
1.59892e-05
3.02057e-05
-2.37306e-08
7.45945e-05
3.57833e-05
1.26638e-05
2.54096e-05
-7.38567e-05
3.78353e-07
-7.36418e-07
3.61414e-05
1.24094e-05
2.60823e-07
-1.87463e-05
7.36716e-05
7.78919e-05
2.91827e-05
-7.32946e-07
-2.93949e-05
9.45109e-07
-1.64198e-05
-2.68944e-05
7.24969e-05
1.70203e-07
-1.73229e-05
-8.07952e-06
8.0128e-06
2.36925e-07
5.30267e-06
-3.07051e-05
-4.97037e-06
-1.39112e-05
-2.90626e-05
-1.38021e-05
1.2774e-07
2.91644e-05
2.29612e-07
6.28717e-07
-7.90797e-07
-8.74317e-06
8.40625e-06
-7.6708e-07
-5.36934e-06
3.91742e-06
-1.63337e-06
-1.20921e-07
-6.46444e-06
-5.35503e-06
6.45023e-06
-2.32935e-06
-1.28782e-05
1.06724e-06
2.55629e-07
-2.95623e-06
1.02492e-06
-7.93559e-08
-1.64611e-06
-2.68409e-06
-3.71983e-06
-8.01593e-61
8.65669e-60
-4.64667e-60
-7.82052e-60
3.21702e-59
-2.02171e-59
-1.89041e-59
-1.80706e-57
-4.86337e-58
4.29291e-60
5.81548e-60
-3.68875e-59
2.14726e-63
-5.46166e-62
-5.3026e-58
-1.56152e-64
-1.07888e-57
-4.13448e-56
-1.70339e-55
-9.10659e-57
1.21921e-55
-3.70524e-58
-1.03584e-55
-6.81801e-56
-1.12378e-55
4.60058e-58
1.0747e-54
2.72649e-55
-1.89265e-54
1.32699e-55
4.96752e-55
-1.95709e-55
1.86712e-55
-1.63899e-55
5.64076e-49
5.55138e-49
4.25639e-49
-1.71902e-48
-1.33809e-51
2.70135e-49
1.0574e-50
2.08273e-49
-2.66519e-51
-1.54283e-50
1.64679e-49
9.62362e-51
4.3516e-49
-3.08328e-49
-4.66537e-49
6.66446e-49
-5.80449e-50
-6.02941e-11
-7.22374e-11
4.41636e-11
9.78704e-11
-5.49325e-11
-5.22935e-13
-2.08606e-11
-1.05657e-11
5.09549e-12
-9.30623e-11
-1.33412e-11
9.44221e-11
8.30771e-11
-1.45023e-10
5.76943e-10
-5.46195e-10
5.57007e-10
1.39615e-10
-1.84342e-14
-2.51164e-12
1.02978e-10
-6.56034e-14
3.3826e-11
2.25076e-10
-7.93012e-15
-6.19657e-14
3.1941e-11
-2.67039e-14
-3.43117e-11
4.34121e-12
2.05305e-10
-6.85047e-13
5.30731e-11
-7.10143e-13
3.63198e-05
1.55828e-05
-2.89009e-06
-4.90101e-05
-1.11271e-05
1.31228e-05
3.38732e-05
1.39156e-05
-1.05291e-05
-3.24217e-05
2.71578e-06
4.33537e-05
-1.35699e-05
-2.93723e-05
-3.46976e-05
5.0403e-05
-5.11517e-05
-6.66029e-06
-1.72867e-05
1.10118e-06
2.27139e-05
-5.98456e-06
8.53046e-06
-9.33283e-06
-1.03292e-05
-1.29426e-05
-2.52992e-05
6.10989e-06
2.77229e-05
-1.55077e-06
-3.30853e-05
2.08978e-05
-3.27948e-05
2.80849e-05
2.07903e-06
3.57342e-08
-2.62156e-06
5.06897e-07
-4.89235e-06
-9.17283e-07
7.89e-06
8.03726e-07
-5.66031e-06
-2.07095e-06
-6.60345e-06
7.76015e-06
-9.69223e-06
5.00014e-06
-1.11108e-05
5.30037e-06
-2.64752e-05
2.87746e-06
2.6381e-06
4.14758e-06
-9.66315e-06
7.24736e-07
-2.03482e-07
2.35621e-06
1.11701e-06
2.24583e-06
2.31341e-06
1.63065e-06
3.19447e-07
3.11097e-06
4.92148e-06
-1.38089e-83
6.66244e-23
-1.19953e-35
7.93395e-24
1.20071e-82
1.22535e-83
1.88538e-83
3.83286e-26
6.65861e-23
-3.11469e-82
-1.24718e-81
-1.76905e-81
-8.24422e-83
-1.70278e-82
-1.07468e-34
3.83286e-26
1.86583e-81
1.77675e-05
1.15126e-06
-1.59595e-05
-1.0043e-10
-2.18634e-05
-2.49153e-05
6.65266e-05
2.40768e-06
-1.99339e-05
-2.30506e-05
2.54519e-05
1.59341e-06
1.74432e-05
-6.31653e-05
-1.16998e-06
1.70984e-06
-3.69551e-09
-2.7321e-69
-4.64782e-68
-4.47048e-69
-7.58637e-68
-3.37762e-68
-2.20497e-68
5.26567e-68
2.72302e-67
3.12048e-67
9.92992e-31
1.71361e-32
-1.01022e-30
-5.5278e-34
9.63076e-31
3.89024e-32
1.05786e-33
3.83496e-32
2.07088e-12
1.01885e-12
-7.1512e-13
-2.7962e-13
4.89983e-13
-5.22284e-12
7.72344e-12
-1.83347e-12
4.00592e-12
1.88599e-13
1.55085e-13
-1.02303e-12
4.21724e-12
-4.70273e-12
2.62712e-12
-2.54354e-12
1.04571e-12
1.34223e-14
1.18523e-13
-1.87982e-13
1.07051e-13
2.43586e-13
-3.14301e-13
3.71648e-14
-2.31496e-13
5.8492e-13
2.06017e-13
1.47619e-13
-2.65977e-12
1.69606e-13
5.33536e-14
3.25117e-14
-7.49664e-14
1.77293e-14
1.13543e-11
7.62571e-12
6.86308e-12
-2.23497e-11
2.28825e-12
-1.71873e-12
6.41267e-12
6.49293e-12
4.42393e-12
1.31489e-11
-1.61538e-11
-1.88735e-12
-1.23515e-12
1.66455e-11
-2.13718e-11
1.96256e-11
-2.80375e-11
-8.42839e-12
-5.05297e-12
8.21627e-13
1.22057e-11
7.22973e-13
-3.20623e-12
-5.28035e-12
-5.67035e-12
1.38991e-12
-2.14529e-12
-1.02768e-12
3.86732e-12
-5.79262e-13
-5.47366e-12
1.29701e-11
-4.88182e-12
-1.30745e-11
5.94814e-12
9.10579e-12
3.66752e-12
-8.93314e-12
8.78341e-12
-3.42154e-12
-2.21672e-12
3.38457e-12
7.57826e-12
-3.93781e-12
1.18923e-11
-8.62475e-12
2.80295e-12
-9.12584e-12
4.9858e-12
-5.35334e-12
-4.26785e-12
1.56477e-11
-4.66428e-12
1.00338e-11
-7.18337e-12
-4.60373e-12
-1.36728e-12
3.07472e-12
3.0878e-12
1.34394e-12
5.00554e-13
-8.45622e-12
9.96178e-13
-8.32112e-13
-6.6502e-12
1.72573e-12
7.85041e-12
1.81095e-12
-7.57968e-12
-6.4114e-12
9.28416e-13
7.56169e-12
-5.25158e-12
-1.75157e-12
9.37577e-12
-1.24371e-11
1.17577e-11
-1.27915e-13
-1.54682e-14
1.63756e-13
5.69652e-14
7.47816e-14
7.63672e-15
-2.02899e-13
-4.40254e-15
1.18991e-13
-1.3841e-14
2.1746e-14
1.80561e-13
8.21493e-15
-1.23253e-14
3.36913e-14
-3.52601e-14
-1.65298e-15
-6.84939e-15
1.77003e-13
-1.19604e-14
3.2117e-14
-3.72646e-14
-5.67094e-16
-2.52145e-14
3.13268e-14
1.21107e-15
-2.58622e-14
-7.60825e-15
3.4631e-14
2.79643e-14
-7.85598e-14
8.75282e-14
-4.98327e-14
-1.3423e-14
-3.46965e-14
-2.51429e-16
-1.87452e-14
-9.94015e-16
1.49174e-16
-8.16628e-16
-1.34639e-16
2.2552e-15
-1.01846e-15
1.26624e-15
2.90917e-16
8.88726e-16
-2.37742e-15
1.80738e-15
-1.3202e-15
-1.96076e-16
-1.86768e-15
7.01918e-15
2.7043e-17
7.4207e-17
3.80232e-17
-3.96102e-19
-2.84048e-21
4.99579e-19
1.11334e-20
6.16718e-19
3.56931e-18
-4.52956e-18
6.13896e-19
-4.35816e-22
-1.93934e-15
-1.98063e-16
-8.10109e-16
-8.70955e-18
6.80542e-16
-1.42939e-15
5.12384e-16
2.1321e-26
2.03852e-26
3.43531e-26
-6.16077e-26
-4.02388e-29
2.87173e-26
7.6739e-27
4.08804e-26
3.09062e-28
-2.20028e-25
-2.82685e-26
3.02315e-25
-4.43132e-25
2.34361e-25
2.19736e-26
-4.20541e-25
3.6055e-26
-8.13747e-14
4.02084e-15
1.98886e-13
-1.3032e-13
1.44157e-13
4.3821e-14
-3.05534e-13
1.37959e-13
4.3677e-15
-6.27029e-13
-5.27338e-14
8.26189e-13
-6.10442e-13
-5.36195e-13
8.19392e-13
-1.40758e-12
8.09842e-13
-1.37522e-13
1.13347e-13
3.40465e-13
-3.5076e-13
2.80959e-13
3.32819e-13
5.6605e-13
1.29325e-13
-1.7712e-13
3.75792e-13
1.79948e-13
6.73607e-13
-3.90344e-13
-4.8828e-13
1.96662e-12
1.06027e-13
1.69131e-12
-4.7127e-14
-5.22939e-13
2.22499e-15
-2.10999e-12
-3.49066e-13
4.865e-12
-9.72811e-13
-6.69788e-14
1.19672e-12
1.90088e-13
-1.85296e-12
1.05485e-12
-1.31087e-12
1.93147e-12
-2.17538e-12
-8.15625e-13
8.45076e-12
-2.18679e-11
1.37766e-11
9.79516e-12
-3.30223e-13
-6.76818e-12
-8.02769e-12
2.90026e-11
-3.01563e-12
4.43815e-12
-3.118e-13
1.84167e-11
-2.47249e-11
1.00428e-12
-3.02461e-12
9.07953e-13
3.17412e-12
6.85837e-12
-7.53e-12
-7.03207e-12
1.0215e-12
-3.3967e-12
-7.66088e-12
1.38509e-11
1.87996e-12
1.96469e-11
-3.22764e-11
5.22858e-12
-9.76408e-12
1.27059e-12
9.39996e-12
6.83492e-12
1.67008e-12
4.41138e-12
-5.36384e-13
-1.92078e-12
-6.05673e-13
-6.65118e-13
6.05131e-12
-3.9331e-12
-4.59187e-14
1.40251e-11
-8.23547e-12
-8.86978e-12
3.36518e-11
3.06974e-12
7.74533e-12
9.46938e-12
-1.50932e-12
9.23618e-13
5.54666e-12
7.52824e-12
3.75227e-11
-1.43447e-11
-2.5473e-11
4.98497e-12
-7.26808e-11
-5.06629e-12
1.16171e-10
-1.49003e-11
-5.26628e-11
5.44965e-11
4.37677e-12
-4.27427e-11
6.47697e-11
2.84187e-12
-2.63913e-11
9.23029e-11
-1.97978e-11
-1.28935e-06
4.30778e-07
6.6352e-07
1.95051e-07
2.43115e-06
1.30254e-07
-3.85076e-06
1.04813e-06
1.8138e-06
-5.34807e-07
1.04106e-06
1.5727e-07
1.72675e-06
-2.1313e-06
-7.63744e-07
-4.25835e-06
6.07023e-06
-1.80863e-06
2.85868e-06
3.12489e-07
-2.84409e-06
-4.55083e-07
-5.92197e-07
1.04464e-06
4.53637e-07
-9.07235e-07
6.95604e-07
-5.66548e-07
-7.1945e-07
9.7733e-07
7.63688e-07
1.56548e-06
1.93984e-06
-4.05189e-06
3.87612e-06
-1.85854e-06
1.34848e-06
1.41837e-06
2.63617e-06
2.16648e-09
8.61891e-09
-1.53075e-08
1.11597e-08
4.14725e-09
-9.0007e-09
1.32999e-08
1.49053e-08
1.94831e-09
3.33861e-11
3.3101e-10
1.44413e-08
7.72101e-10
-2.07456e-09
2.6752e-09
-2.98513e-09
-9.01999e-09
-1.18578e-08
-1.18346e-09
9.35106e-10
-3.7109e-09
-1.11253e-08
1.26358e-06
-1.36215e-07
-1.82706e-06
-1.50678e-06
-5.52017e-06
7.79468e-08
6.6559e-08
-7.51473e-09
-2.19809e-07
-4.04487e-09
3.85887e-08
4.33337e-08
-7.18233e-09
5.39561e-08
9.48623e-09
-5.1687e-09
3.42514e-08
7.83526e-09
4.49698e-08
-2.61025e-08
2.67356e-08
-8.47577e-09
3.12765e-14
-7.91952e-14
-1.87597e-13
3.89609e-14
-1.84885e-13
-3.6473e-13
2.85224e-13
-8.47452e-13
-3.72541e-14
-1.1403e-13
-7.99413e-13
3.55567e-13
-1.69363e-12
3.80338e-13
4.39119e-13
-2.37327e-12
-6.91393e-13
5.30481e-07
5.08323e-08
-6.35911e-07
-4.3448e-08
-7.30198e-08
-9.89584e-08
7.47273e-07
-8.15843e-08
7.16205e-10
1.00864e-07
-5.97996e-08
-7.45669e-07
-2.1748e-08
1.46182e-08
9.12025e-08
4.71863e-08
-3.03887e-07
5.28615e-08
1.18797e-09
-8.90673e-09
3.18583e-08
-3.02212e-08
4.41424e-14
2.37132e-15
-7.20115e-16
-9.80714e-14
-3.50813e-14
-6.72659e-14
1.20293e-13
-5.28606e-13
4.566e-13
-1.14305e-13
8.68085e-14
3.20159e-16
8.67549e-14
-2.66759e-13
-1.7729e-13
2.0268e-13
-5.71553e-13
-2.90666e-08
-5.16256e-08
3.66497e-08
3.35476e-08
-5.08945e-08
6.86294e-08
-7.87098e-08
-2.80513e-08
-9.4272e-08
-6.93116e-08
-8.279e-09
1.66075e-07
-3.32657e-08
-1.00723e-07
1.5811e-08
-1.45056e-08
9.00418e-08
3.72291e-08
1.24488e-08
1.33745e-07
-1.98072e-07
-2.03125e-08
2.16903e-08
2.2627e-08
1.00218e-08
2.54755e-08
-8.07836e-08
5.82959e-08
-8.26622e-08
1.14074e-07
-1.74831e-08
-7.22018e-08
-9.69943e-08
-4.73305e-08
-6.11889e-08
-1.48421e-07
1.02738e-07
-5.61938e-07
-4.12862e-06
4.98084e-07
8.77334e-08
-9.89558e-07
5.12483e-06
1.0422e-06
-1.0433e-05
3.4554e-07
6.50977e-07
1.09978e-07
1.36395e-08
-4.85823e-08
1.19956e-07
2.75574e-07
1.66886e-07
2.5075e-08
-1.24022e-08
-7.27885e-08
3.63929e-07
-7.37472e-09
-3.2044e-08
1.86419e-08
1.02266e-06
-1.85569e-07
-1.44399e-06
6.06907e-07
-2.69224e-06
-8.10913e-07
4.52581e-06
-1.37511e-07
-2.74025e-06
-1.25884e-06
-4.60802e-06
5.05595e-06
-5.8452e-06
3.14244e-06
-6.57131e-06
1.82579e-06
-1.51568e-05
-8.46573e-07
-1.39236e-06
2.3962e-06
-1.80062e-07
-1.21745e-06
5.50942e-07
-1.37737e-06
3.52997e-06
-8.7581e-06
1.81216e-07
-6.00333e-06
-1.05254e-06
4.21178e-06
1.97684e-06
-7.79886e-06
1.47524e-06
3.41636e-06
1.51784e-07
-3.52755e-06
-7.17724e-06
1.04118e-05
-4.11793e-06
-1.46847e-05
1.90305e-05
-4.96465e-06
-2.82184e-06
4.08803e-06
7.95867e-06
-1.70078e-05
1.17441e-05
-1.051e-05
1.06264e-05
-1.7351e-05
1.50811e-05
-3.24052e-07
-5.19785e-06
-1.13967e-05
1.30374e-05
-7.63773e-06
-1.86187e-05
2.20568e-05
-8.44089e-06
-8.40533e-06
6.17854e-06
1.25115e-05
-2.70775e-05
1.80801e-05
-2.02987e-05
1.55835e-05
-2.29238e-05
2.17267e-05
6.05776e-10
-8.75609e-10
2.68518e-09
-9.3934e-10
-2.13521e-09
1.21527e-08
1.60302e-09
-3.58345e-10
-1.84614e-09
-4.04959e-09
-2.79855e-09
2.70674e-08
-6.26036e-09
7.40883e-09
-1.02343e-09
-1.01721e-09
4.67696e-10
-1.26356e-09
-4.83247e-09
6.92532e-10
-1.77598e-09
2.78425e-09
2.39263e-10
2.12705e-10
5.51969e-10
-1.29188e-09
4.62556e-11
7.64943e-11
-2.96721e-13
4.21423e-11
6.17619e-11
-4.43907e-12
-1.62771e-11
3.82432e-11
-9.2478e-10
9.43611e-10
-7.99587e-11
6.26579e-11
-1.46752e-09
2.46945e-13
1.41571e-13
8.58749e-14
-1.91578e-12
-2.23273e-13
1.91741e-13
1.01356e-12
3.06581e-13
-1.08468e-13
1.40821e-12
1.42993e-13
5.65375e-14
-2.88623e-13
2.9044e-12
1.13299e-13
-3.11355e-13
8.05163e-13
-1.8795e-13
6.65963e-14
-2.29854e-13
4.00237e-13
-2.2509e-13
1.14732e-06
1.23586e-07
-8.88722e-07
-6.79176e-08
-2.18517e-06
-3.71703e-07
4.60507e-06
-1.77764e-06
1.38433e-06
2.95421e-07
2.24892e-06
-3.34679e-06
3.84439e-07
-1.61642e-10
1.62352e-08
-2.91925e-09
4.91385e-07
1.15023e-06
-4.02685e-05
-1.42382e-06
4.05571e-05
-4.16118e-05
3.92914e-05
3.47818e-06
3.8209e-05
-0.000120078
4.3656e-05
-4.00088e-05
-5.03282e-06
-3.87485e-05
0.000122973
-3.17832e-06
3.72199e-06
-4.97047e-06
-7.16254e-14
5.82175e-11
-7.28042e-11
8.54092e-12
3.77274e-11
-2.19476e-11
-2.03763e-11
-1.73419e-11
1.10272e-10
1.41829e-10
2.29421e-12
-2.19986e-10
7.26418e-11
7.30069e-11
7.05813e-11
-9.33158e-11
1.22791e-10
1.57284e-10
1.29052e-10
6.20305e-11
-3.52089e-10
-2.18972e-11
1.51778e-10
2.18844e-11
-1.04427e-11
1.11101e-10
-2.12855e-10
4.80727e-11
3.13116e-10
1.83294e-10
-3.37675e-10
1.48461e-10
2.91083e-12
3.0444e-10
-1.47333e-11
3.97937e-11
3.1785e-12
-3.60844e-11
1.06517e-10
-2.9461e-11
-9.48951e-11
-7.98098e-12
1.55472e-10
-3.49226e-11
2.32407e-11
7.83728e-12
1.62508e-11
-9.25897e-11
3.00723e-11
-1.48434e-10
1.96112e-11
5.3158e-12
5.23584e-13
-2.91771e-12
-3.01208e-12
-1.03374e-11
4.89084e-15
1.94659e-11
1.84173e-12
-2.68469e-12
1.18857e-12
-6.36985e-13
-3.49842e-12
-7.6837e-13
2.23397e-12
-5.79647e-12
3.36702e-12
4.18419e-12
-3.54976e-13
-8.29439e-12
-1.35591e-12
3.92243e-12
-2.3767e-12
8.72371e-11
1.48093e-12
-4.63733e-11
-1.08175e-11
-3.99783e-11
-2.22928e-11
1.52312e-10
8.71435e-13
-5.70734e-11
-8.84776e-11
7.3014e-11
1.42457e-12
2.80353e-11
-1.73382e-10
-6.89814e-11
1.36775e-10
-8.71149e-11
-2.16552e-13
-7.923e-15
2.11676e-15
7.27967e-14
4.91446e-13
3.90986e-13
-3.37748e-12
2.84112e-13
-1.17989e-14
3.96181e-14
-6.8555e-14
2.29687e-15
-4.12906e-14
1.1329e-13
1.01351e-13
1.84078e-13
2.63663e-13
3.0908e-15
7.45718e-14
1.7559e-15
-1.07851e-13
1.36418e-14
-4.06042e-13
1.09082e-13
-6.45073e-14
1.13823e-13
-1.17969e-13
8.72205e-14
6.38209e-13
-9.31443e-13
-3.60243e-15
2.01296e-14
-7.76472e-15
5.75501e-17
-1.48254e-15
-1.74582e-17
4.45587e-16
-3.70093e-15
1.80757e-15
2.39441e-16
4.4504e-15
-1.81515e-14
2.74399e-16
-6.2636e-16
1.31883e-17
-3.10862e-16
7.58607e-16
-8.60968e-16
1.67909e-15
1.44014e-15
8.78263e-15
2.44152e-14
1.1721e-14
-6.32851e-14
-9.80967e-17
4.12059e-15
4.92357e-16
8.29396e-15
1.70831e-16
4.43779e-15
2.31465e-14
-2.50072e-14
1.00699e-14
-5.45532e-15
-1.0441e-14
1.02813e-15
-4.31662e-16
-7.42112e-16
1.2503e-15
5.56816e-17
1.25993e-16
-3.68164e-16
-4.89465e-14
2.28533e-15
-1.75552e-14
-2.19197e-13
-1.32273e-14
-9.24838e-15
-2.11798e-15
1.9881e-14
4.52549e-15
-2.57956e-14
-9.45964e-15
2.50929e-15
-2.84394e-14
3.59252e-14
-3.23893e-14
-3.03898e-14
-1.65893e-14
3.85936e-14
-4.32298e-14
1.02985e-14
-1.33488e-13
-3.332e-15
2.53573e-14
-4.44721e-14
4.29365e-15
1.82439e-14
-2.01301e-14
-5.46233e-15
-1.78905e-14
5.25274e-14
7.62925e-14
6.28028e-14
-1.41321e-13
5.27602e-14
3.01793e-14
-3.1556e-15
5.07146e-14
2.02143e-14
-3.68255e-14
-2.3254e-19
-1.44249e-17
-8.3364e-14
-1.37431e-14
4.82141e-14
1.77257e-14
7.44455e-14
1.45386e-13
-3.39432e-13
8.73707e-14
-4.95647e-14
-1.09888e-14
-1.68135e-14
7.1828e-14
-3.76914e-14
4.71727e-14
-4.65851e-15
-4.47369e-14
3.23146e-14
-1.03279e-13
6.12597e-14
3.41002e-14
8.14251e-15
6.89764e-14
-6.04593e-14
-1.06616e-13
-6.77766e-14
1.31931e-14
-4.62843e-14
-1.88894e-14
-7.81743e-14
-1.69732e-13
1.62091e-13
-1.17522e-13
-9.84654e-14
6.01278e-14
-1.82357e-14
3.24187e-13
-4.07098e-13
2.82243e-13
-2.34609e-14
8.86438e-14
-1.99162e-14
-4.7476e-14
2.20297e-13
-5.3708e-14
-1.91986e-13
-1.34794e-13
-6.41538e-14
-4.11697e-14
4.42342e-14
-2.30607e-14
8.43636e-14
-1.86676e-13
1.89613e-13
-2.78543e-13
1.28095e-13
-2.82567e-12
-4.38661e-12
4.10911e-12
2.91814e-12
-4.43522e-13
4.98838e-12
-8.22628e-12
1.14982e-11
-1.70674e-11
-1.24256e-12
-5.83824e-12
1.19887e-11
-5.56144e-12
7.11142e-12
-6.07128e-14
-4.90121e-12
-1.03744e-12
-2.26352e-12
-3.39456e-12
-2.45474e-13
2.73714e-12
6.29846e-12
3.07438e-11
5.83996e-11
6.36155e-11
-1.54708e-10
1.52972e-11
5.57388e-11
-4.28031e-11
3.64942e-11
7.79695e-12
-8.52087e-11
-3.16778e-11
1.38402e-10
-1.26343e-10
6.39609e-12
-1.1802e-10
1.38913e-10
-1.83728e-10
-9.47681e-12
-5.50118e-11
1.1153e-11
1.71217e-11
-9.6826e-12
3.71388e-11
-1.07447e-11
9.58991e-11
-3.91391e-12
-5.22517e-11
5.39005e-11
-1.74622e-11
2.22056e-11
2.26873e-11
-3.21488e-12
5.94254e-11
-1.9632e-11
-4.19962e-11
7.32479e-12
1.0167e-10
-1.52385e-11
1.34422e-11
-5.0918e-11
3.28156e-11
-6.13314e-11
-7.42884e-11
4.33297e-11
2.03129e-11
-1.8868e-11
-1.09482e-10
2.85402e-11
-1.77653e-11
4.3719e-11
1.43116e-11
-2.00464e-12
-3.02989e-11
1.93548e-11
-6.48675e-12
1.06304e-11
-5.55978e-12
3.42126e-11
-5.64335e-11
4.45622e-11
2.84248e-12
-1.60477e-12
-5.90195e-12
3.356e-12
-6.26984e-12
-4.77625e-12
1.39562e-11
-6.22935e-13
-6.20024e-12
-1.96657e-12
3.51092e-12
-1.39814e-12
1.27115e-11
-1.94395e-11
2.23663e-12
-2.90156e-12
9.69683e-12
4.44652e-13
-8.32483e-14
-3.99741e-12
3.69092e-12
-2.0636e-13
-7.36246e-13
1.60054e-12
-2.57437e-13
-1.80964e-14
3.13982e-13
7.74658e-13
-1.00956e-12
3.60287e-13
-6.31633e-14
-2.07706e-12
1.80834e-12
-4.76658e-12
2.74596e-13
-1.94357e-13
-1.17246e-13
4.05923e-14
-6.82717e-13
-1.80191e-13
1.09357e-12
-8.41593e-13
-2.46031e-13
1.25942e-12
2.34111e-13
-2.29069e-12
2.69055e-12
-1.62623e-12
-3.79136e-13
2.90018e-12
-2.53952e-13
3.49443e-10
8.01644e-10
-2.11419e-10
-1.72843e-10
5.09177e-10
-1.93746e-11
1.20291e-10
-2.96201e-10
1.98938e-09
2.09123e-11
5.91842e-12
-4.05235e-11
1.4247e-10
4.48732e-11
-3.49597e-12
5.96124e-11
-2.05215e-10
2.83233e-17
4.02756e-18
-4.05733e-17
-5.39028e-18
-1.86983e-17
-9.61297e-18
4.70699e-17
-4.15408e-17
1.73101e-17
2.70993e-17
2.26505e-17
-7.00896e-17
4.20483e-17
-4.46588e-18
9.43452e-18
1.73034e-17
-7.78834e-19
1.46366e-17
3.98944e-17
-7.01742e-18
5.12024e-18
-3.54582e-17
-2.0152e-17
-1.77716e-17
-6.93903e-18
6.99e-16
7.0077e-18
-1.88237e-21
-2.71588e-17
-2.43928e-21
2.75261e-17
1.31015e-20
1.30878e-21
-1.72056e-20
-2.39409e-18
3.68935e-18
9.09406e-21
-1.1594e-20
4.28517e-17
-4.3246e-14
4.3767e-14
1.67012e-13
-1.69476e-13
2.51949e-14
3.56548e-14
-1.1704e-13
4.54957e-13
4.29339e-13
-2.15799e-13
-3.72087e-14
9.06356e-13
-5.76613e-14
4.91932e-13
2.96007e-14
-5.12435e-14
1.46586e-13
8.01598e-15
2.91221e-15
-2.30779e-15
-1.0602e-14
-8.522e-15
2.48171e-15
1.7051e-14
-5.76338e-15
1.38807e-14
7.71608e-15
8.67543e-16
-1.2873e-14
-8.27545e-15
3.03212e-14
1.6224e-14
-2.41013e-14
5.6464e-14
2.49805e-15
1.11333e-14
1.71922e-14
2.90129e-15
4.48684e-15
1.34695e-14
-1.93224e-14
8.69414e-15
5.09976e-15
-5.86953e-16
-7.46787e-15
1.34852e-14
-1.00127e-14
1.36837e-14
-4.71748e-15
1.37134e-14
-7.02884e-15
1.06746e-11
-2.87338e-12
-1.34347e-11
3.98997e-12
-1.67325e-11
-1.31737e-11
3.77993e-11
-2.19394e-11
-9.24634e-13
1.48299e-12
-1.63385e-11
-2.28005e-13
-3.08766e-11
1.16665e-11
5.62428e-11
-9.77111e-11
2.23108e-11
-3.78578e-11
3.66206e-11
-1.8356e-11
3.69372e-10
9.23816e-11
5.15899e-10
-8.80711e-10
8.03204e-11
1.2123e-10
7.68429e-11
-1.2726e-10
2.34803e-10
-1.27251e-10
4.15812e-10
2.52303e-10
7.02867e-10
-1.6349e-09
1.02734e-10
1.02523e-10
-3.44323e-11
6.01974e-10
-6.34103e-11
-2.6262e-09
-4.32485e-09
-2.83028e-10
7.24342e-09
2.67392e-12
-2.30141e-09
-3.03106e-09
-7.39669e-11
1.05856e-09
-9.2731e-10
-3.37841e-09
1.4424e-09
-1.1439e-10
1.53125e-09
7.95112e-10
-3.46776e-09
3.93458e-09
-1.18134e-09
1.04759e-10
-2.63802e-09
3.15692e-09
3.05295e-09
1.42142e-09
5.33759e-09
-1.29144e-08
5.14768e-09
4.18095e-09
-1.47431e-08
-1.70174e-10
7.61e-10
1.5883e-09
-2.00707e-09
1.66375e-11
-1.53233e-09
3.0425e-09
2.24909e-09
8.41245e-09
-5.7598e-09
2.27727e-09
3.48532e-09
-3.85048e-09
1.0446e-08
-3.698e-09
-1.77311e-09
-4.51363e-09
8.21931e-09
-2.13378e-09
5.88499e-11
2.36063e-09
2.58278e-09
-1.20669e-08
5.19125e-09
-2.95297e-09
6.67948e-09
-1.05722e-08
2.35619e-08
-1.49702e-08
2.42885e-08
1.20629e-08
9.68807e-09
-2.55618e-09
-1.84987e-08
2.97474e-09
8.43443e-09
5.25133e-09
6.27798e-09
1.23211e-08
2.3112e-10
-1.81777e-08
3.78231e-08
-1.9809e-08
3.78272e-09
1.09086e-08
-6.82169e-09
-5.06083e-09
4.90466e-09
5.12881e-09
-1.90462e-08
-1.16124e-09
2.48111e-09
6.23455e-09
2.3212e-07
4.95508e-08
-1.33387e-08
-4.73592e-07
-4.03416e-08
8.05936e-08
-6.01436e-09
1.29481e-08
2.70685e-09
-2.26201e-08
8.28433e-11
5.8336e-08
-5.60067e-09
-1.32342e-08
1.42392e-09
4.43483e-08
7.69719e-09
1.29083e-08
1.83403e-08
-1.24872e-09
-6.18938e-09
1.78289e-08
3.84214e-08
3.32245e-08
2.08213e-07
1.42465e-07
-5.36879e-07
-1.63957e-06
-2.91551e-07
-1.04225e-06
-5.76246e-07
2.87187e-08
-5.84536e-06
-8.27226e-07
2.45367e-08
-7.84324e-07
-2.17841e-07
-6.2694e-06
-7.68152e-07
-1.13183e-05
-4.95378e-06
1.67328e-07
3.63279e-07
-8.72297e-07
1.78324e-06
-5.34806e-06
4.84088e-07
6.30604e-07
1.93482e-07
-9.09532e-07
1.91602e-06
5.06478e-06
-6.04391e-07
2.87319e-06
-3.27205e-06
-7.48355e-07
1.8972e-06
1.04986e-06
-2.0719e-06
2.85396e-07
-2.38341e-06
4.03771e-06
-3.66772e-06
6.93904e-06
1.34415e-06
2.4052e-06
1.82709e-06
4.57303e-06
1.05086e-05
-2.04501e-06
-2.14147e-05
1.29511e-05
-7.78805e-06
-1.1371e-05
2.96677e-05
5.17547e-07
-1.03506e-05
-9.7469e-06
8.20106e-06
2.06338e-06
1.74785e-06
-2.18454e-05
-1.50684e-05
1.18984e-05
-3.47352e-05
-1.61811e-06
-5.49622e-06
1.08209e-06
6.03225e-06
-4.02157e-07
-2.10548e-06
8.89536e-07
-8.59583e-06
2.6975e-06
-4.21595e-06
-3.75138e-06
9.04958e-06
-1.06632e-05
4.34366e-06
1.7915e-05
7.05288e-07
-2.72161e-05
9.39521e-06
1.12173e-05
1.70742e-05
-2.70361e-05
2.27187e-05
-3.22019e-06
-5.90453e-06
2.01314e-06
5.15832e-06
5.31404e-06
-3.06267e-06
-4.10764e-06
1.85627e-06
-1.33095e-05
-1.49835e-07
1.87734e-05
-2.09653e-06
-1.42757e-05
7.78902e-06
-1.95044e-05
7.60768e-06
-1.42985e-05
2.19376e-05
-1.31645e-05
1.19846e-05
-9.16652e-07
7.53886e-07
-2.8194e-05
1.9213e-05
-3.79638e-05
1.68992e-05
-4.40513e-06
-5.83097e-06
-2.13687e-06
1.23721e-05
-2.07334e-06
-3.80967e-06
1.47576e-06
-5.84094e-06
5.56744e-06
-1.55196e-05
6.14246e-06
1.5329e-05
1.32386e-05
-4.09248e-05
-3.70163e-05
-5.34761e-06
-9.31985e-06
2.26997e-06
8.26752e-06
5.28259e-06
3.20878e-07
-5.625e-06
2.22046e-08
-1.15086e-05
-3.61147e-06
2.04049e-05
-5.02094e-07
-1.0675e-05
2.80743e-06
-1.88486e-05
1.04172e-05
-1.94178e-05
1.86147e-05
-1.87418e-05
-1.0948e-06
-4.71477e-05
-1.15472e-05
-6.9906e-06
-1.84784e-05
-9.96169e-07
-2.39533e-05
1.34022e-05
-8.9034e-06
1.31655e-05
-5.02627e-05
2.79272e-05
-5.27206e-05
-7.67084e-06
1.1645e-05
-9.25015e-06
1.14437e-05
2.6338e-05
-7.96776e-08
-3.77073e-05
8.23558e-06
-6.42978e-06
9.48967e-06
1.00333e-05
2.45133e-05
2.13451e-05
-1.43726e-05
2.56645e-07
3.05571e-05
-2.56339e-05
3.59139e-05
-4.00915e-05
-1.33344e-05
-1.29354e-05
-1.37468e-05
4.00081e-05
-5.57722e-06
-3.12654e-05
2.3507e-05
-1.51779e-05
-3.34978e-06
2.23737e-05
1.43612e-05
-5.18938e-05
2.91373e-05
-1.00899e-05
3.26983e-05
-4.95946e-05
4.80899e-05
9.23894e-07
2.65803e-07
2.42175e-07
-1.38031e-06
-1.51197e-06
8.69118e-07
2.6261e-06
-1.37401e-07
2.28395e-06
1.50682e-08
9.45188e-07
-1.04185e-06
4.87293e-07
6.38337e-07
6.75606e-07
-2.66036e-07
3.8285e-06
9.95758e-06
2.78235e-05
-9.81018e-06
-2.78584e-05
1.32171e-05
-1.41737e-05
1.07817e-05
2.00046e-06
3.91177e-05
3.03329e-05
1.9168e-06
-3.45256e-05
1.01554e-05
3.18506e-05
-2.13124e-05
3.35167e-05
-2.72532e-05
6.46698e-06
-5.67374e-06
-1.45072e-05
2.107e-05
-8.42222e-06
-1.1495e-05
2.7849e-05
-7.33789e-07
-4.34633e-06
-1.39011e-05
-1.55194e-05
2.80951e-05
-4.67026e-07
-1.21182e-05
1.02913e-06
-2.55123e-06
-2.36017e-06
-6.53798e-06
-3.17545e-07
-7.41857e-06
1.84788e-05
5.99154e-06
-2.76735e-06
-3.35127e-06
-1.07943e-05
2.15668e-05
-8.86392e-07
6.46489e-07
-2.24499e-06
5.30374e-06
-3.97055e-06
-4.741e-07
9.62669e-07
4.91898e-07
4.32069e-06
2.9066e-06
3.02698e-07
-4.49472e-06
-3.79434e-06
-2.25812e-08
-1.20246e-06
4.01164e-07
7.9713e-07
4.79298e-09
-3.92619e-09
-2.4805e-08
-5.28863e-06
4.05586e-06
2.04593e-05
-2.88449e-06
2.25813e-06
2.38806e-05
3.13673e-06
-2.11596e-09
-5.04866e-06
-1.87642e-07
5.96468e-06
7.843e-09
-1.42715e-08
2.1383e-07
1.37731e-09
-2.02065e-10
-8.18736e-10
4.68932e-10
-1.27422e-09
-1.22083e-09
4.78962e-09
-3.76731e-11
-1.62481e-10
-7.58836e-11
-4.93467e-11
8.6688e-11
-7.8295e-10
-1.74396e-10
3.51336e-11
-1.39526e-10
-3.64871e-11
4.88291e-13
5.99501e-13
1.05344e-13
-1.56886e-12
8.25093e-14
-1.37858e-12
1.89033e-12
1.08623e-12
1.49732e-13
9.22444e-12
-3.92141e-12
-5.99756e-12
-2.5436e-13
4.14565e-12
-4.66622e-12
-1.25038e-11
-1.80631e-13
-4.93033e-13
-2.77414e-13
9.9716e-13
-2.05098e-13
-3.65413e-13
3.69972e-13
-2.3577e-13
-5.24127e-13
-3.25905e-13
-1.95081e-12
2.06144e-12
-1.96264e-13
-5.09785e-13
2.7553e-13
-7.21772e-13
-1.96648e-12
6.30921e-13
2.32765e-12
-1.2717e-11
9.39228e-13
-5.03603e-12
9.73605e-13
3.15853e-12
4.45162e-12
1.10071e-11
-1.47371e-12
1.61029e-12
1.09765e-12
-1.3784e-12
5.82503e-12
-3.59205e-12
-7.41259e-12
-1.27796e-13
7.21228e-12
-2.40013e-12
8.12991e-13
2.57058e-12
-7.9138e-13
-3.18813e-12
3.40339e-12
-1.04831e-11
3.89148e-12
-2.3738e-12
-5.59252e-12
2.31063e-13
7.63042e-12
-1.25673e-12
1.35444e-12
-2.68499e-12
-2.02053e-12
-4.98883e-12
-6.17137e-12
1.75277e-12
5.61624e-12
-4.28384e-13
-8.54638e-12
5.00116e-12
-7.57078e-12
6.90616e-12
-1.75863e-11
-3.43662e-12
9.73628e-12
6.0946e-12
1.54315e-11
5.9658e-12
-4.26992e-11
1.76658e-11
-1.34695e-11
1.4935e-11
2.33822e-11
-3.20384e-11
1.3432e-11
5.11012e-12
-4.31417e-11
6.372e-11
-3.26255e-11
-2.56306e-15
-6.81188e-15
1.13808e-16
6.79413e-15
5.32192e-14
6.34679e-15
-6.24332e-14
9.64823e-14
-2.59997e-13
1.18648e-15
-1.18462e-15
-1.11365e-16
-5.42627e-15
1.30404e-14
2.47333e-15
2.39056e-15
7.6081e-14
-3.62835e-12
4.96894e-12
-2.31617e-12
3.06505e-13
1.31493e-11
-6.0522e-12
-5.99923e-12
-1.44067e-12
2.17237e-11
1.45595e-12
2.70792e-12
-7.55979e-12
1.18406e-12
2.9632e-13
-3.68731e-12
8.5138e-15
-1.53733e-13
-9.93553e-12
-4.26861e-12
1.90007e-11
-1.52753e-13
2.1535e-15
-5.48479e-15
-4.11794e-12
-2.52123e-13
-7.6813e-15
7.94612e-15
4.50838e-16
4.74986e-15
-1.91308e-14
2.96003e-12
-8.49107e-12
1.98774e-12
5.60483e-13
-8.17513e-13
1.34777e-14
2.21334e-14
-5.70372e-14
2.62249e-12
-2.61303e-12
-2.84958e-11
2.97195e-11
-1.31623e-11
-9.54901e-12
3.67879e-12
-1.14536e-13
-7.70442e-15
-1.54583e-11
-6.23349e-12
-1.29424e-12
-3.37459e-13
-1.34646e-11
-6.88886e-11
3.98818e-11
-1.47809e-11
1.46075e-11
-9.77344e-11
-5.49606e-12
-8.1363e-14
8.94048e-12
2.92012e-11
-6.56956e-15
1.39276e-13
7.57176e-14
5.43594e-13
-1.40788e-11
2.66056e-11
-7.94294e-12
-4.87387e-12
2.50218e-11
1.75907e-12
1.66585e-11
-2.66579e-11
-1.50366e-11
-9.3267e-12
6.41194e-11
-2.55537e-11
1.34365e-11
-1.27769e-12
4.87395e-12
-3.438e-12
-2.16571e-14
-1.81843e-13
-1.77739e-13
-1.3594e-13
-3.06341e-13
3.91981e-13
-6.04329e-14
-2.48593e-13
-7.91021e-14
2.08344e-13
-1.78446e-13
1.98548e-12
-3.20744e-12
-1.07648e-13
1.71704e-12
-1.04944e-13
-1.2301e-12
3.16843e-12
2.69049e-12
-1.02683e-11
4.09683e-12
-3.94844e-12
-5.16299e-12
-1.05031e-12
3.51819e-12
-1.61778e-11
2.01298e-12
2.10026e-12
4.30215e-12
-6.15883e-11
4.65039e-12
-1.6941e-11
1.33008e-12
-2.54212e-14
-4.87102e-14
-5.35894e-14
-3.02606e-13
1.80357e-12
2.67762e-15
3.66099e-12
-5.03441e-12
-2.62569e-12
1.77079e-12
1.62416e-12
3.54954e-12
-9.99991e-12
3.58895e-13
-2.36972e-12
2.97442e-12
-2.62383e-12
4.05197e-12
-1.97211e-12
1.13801e-12
-3.15714e-12
-4.45506e-14
5.89255e-14
-9.54666e-14
4.77318e-14
9.4514e-14
-3.98509e-14
-1.62606e-13
-2.08007e-12
4.44498e-13
-5.96495e-13
-2.92266e-12
3.01377e-12
-3.71077e-12
5.42779e-12
1.19087e-12
3.3147e-12
-9.8909e-12
-3.83679e-12
-2.06027e-13
-1.67143e-12
8.68275e-13
-2.18182e-12
-9.41866e-12
1.14565e-11
-3.1204e-12
-9.18185e-12
-1.5016e-13
5.07391e-14
3.72062e-14
-4.16458e-14
6.01096e-13
-2.51411e-15
-1.44897e-12
-2.3439e-13
1.0133e-13
-1.01854e-13
2.2144e-13
-2.12499e-13
8.63894e-13
-1.40262e-12
3.87792e-13
-1.515e-12
3.03092e-13
-1.44702e-14
1.94013e-15
1.9378e-14
2.78339e-15
9.14956e-14
3.41589e-14
-5.11781e-13
1.16965e-14
7.26036e-14
9.25103e-15
5.84783e-14
-4.49503e-14
6.86376e-14
-2.68823e-14
4.0118e-14
3.76826e-14
1.635e-13
1.00573e-11
3.07853e-12
3.87566e-12
-1.69175e-11
-1.05311e-12
7.22789e-12
3.99394e-12
1.20938e-12
-5.2637e-13
-1.86984e-12
-7.80332e-13
2.09974e-12
-2.14861e-12
-3.10852e-13
1.30497e-11
7.21032e-12
-1.62904e-11
4.1833e-12
1.61575e-11
-4.36786e-12
5.4536e-12
-5.53946e-13
-2.8305e-12
2.82094e-12
-1.01877e-11
7.02317e-12
4.25638e-12
-9.31275e-12
4.01942e-13
-4.88767e-11
3.02703e-11
-1.38165e-12
-3.43696e-12
-4.99307e-12
2.48117e-11
3.04188e-11
-9.70282e-11
1.00594e-11
-6.40732e-13
-1.24654e-12
-1.72177e-13
-7.4413e-14
-5.04301e-15
-3.29366e-13
-8.8146e-13
-2.64741e-13
-4.67458e-13
6.28071e-13
8.3224e-14
-7.77685e-13
-1.28439e-12
2.76309e-15
3.04899e-14
-2.00924e-14
-3.3912e-15
1.63794e-13
1.07403e-13
2.54027e-13
3.07931e-14
-5.57743e-14
-3.79147e-15
5.43748e-15
-2.0149e-16
-5.22494e-15
-1.0374e-15
-5.84785e-16
7.58941e-15
-1.70517e-16
-5.89901e-16
-8.66818e-16
1.74252e-15
-6.32698e-16
3.5689e-16
-1.57119e-15
-2.65259e-15
4.09509e-15
4.19017e-13
-4.17152e-13
-4.49637e-15
4.61249e-15
-1.50889e-12
-7.73536e-14
-1.12543e-12
-1.50496e-13
8.08614e-15
7.36624e-16
-1.20901e-14
8.82981e-15
6.50577e-15
3.46481e-15
1.06096e-14
-1.29828e-14
4.06916e-15
8.70381e-15
-2.18267e-13
1.68131e-13
-1.31221e-12
-1.43756e-09
-2.31037e-09
-2.77481e-09
6.52168e-09
-2.21348e-09
-6.80106e-10