/*--------------------------------*- C++ -*----------------------------------*\
| =========                 |                                                 |
| \\      /  F ield         | OpenFOAM: The Open Source CFD Toolbox           |
|  \\    /   O peration     | Version:  v2012                                 |
|   \\  /    A nd           | Website:  www.openfoam.com                      |
|    \\/     M anipulation  |                                                 |
\*---------------------------------------------------------------------------*/
FoamFile
{
    version     2.0;
    format      ascii;
    class       volScalarField;
    location    "0.25";
    object      alpha.water;
}
// * * * * * * * * * * * * * * * * * * * * * * * * * * * * * * * * * * * * * //

dimensions      [0 0 0 0 0 0 0];


internalField   nonuniform List<scalar> 
6576
(
1
1
1
1
1
1
1
1
1
1
1
1
1
1
1
1
1
1
1
1
1
1
1
1
1
1
1
1
1
1
1
1
1
1
1
1
1
1
1
1
1
1
1
0.848305
0.815625
0.957823
0.999992
0.999998
0.999998
0.999663
0.999921
0.999998
9.66634e-55
9.66634e-55
6.00854e-53
1.00345e-54
1.40607e-54
1.72749e-52
2.76926e-54
1.25012e-50
1.25012e-50
2.92485e-50
1.2773e-50
1.2516e-50
1.25012e-50
1.2516e-50
7.14419e-44
3.512e-44
2.68387e-44
2.16455e-44
4.23533e-44
3.72233e-44
8.7045e-44
4.34255e-06
1.43843e-06
1.42456e-05
1.46813e-06
1.49239e-06
1.84201e-06
1.49073e-06
6.92902e-06
4.88825e-06
1.33778e-09
3.77031e-08
1.34902e-06
1.10157e-06
1.35457e-09
0.998955
0.979393
0.958015
0.986654
0.999094
0.995467
0.999105
0.991318
0.991087
0.999997
0.997445
0.998945
0.998963
0.998004
0.999607
0.999641
0.999553
0.999377
0.999465
0.99886
0.999852
1
1
1
0.999991
1
1
1.24852e-18
2.26829e-79
-1.47543e-26
-8.71972e-77
-4.05708e-78
0
4.92087e-30
0.20305
0.836075
0.922454
0.921597
0.890574
0.999926
0.910876
-1.7245e-65
3.58602e-80
8.67519e-65
-8.27051e-31
-1.17815e-27
1.56359e-28
1.66345e-37
2.26277e-08
2.54433e-08
3.16788e-08
3.72536e-09
2.47298e-08
7.81991e-08
1.94346e-08
4.03744e-09
6.4868e-09
4.61258e-09
2.11672e-08
3.78283e-09
3.71461e-09
3.77063e-09
2.74232e-07
1.16212e-07
1.18357e-07
1.13569e-07
1.53831e-07
2.51889e-07
3.03653e-07
5.6843e-08
6.04638e-08
5.79079e-08
5.55899e-08
6.65699e-08
1.21414e-07
1.21811e-07
1.21577e-07
1.21577e-07
1.95118e-07
1.76839e-07
6.30818e-08
1.31433e-07
9.24957e-08
7.6306e-08
4.26122e-08
3.70938e-08
6.9598e-08
3.5784e-08
7.8825e-08
1.09352e-07
6.17307e-08
3.56433e-08
1.09319e-07
1.02614e-07
4.95428e-09
3.47515e-10
2.27811e-09
1.58603e-09
3.4112e-10
4.3002e-11
9.78123e-10
6.21721e-10
4.38405e-10
5.52853e-10
4.46737e-10
4.39154e-10
3.38253e-09
1.3409e-09
2.86195e-10
2.75858e-10
3.07371e-11
1.70336e-11
1.06766e-11
2.19535e-11
3.07276e-11
2.60612e-11
1.81242e-11
2.80249e-16
2.65026e-16
2.04006e-17
1.01789e-11
2.53817e-11
4.39997e-12
2.16958e-12
1.14764e-22
1.54784e-22
1.25124e-22
1.44817e-22
1.30705e-22
1.20108e-22
1.44714e-22
3.31868e-10
3.08132e-09
2.17246e-10
5.24402e-09
1.93078e-08
7.1043e-09
5.61403e-09
5.31235e-09
5.23208e-09
1.00672e-08
5.20818e-09
6.17471e-09
1.00914e-08
5.94621e-09
2.45896e-08
1.37302e-08
1.32941e-08
8.20068e-09
8.35623e-09
8.22876e-09
8.73019e-09
3.28922e-07
6.97704e-08
1.8391e-07
6.11519e-08
1.6669e-07
6.57629e-08
2.08439e-07
2.13951e-07
1.02436e-07
1.62663e-07
2.15179e-07
1.08273e-07
2.77935e-07
6.11486e-08
7.30673e-08
3.1349e-07
9.30511e-08
1.50851e-07
1.92411e-07
9.34146e-08
1.96758e-07
2.91078e-07
2.90477e-07
5.46886e-07
5.50718e-07
5.27811e-07
2.81532e-07
5.36937e-07
5.40445e-07
6.06624e-08
1
1
1
1
1
1
1
1
1
0.989965
0.990571
0.990633
0.97933
0.989963
0.945737
0.885435
0.00170178
0.00138724
0.00209607
0.00125583
0.00182645
0.00124032
0.00124078
0.00124051
0.001325
0.98076
0.989963
0.953317
0.0186402
0.00582984
0.00974949
0.00582976
0.00582845
0.0058285
0.00625003
3.66752e-09
3.80809e-09
8.82809e-09
4.11716e-09
2.81464e-08
8.40001e-08
7.48537e-09
0.0569494
0.00528921
0.00107559
0.0414661
0.00217849
0.0023463
0.00106114
0.000695487
0.000717813
2.88394e-09
2.89362e-09
2.89362e-09
2.53368e-09
1.2817e-08
1.32063e-08
2.73075e-08
0.00237303
0.00252021
0.00248054
0.00586721
0.0153649
0.00505252
0.00275008
0.0023655
0.002358
0.00236297
0.00362784
0.00236326
0.0141413
0.00235287
0.00235287
0.0526937
0.182992
0.974288
0.135238
0.00444542
0.42551
0.00548342
0.0480455
0.04551
0.00444542
0.999999
0.999999
0.999998
0.999999
0.999991
0.999999
0.999983
1
1
1
0.999999
0.999999
1
1
1
1
0.981581
0.999349
0.97817
0.999634
0.990239
0.999681
0.995025
0.840259
0.884309
0.756761
0.992846
0.993488
0.957864
0.984044
5.87035e-05
0.000521971
3.14591e-05
0.000297223
0.00103224
0.000163877
0.000164894
0.000168144
5.92094e-05
5.45891e-05
5.46031e-06
4.56822e-06
1.10329e-06
1.13874e-06
2.59415e-06
2.22422e-05
9.21729e-08
5.3837e-08
5.63333e-08
7.65916e-08
4.61546e-08
4.89856e-08
4.58716e-08
4.56601e-08
1.05331e-07
0.0205231
0.0905765
0.356665
0.0743314
0.0199906
2.83268e-05
0.00035298
0.985954
0.985946
0.985954
0.961115
0.985946
0.976883
0.985931
2.01139e-06
2.00893e-06
2.00894e-06
2.01139e-06
2.0157e-06
2.00737e-06
1.99349e-06
2.02509e-06
2.02362e-06
2.02141e-06
2.02468e-06
2.02188e-06
1.41919e-06
2.02505e-06
1.77511e-07
2.00892e-06
8.08244e-07
1.48218e-07
6.94633e-07
8.16264e-07
2.15275e-07
1.98849e-08
6.10273e-08
8.04701e-08
1.97815e-08
4.52748e-08
2.04091e-08
2.11975e-08
1.99242e-08
1.97607e-08
4.20448e-07
4.99978e-07
2.98011e-07
2.49644e-07
5.74188e-07
4.04111e-07
5.74188e-07
1.21348e-09
1.75497e-08
2.4798e-09
1.11524e-09
1.13642e-09
1.11524e-09
2.4999e-09
4.69521e-10
8.39749e-10
3.79804e-10
9.87111e-10
7.70252e-10
2.98317e-09
5.42249e-10
8.48313e-12
1.6714e-11
7.23552e-11
1.3217e-11
8.13481e-12
2.01642e-11
4.49165e-11
5.64788e-10
1.66258e-10
1.30697e-10
2.56176e-10
1.09098e-10
8.94083e-11
1.08059e-10
6.82516e-12
9.7634e-12
8.60839e-12
2.14342e-10
1.13191e-10
8.89676e-10
1.94082e-10
4.39129e-10
1.94082e-10
7.45606e-10
3.69189e-10
1.94082e-10
5.12016e-10
4.93622e-10
6.2792e-10
5.10892e-10
7.27424e-10
7.44207e-10
8.26523e-10
7.47431e-10
2.38889e-10
2.40938e-10
6.65267e-10
8.25203e-10
1.25783e-09
8.25203e-10
8.32571e-10
1.02567e-09
1.14468e-09
1.76907e-09
1.75144e-09
9.68339e-10
7.71697e-10
3.39849e-10
1.30542e-09
1.85319e-09
1.445e-09
1.45347e-09
1.5704e-09
1.50648e-09
3.23329e-10
1.39717e-09
1.96647e-09
1.35627e-09
1.23629e-09
1.24567e-09
1.20529e-09
1.20529e-09
6.26598e-08
6.70799e-08
6.42244e-08
9.26189e-08
6.27061e-08
1.67643e-07
6.27057e-08
6.33157e-08
6.32327e-08
1.98494e-06
1.97979e-06
1.19165e-06
1.57041e-06
1.27701e-06
1.99509e-06
1.99827e-06
1.20018e-06
1.12626e-06
1.52163e-06
6.38452e-07
4.41518e-07
3.39588e-08
1.28475e-06
1.55093e-06
9.27343e-07
1.53364e-06
9.27368e-07
1.96449e-06
1.98748e-06
1.28861e-06
8.50591e-07
2.07267e-07
6.12968e-08
7.96047e-07
4.68808e-07
6.62378e-08
6.76103e-08
1.08844e-07
5.2123e-08
1.00561e-07
2.5385e-08
1.00956e-07
3.44477e-08
1.08529e-08
1.01928e-09
4.29593e-09
8.92299e-10
1.1939e-08
2.32105e-08
9.64901e-10
2.28452e-09
1.50142e-08
3.38574e-09
2.22739e-09
7.24954e-10
5.08968e-10
0.000464104
6.18888e-05
0.00013546
1.84637e-06
1.60918e-05
7.18964e-05
1.85195e-06
3.71587e-12
3.00444e-12
3.00263e-12
6.82773e-12
3.3486e-12
7.79639e-12
6.0021e-12
3.94219e-12
6.92215e-12
2.66894e-11
9.94438e-16
1.0973e-11
9.90121e-16
3.2651e-13
9.90124e-16
3.86935e-12
1.07038e-09
1.92914e-09
3.50965e-08
1.33784e-08
1.54817e-08
8.50323e-10
8.72438e-10
2.8902e-10
5.69123e-10
8.8538e-10
2.8902e-10
7.76293e-10
2.89914e-10
1.07267e-09
1.80234e-09
6.01177e-10
5.50206e-10
3.67426e-10
5.14206e-10
5.75058e-10
2.60972e-10
4.89146e-07
7.66136e-07
4.88826e-07
4.89059e-07
2.25241e-06
4.98356e-07
4.98356e-07
9.41063e-06
7.80627e-06
6.46712e-06
9.44075e-06
6.45426e-06
7.9858e-05
4.01691e-06
3.38566e-06
3.2993e-06
0.000142301
9.5023e-06
0.00022273
0.00016829
0.00020077
0.00016801
0.000263074
0.000174227
0.000177561
0.000707527
0.000998571
0.000818059
0.00016096
0.000414506
0.000174844
0.000171156
0.000166847
0.00016096
0.000174413
0.000160817
0.000927639
0.000164741
0.000391723
0.00174141
0.000744204
0.00187355
0.00142394
0.00123758
0.00123758
0.00187137
0.00187478
0.00320858
0.00298634
0.00132471
0.00124051
0.00126187
0.0322609
0.00968125
0.00682039
0.00200092
0.00539502
0.00185311
0.00424232
0.00704725
0.00720206
0.00140923
0.00155305
0.00386238
0.0058285
0.143272
0.00693023
0.128752
0.0615215
0.206496
0.112483
0.429596
0.998412
0.373468
0.0460972
0.787506
0.0695609
0.0297832
0.0468386
0.999967
0.959002
0.930939
0.970571
0.970602
0.959157
0.978996
0.999999
0.999999
0.999999
1
1
1
1
1
1
1
0.999994
0.999994
0.999994
0.999979
0.999834
0.999994
0.999994
0.999392
0.999966
0.999984
0.999993
0.999992
1
1
1
0.999994
0.999997
1
1
0.999988
0.999999
0.999927
0.999606
1
1
1
1
1
0.999388
0.999399
0.999464
0.99994
0.999891
0.999886
0.999943
0.99996
0.998702
0.97596
1
0.999999
1
0.999999
0.999892
0.999997
0.999999
0.999817
0.991577
0.995439
0.999998
0.997874
0.999644
0.999835
0.999051
0.999078
0.998832
0.999576
0.999591
0.999504
0.99962
0.0147167
0.094682
0.173225
0.0363927
0.0420543
0.0357463
0.113285
0.980144
0.955209
0.980495
0.732339
0.959985
0.981366
0.964502
0.882352
0.961044
0.887167
0.793458
0.202594
0.050107
0.443448
0.691852
0.692117
0.621826
0.130921
0.122359
0.0348402
0.462205
0.451685
0.460899
0.0261688
0.000408114
0.06259
0.689106
0.552675
0.0657312
0.464616
0.000407276
0.00559579
4.96102e-05
4.31393e-05
5.39345e-05
1.09587e-05
2.12148e-05
1.69869e-06
3.17333e-05
1.65129e-08
6.11579e-09
4.72642e-09
1.21577e-07
4.99739e-08
4.69844e-08
8.76928e-08
4.31374e-09
3.16836e-09
7.78753e-09
8.00248e-09
3.17278e-09
3.16599e-09
5.37715e-08
1.06419e-07
4.68446e-08
4.72224e-08
1.21761e-07
5.41273e-08
2.29977e-08
3.52795e-08
2.35094e-08
2.27718e-08
2.38968e-08
8.81471e-08
2.31577e-08
2.14188e-08
2.15321e-08
2.15321e-08
2.14192e-08
2.16978e-08
2.16306e-08
2.07309e-08
1.60423e-07
3.85301e-07
1.66986e-07
5.45901e-07
2.45276e-07
3.72646e-07
5.43528e-07
7.14751e-11
4.30614e-11
1.15997e-08
5.64765e-11
6.05062e-11
5.64765e-11
8.09623e-10
3.01132e-08
3.18152e-07
1.13682e-07
6.71019e-08
2.86574e-08
2.60862e-09
1.26287e-09
2.09183e-08
1.51337e-10
6.06063e-08
1.51798e-10
1.51337e-10
3.22289e-08
3.3948e-09
1.0038e-07
1.52724e-10
1.51337e-10
1.12346e-07
4.74034e-07
3.32733e-08
3.95909e-08
4.02626e-08
5.66263e-08
5.56369e-07
2.84477e-07
3.66767e-08
1.6306e-07
1.79837e-07
1.27643e-09
1.01502e-09
1.04107e-09
2.66811e-07
7.3725e-08
5.78722e-08
2.08798e-07
2.5468e-07
2.2078e-07
2.99674e-07
1.69637e-09
1.72028e-09
1.72586e-09
1.55522e-09
5.44225e-09
1.73651e-09
1.3296e-09
2.98144e-08
4.63987e-08
3.15816e-08
7.37209e-08
2.5684e-07
1.28288e-07
3.45357e-08
1.2636e-09
1.93331e-09
1.60273e-09
5.99091e-08
2.58555e-08
6.6746e-08
2.56157e-08
2.59392e-08
2.84047e-08
3.9142e-08
1.20589e-09
1.2489e-09
7.52899e-09
1.20589e-09
1.45993e-08
5.24428e-08
1.09502e-07
5.21402e-08
3.03098e-08
1.0952e-07
3.19983e-08
1.09502e-07
4.71107e-09
8.92192e-09
4.18311e-09
4.35666e-09
1.39832e-08
2.3914e-08
3.75486e-09
1.82087e-09
4.61854e-09
1.86485e-09
1.08887e-09
1.17699e-09
1.33016e-09
1.37124e-09
1.08562e-07
1.0859e-07
6.71591e-08
2.91442e-08
8.95924e-09
1.08562e-07
1.08548e-07
7.08601e-08
7.37397e-08
2.13536e-07
3.16072e-07
4.38337e-07
7.49477e-08
8.82854e-08
1.57715e-06
1.6513e-07
1.13187e-08
1.13187e-08
1.13171e-08
5.8986e-09
3.61617e-09
6.10984e-09
1.13186e-08
3.4112e-10
4.14047e-09
1.40898e-09
3.48196e-10
4.37155e-10
2.1164e-10
2.20755e-11
5.86754e-12
8.71499e-12
5.84366e-12
8.78263e-12
9.52406e-12
4.70884e-11
8.71052e-09
1.84447e-08
4.59592e-11
6.17362e-11
4.70884e-11
5.34367e-11
2.91713e-09
2.32174e-09
0.000628335
0.000404993
0.000628333
0.000628314
0.000618468
0.000627031
0.00062833
0.000628328
0.000628328
1.2833e-20
4.20138e-18
1.2833e-20
1.2833e-20
1.2833e-20
6.81613e-17
1.14258e-16
9.62314e-19
1.25563e-18
2.5822e-18
2.20273e-18
2.0252e-17
1.12619e-18
1.50272e-18
7.76614e-17
3.04792e-19
5.23115e-17
4.70573e-17
3.80882e-20
1.33455e-17
3.80882e-20
3.80882e-20
5.85491e-18
3.10671e-15
1.96301e-15
3.10671e-15
2.43834e-15
1.88912e-15
1.96301e-15
1.6264e-14
0.000520103
0.000350522
0.000200767
0.000234395
0.000520103
0.000184574
0.000219212
0.000238624
0.000234036
0.000572753
0.000329426
0.000477429
0.000330619
0.000622888
4.07077e-05
0.000623178
0.00051997
0.000316923
0.00037121
0.000233632
0.000623112
0.000367857
0.000519784
5.88409e-05
0.000187652
5.57955e-05
2.78977e-05
2.77629e-05
2.72706e-05
6.71316e-05
8.66206e-05
0.000244535
0.00046686
0.000264032
0.000167564
0.000265158
0.00186844
0.00186761
0.000606256
0.0528676
0.0227856
0.0113618
0.00876723
0.0962061
0.102383
0.0327834
1
1
0.999998
0.999969
0.998988
0.99959
0.967494
0.999097
0.999601
0.999374
0.99995
0.99997
0.999969
0.9413
0.943087
0.942305
0.809699
0.871029
0.732251
0.65416
0.936333
0.943087
0.931554
0.546631
0.545734
0.545404
0.458231
0.457994
0.457603
0.496968
0.483599
0.653524
0.653524
0.651269
0.652688
0.480096
0.318782
0.264485
0.318782
0.204751
0.281957
0.116921
0.200604
0.25121
0.0142659
0.548755
0.0199391
0.576655
0.0178326
0.203766
0.0338919
0.0185428
0.0751284
0.000358818
0.076781
0.000358671
0.0141641
0.0214372
0.0215524
0.0217528
0.00348843
0.00134972
0.0345621
0.0276904
0.437158
0.00017992
0.823777
0.0728976
0.86282
0.000357701
0.397762
0.322021
0.713566
0.929874
0.929874
0.930003
0.929874
0.929755
0.000106545
0.000136824
0.000184954
0.00708274
0.000249396
0.000183956
0.000139931
1.22486e-05
1.10601e-05
0.000114938
1.38703e-05
1.45786e-05
1.34179e-06
2.4875e-05
1.28958e-09
1.40754e-08
3.29792e-08
4.33063e-07
5.62932e-07
2.21261e-08
2.00286e-08
7.9795e-09
4.50724e-09
4.24716e-09
7.17518e-09
1.05702e-08
3.16376e-08
8.80767e-09
9.30856e-08
6.5585e-09
6.50403e-08
2.99584e-07
4.23599e-07
9.98491e-08
9.23572e-08
4.55977e-07
5.5142e-07
4.69464e-07
5.5098e-07
5.50718e-07
5.50718e-07
5.50718e-07
2.93415e-07
1.49526e-07
2.36532e-07
2.2361e-07
1.44661e-08
1.5396e-08
4.81067e-08
1.00636e-07
4.90011e-11
2.87136e-07
4.00619e-12
8.2321e-12
9.57333e-09
3.02127e-08
2.0834e-07
4.73266e-08
1.57032e-07
5.38402e-07
3.2852e-08
4.98829e-07
2.2343e-07
2.6247e-07
5.46309e-07
1.46577e-16
1.6368e-17
1.73246e-14
5.73291e-17
3.7228e-17
1.62727e-17
1.6368e-17
3.60034e-13
4.00461e-12
1.49094e-14
7.97989e-14
3.80941e-17
3.80941e-17
1.36159e-14
2.06246e-15
2.06246e-15
2.06246e-15
1.8958e-15
7.74125e-15
1.31336e-14
8.80922e-14
2.10922e-11
2.10621e-11
2.05162e-11
3.20636e-12
3.48403e-12
3.48401e-12
3.61225e-12
2.16255e-15
2.06232e-15
2.10599e-15
1.28958e-11
3.61226e-12
5.39278e-09
1.88384e-10
1.14352e-09
5.64765e-11
2.45947e-07
3.35328e-08
3.24164e-07
1.68858e-07
5.73189e-07
1.34857e-07
2.30439e-07
1.97719e-08
3.09556e-08
2.26748e-08
1.97551e-08
1.97719e-08
5.09632e-08
2.29142e-08
2.28248e-08
2.28367e-08
2.22109e-08
3.20202e-08
2.93437e-07
1.97564e-08
1.97564e-08
1.97815e-08
2.02526e-08
7.94302e-08
1.99008e-08
2.15865e-08
9.30791e-08
7.16742e-08
1.09048e-07
7.02778e-08
8.56719e-08
1.1091e-07
6.1237e-08
6.28861e-08
6.20732e-08
6.27064e-08
2.14586e-07
8.13395e-07
1.09502e-07
1.08834e-07
9.17624e-08
1.08834e-07
1.08125e-07
4.39757e-08
8.34569e-08
1.99458e-06
3.44345e-07
1.91032e-07
7.01229e-08
3.00926e-07
3.11465e-07
1.22829e-06
1.07321e-07
9.54255e-08
9.30316e-08
1.05324e-07
9.8668e-08
1.08154e-07
1.08539e-07
4.71107e-09
6.36324e-08
8.05549e-08
1.02848e-09
1.08488e-09
1.02848e-09
4.16393e-09
1.06903e-09
1.02848e-09
1.7211e-09
1.0498e-09
1.0707e-09
2.94493e-08
8.31536e-12
2.46209e-09
3.2398e-09
1.79705e-09
1.73208e-09
1.72886e-09
1.73758e-09
9.27257e-10
3.68137e-12
0
1.59403e-09
1.07925e-09
1.37377e-09
1.13043e-09
1.57263e-09
1.72475e-09
1.56084e-09
0
2.49847e-10
0
5.09763e-09
5.90171e-09
1.96024e-09
1.68673e-09
1.14748e-09
1.69517e-09
6.65288e-09
5.95457e-09
6.4787e-09
1.71124e-09
7.31216e-09
2.24459e-10
9.25896e-09
4.72606e-09
2.94671e-11
6.02633e-09
4.39511e-09
5.75565e-12
3.63063e-11
3.38886e-09
1.37173e-10
9.13772e-09
4.32192e-09
9.13442e-09
6.69267e-09
0.000251514
0.000251514
0.000251568
0.000177693
0.000230825
0.000198691
0.000179951
6.78924e-05
9.6955e-05
5.1671e-05
0.000251514
0.000178964
0.00018319
9.87456e-05
7.33109e-05
9.03089e-05
2.5113e-05
0.000154404
0.000154751
0.000142761
6.61076e-05
6.41585e-06
1.47986e-09
2.46922e-06
1.48219e-09
1.86711e-09
1.32202e-09
1.36845e-09
1.34768e-09
1.32442e-09
0.000610176
0.000611796
6.65292e-06
6.38791e-06
0.000185023
0.000158426
6.51202e-06
4.03843e-07
1.79024e-07
2.6893e-10
2.33364e-10
6.59483e-08
2.3339e-10
2.33377e-10
2.27389e-17
2.24305e-17
6.22615e-15
4.93994e-15
6.80518e-15
6.80662e-15
6.80662e-15
6.70474e-15
1.34133e-16
1.86669e-24
1.73015e-19
3.0682e-24
2.79913e-22
8.62634e-25
1.35718e-19
5.93775e-23
5.39133e-19
9.02946e-20
2.83302e-22
2.83725e-22
2.83699e-22
2.28505e-22
2.99225e-22
2.2921e-22
2.97469e-22
5.05705e-22
6.118e-22
5.83795e-22
4.35974e-21
4.9598e-22
6.21687e-22
2.53503e-20
2.56133e-23
3.20177e-23
2.50473e-23
7.97846e-23
7.6581e-23
8.27381e-23
2.72143e-23
6.26297e-18
6.74405e-18
1.83907e-17
2.15927e-17
5.85204e-18
5.98824e-18
8.42237e-17
3.15386e-19
5.62279e-18
9.87253e-19
4.21975e-18
4.03024e-18
1.28856e-18
1.31279e-17
1.36714e-14
8.46299e-15
1.37259e-14
9.86713e-15
4.04998e-14
9.86713e-15
8.77119e-15
6.14891e-07
1.79897e-06
6.14891e-07
0.000143255
1.64906e-05
3.54052e-06
2.34962e-05
1.95943e-10
1.08384e-10
2.0485e-10
3.83119e-11
5.79897e-11
3.55568e-10
8.14684e-11
2.85203e-05
1.66751e-06
3.28675e-05
2.1881e-06
0.000334088
2.83788e-06
0.000520078
0.000520105
0.000218523
0.000520103
0.000520096
0.000354776
0.000331578
0.000355187
0.000519784
0.000243805
9.0282e-05
0.000555459
0.000159705
0.946577
0.987687
0.960745
0.991451
0.992415
0.984167
0.995487
0.457484
0.58847
0.569623
0.58847
0.58847
0.588448
0.529062
0.546631
0.457436
0.464162
0.538582
0.538945
0.538575
0.538945
0.405332
0.393743
0.407192
0.481332
0.538945
0.403116
0.000356191
0.000356762
0.000354999
0.000360887
0.00036615
0.000357076
0.000356157
0.000354686
0.000356334
0.000355063
0.000354706
0.000354676
0.000947346
0.000355919
0.000368218
0.000106162
7.12889e-05
0.000368132
9.67008e-05
1.70968e-05
0.000154608
0.00102395
0.0134526
0.000843156
0.0267601
0.00116669
0.00082185
0.00177196
0.00241008
0.00283049
0.000396855
0.00262804
0.000397488
0.0596838
0.011953
0.221752
0.0319892
0.000280384
0.000276697
0.000365251
0.000282544
0.000284624
0.000351226
3.37927e-05
0.000314212
0.000285369
0.000122908
0.000126191
6.63694e-05
0.00014875
0.000179054
2.97507e-06
1.16252e-05
2.98354e-06
5.9108e-06
2.29355e-05
7.82381e-09
3.54142e-05
5.14926e-06
3.04354e-10
1.93388e-05
3.00409e-10
4.07681e-08
2.48021e-08
8.68893e-11
6.78073e-11
4.89116e-10
1.4385e-10
8.32911e-11
1.71351e-10
9.85285e-11
4.42132e-15
5.63152e-14
2.21742e-12
7.6346e-13
1.68879e-15
2.58872e-21
2.00308e-20
6.89356e-21
1.3213e-20
2.59494e-19
6.53845e-20
3.17518e-21
1.19512e-22
2.46073e-23
9.46881e-21
2.46073e-23
5.58234e-18
2.49496e-17
4.02988e-23
2.42818e-20
2.42818e-20
1.48077e-20
1.14664e-19
2.15579e-19
2.78821e-17
7.63924e-17
2.46073e-23
6.97528e-17
1.33316e-17
2.48552e-18
4.1883e-20
3.86215e-19
1.97553e-19
8.15415e-20
3.45968e-17
5.46351e-17
6.03084e-17
7.58313e-17
4.10983e-17
1.62727e-17
3.31663e-15
1.27364e-14
3.02487e-08
4.46691e-07
5.46641e-07
6.05704e-08
1.83775e-08
1.01591e-08
3.09076e-08
1.95178e-08
7.07805e-08
4.12845e-07
1.35676e-08
1.01771e-08
3.76622e-07
4.91535e-08
5.47406e-07
5.47406e-07
5.474e-07
5.47536e-07
5.49599e-07
1.1873e-07
2.00214e-07
1.27854e-07
2.02064e-07
1.21143e-07
3.06456e-07
5.46018e-07
1.99009e-08
2.49469e-08
2.02662e-08
2.04869e-08
2.04869e-08
2.07302e-08
2.02786e-08
2.01239e-06
1.85356e-06
1.85245e-06
1.98838e-06
1.86647e-06
1.85245e-06
1.85252e-06
3.68069e-08
1.84633e-08
2.05711e-08
2.32727e-08
1.90908e-08
3.71712e-08
3.19179e-08
1.78925e-09
6.37053e-09
6.48929e-09
4.31186e-09
4.52664e-10
4.89166e-10
9.18535e-09
6.14451e-09
6.76823e-09
8.37057e-09
4.59654e-09
4.50974e-10
9.27628e-09
0
0
0
8.86399e-13
1.42636e-13
0
1.00182e-13
2.30905e-12
1.02954e-12
1.53397e-13
1.4807e-18
2.54938e-321
5.17836e-15
2.8593e-16
2.61196e-15
-2.4941e-23
-1.11173e-24
-8.91762e-23
-3.67686e-26
8.13473e-20
2.64144e-15
2.93593e-14
2.77454e-18
4.94453e-18
8.37059e-18
3.3278e-15
0.108515
0.688035
0.999927
0.999927
0.999927
0.983101
0.954779
0.000131193
0.000665888
5.8897e-05
2.3462e-05
4.31338e-05
2.42444e-05
2.3462e-05
0.001697
0.0062379
5.76842e-06
8.96095e-05
8.25775e-05
0.0821387
5.14398e-05
3.21348e-11
1.44054e-06
1.66164e-09
3.96084e-09
4.66132e-08
3.21348e-11
1.92499e-23
4.12557e-07
1.69052e-06
1.24684e-06
5.84239e-06
7.43175e-06
3.45935e-06
1.54082e-05
6.22873e-06
7.16286e-06
2.82979e-05
5.06178e-05
2.91158e-05
7.49269e-05
0.000154751
1.2113e-06
1.68784e-05
3.31447e-10
2.83309e-10
3.22694e-10
1.57391e-06
5.07127e-06
2.70936e-10
6.15248e-11
1.08241e-09
1.8793e-10
3.22819e-10
2.34666e-10
8.68703e-12
8.33394e-12
7.58058e-10
1.34362e-16
1.3447e-16
3.46982e-16
1.34132e-16
2.25418e-16
2.20762e-16
4.17846e-18
9.10041e-19
1.8305e-18
2.24801e-18
2.75513e-18
2.74272e-18
3.38408e-18
2.63629e-18
1.1705e-24
4.79911e-25
4.79911e-25
1.55638e-25
7.95857e-25
7.71013e-25
9.97563e-25
2.82076e-28
1.35999e-27
3.66506e-27
1.38641e-27
2.23063e-27
3.10916e-28
1.3369e-27
6.16623e-26
2.10105e-26
1.1086e-25
3.09687e-26
1.46429e-26
1.48155e-26
1.45765e-26
3.70047e-21
3.61406e-20
3.93769e-23
1.46997e-24
6.34921e-21
2.33093e-21
7.85667e-24
1.2183e-21
1.66194e-24
1.18048e-21
1.43766e-24
1.43766e-24
1.40535e-24
1.40535e-24
1.40535e-24
2.16975e-22
7.2039e-21
2.63962e-20
1.81395e-20
7.75206e-21
4.49054e-20
7.06692e-17
6.1092e-20
5.91804e-20
6.96742e-21
7.19137e-21
4.22153e-15
2.18059e-15
6.12262e-15
7.97334e-16
8.75044e-16
7.75728e-16
7.97334e-16
9.45182e-15
9.42562e-14
1.53849e-14
9.16972e-14
4.80453e-12
2.46334e-14
1.56736e-14
1.63593e-15
4.75622e-12
1.11064e-13
1.06311e-10
4.09075e-08
1.03152e-09
1.75819e-11
2.28335e-11
4.6409e-11
1.40795e-11
1.44855e-11
2.43948e-11
1.58276e-11
0.0398229
0.151615
0.461445
0.217903
0.207139
0.0495454
0.0493819
0.0650364
0.0551077
0.0650364
0.000359927
0.0122868
0.00186641
0.00272063
0.0138271
0.180365
0.444661
0.0848178
0.000369701
0.0162862
0.0689472
0.00150273
0.000945118
0.0197322
0.00155725
0.00293575
0.00725251
0.124476
0.922186
0.922286
0.922286
0.922286
0.90691
0.922044
0.628497
0.329748
0.845614
0.785022
0.845614
0.845614
0.845614
2.15942e-14
1.66458e-14
2.29492e-14
1.21002e-13
3.69288e-14
1.02153e-13
4.78428e-14
5.79078e-15
8.53038e-16
9.53431e-16
9.20658e-16
9.04495e-16
9.56453e-16
9.40716e-16
9.65447e-15
2.78305e-14
8.89014e-15
5.6748e-14
4.21827e-14
1.06362e-13
1.04721e-14
1.45753e-13
3.01843e-14
2.39246e-14
3.53215e-14
1.70976e-13
9.83443e-14
2.6658e-14
3.60144e-17
1.76295e-16
1.73094e-16
2.70512e-14
4.11973e-16
2.75202e-16
1.44585e-16
1.89158e-16
3.177e-17
3.6307e-17
1.08565e-17
9.12854e-18
2.50808e-17
1.53452e-17
1.46715e-17
9.1662e-18
1.281e-17
2.68895e-16
2.68895e-16
3.20943e-16
5.76256e-16
3.56063e-16
2.63432e-16
4.68393e-16
1.95732e-15
3.26294e-13
2.00784e-15
4.48381e-16
3.24796e-16
4.97789e-13
4.48381e-16
1.70922e-13
1.69501e-13
1.68516e-13
1.76462e-13
1.04859e-12
3.09276e-13
3.11414e-13
9.46091e-10
9.49451e-10
9.49275e-10
9.76139e-10
9.59112e-10
9.57059e-10
9.47297e-10
9.13652e-10
8.9952e-10
1.27228e-09
8.9948e-10
8.92299e-10
1.03521e-09
9.32956e-10
1.13444e-08
2.09668e-10
6.61922e-11
4.63028e-10
9.47999e-11
7.53124e-07
1.22443e-07
3.38915e-08
3.07247e-05
5.62433e-06
1.95322e-05
1.89887e-07
0.72818
0.732809
0.998337
0.822864
0.818295
0.246121
0.954704
0.000192496
8.6694e-05
0.000183922
9.97118e-08
3.48445e-05
4.79357e-06
1.00009e-07
1.44595e-05
1.9183e-09
5.11562e-06
1.9183e-09
2.6596e-09
3.17487e-09
3.64086e-09
4.00906e-39
-1.73711e-76
-1.29876e-75
5.40865e-12
6.79958e-15
6.79957e-15
2.11305e-33
1.44731e-17
5.48082e-07
3.42666e-08
9.65072e-22
0
9.51896e-12
5.95329e-05
2.30237e-06
3.7289e-06
1.23039e-05
1.75731e-06
1.75573e-06
7.31337e-05
2.3504e-05
4.62363e-05
5.72013e-12
2.74215e-05
3.55167e-05
8.0148e-05
9.41254e-07
2.6697e-06
3.67584e-07
2.32971e-07
8.42077e-07
1.85326e-07
2.34891e-07
4.51645e-25
3.91825e-25
3.94049e-25
3.49409e-25
2.86211e-25
2.7995e-25
1.87666e-24
4.43181e-26
4.48215e-26
3.5659e-25
2.96208e-26
2.06989e-26
6.49875e-26
2.21027e-25
9.51644e-30
1.78157e-30
1.77402e-30
9.806e-30
7.82217e-30
1.79518e-30
6.01409e-30
5.3155e-36
5.36423e-36
1.07573e-34
1.35807e-34
1.57113e-34
1.16964e-34
1.21463e-34
1.16822e-34
1.78035e-35
1.42436e-39
2.01899e-39
4.01571e-39
3.69283e-39
2.33138e-39
3.92529e-39
6.47384e-39
4.4287e-35
2.32592e-35
3.4064e-33
2.15199e-35
2.00284e-34
2.23483e-35
2.67033e-34
7.72611e-33
2.20865e-29
1.82903e-31
9.60258e-32
5.95655e-33
9.48258e-33
5.67704e-33
4.02914e-32
4.53686e-33
9.89131e-33
1.50967e-27
4.5038e-29
4.41021e-31
2.79193e-30
9.23213e-28
2.21768e-31
1.4283e-24
1.90453e-26
1.0741e-22
1.96682e-26
1.88867e-26
1.13293e-25
1.74167e-26
2.28417e-23
1.74167e-26
1.51013e-26
1.66194e-24
1.40535e-24
5.98898e-22
3.64826e-21
4.20402e-22
7.40178e-22
9.26025e-22
1.01705e-21
2.8455e-20
5.35417e-21
2.38909e-13
1.98297e-12
3.81136e-13
3.69104e-13
2.49616e-13
7.0943e-13
2.38909e-13
0.160035
0.0124111
0.0195467
0.000415353
0.144689
0.958433
0.956823
0.960094
0.944033
0.93171
0.705118
0.958616
0.0479348
0.0410069
0.0592481
0.0617228
0.0213359
0.00789667
9.83888e-06
0.203282
0.605681
0.344787
0.0258339
0.145414
0.00562887
0.0134628
0.00100677
0.000868427
0.000873436
0.00199143
0.00424843
0.00532478
0.00360126
0.0353629
0.0128493
0.0346356
0.00232419
0.00234827
0.000357049
0.000358211
0.00132659
0.000366482
0.000358314
0.00156424
0.000730622
0.922286
0.768832
0.235806
0.962543
0.964416
0.964416
0.964416
0.964416
0.964321
0.96441
0.963898
0.885526
0.963954
0.595844
0.964381
0.900033
0.964515
0.962133
0.964265
0.964816
0.964806
0.955181
0.7539
0.964608
0.96423
0.879519
5.67655e-08
5.79459e-08
5.26378e-08
2.33824e-08
2.06902e-08
5.07639e-08
2.71037e-08
5.67655e-08
8.73188e-07
5.59446e-06
3.53718e-12
5.71665e-11
1.74931e-12
1.6532e-12
2.3451e-11
5.97559e-13
1.49317e-12
2.7867e-09
2.76244e-09
5.47024e-09
4.81349e-09
1.76177e-08
3.90225e-09
6.15801e-10
5.12767e-14
5.1392e-14
5.35489e-14
5.12886e-14
4.04462e-12
5.85026e-14
5.12767e-14
0.00273839
0.000449828
0.000908872
0.00130772
0.000395271
0.00147967
0.00454924
0.00126453
1.73847e-06
0.00795187
0.00149961
6.63709e-08
0.00795187
0.00120228
7.97218e-06
0.00293775
0.0073042
0.0459681
0.0137989
0.00174111
8.36243e-06
4.1013e-05
7.77804e-05
3.60779e-05
6.05442e-05
0.000223134
3.60576e-05
3.60575e-05
1.38266e-05
3.8174e-05
5.22053e-06
0.000160612
0.000476557
0.000129519
0.000106979
2.4321e-05
9.41312e-07
2.63313e-05
1.4887e-05
7.43734e-07
1.17229e-05
1.1685e-05
1.67151e-05
5.4157e-06
5.09657e-06
7.15809e-06
2.39349e-06
1.19055e-07
1.9646e-06
1.70757e-06
8.03444e-07
4.98137e-05
2.88554e-05
0.000129025
2.21371e-05
5.02524e-05
0.000108603
3.96864e-06
3.5709e-05
8.77774e-05
8.76176e-05
1.16343e-12
1.16343e-12
1.16343e-12
1.16343e-12
1.22544e-12
1.76484e-12
2.17219e-12
1.22544e-12
1.32765e-11
2.7404e-10
1.95379e-13
2.19813e-13
2.15113e-13
3.74118e-12
2.27253e-13
2.27253e-13
1.30492e-19
1.29305e-19
1.30492e-19
1.2407e-19
1.33136e-18
1.27198e-19
1.31348e-19
2.03113e-34
1.64221e-35
4.41537e-34
1.82288e-34
7.60449e-36
2.67139e-34
3.93431e-34
6.41884e-36
3.6349e-34
7.59958e-45
7.59958e-45
8.32056e-45
4.15541e-44
8.5449e-45
7.64344e-45
2.06381e-44
1.0057e-45
5.10045e-43
1.55465e-44
1.0057e-45
5.61074e-48
3.9247e-44
1.8512e-45
1.69509e-41
1.03944e-41
3.17739e-41
6.04375e-42
7.44795e-41
6.04138e-42
1.10166e-41
1.5881e-37
1.85141e-37
5.852e-37
3.52289e-36
1.27778e-36
1.81353e-36
8.07569e-36
1.11051e-37
2.5175e-37
2.48008e-37
1.51133e-35
1.05135e-33
2.26298e-35
1.74706e-35
6.67931e-36
9.21573e-36
4.34218e-32
9.91006e-33
2.2983e-31
6.07833e-27
2.25631e-26
1.46058e-26
1.25627e-26
1.40806e-26
1.78507e-26
2.22877e-26
1.63962e-12
9.49e-12
1.682e-12
1.70297e-11
6.61709e-13
2.02162e-10
8.9901e-13
7.18845e-08
1.2432e-08
2.08058e-09
6.27067e-09
6.80248e-09
6.02403e-10
1.29009e-09
9.57378e-11
9.56127e-11
9.47985e-11
1.89876e-08
1.70517e-09
6.20033e-12
1.01263e-11
2.93683e-07
9.81289e-08
3.11296e-07
9.82373e-08
1.51165e-07
2.21797e-07
4.63375e-07
6.54053e-05
0.000266923
6.92746e-05
2.30499e-06
3.05062e-05
3.05631e-05
7.44498e-05
0.00215578
0.0013885
0.00279344
0.00242944
0.00147637
0.00268742
0.00267141
0.000301741
0.000270339
0.000472813
0.000165117
0.000338499
1.02301e-05
8.31087e-05
1.82291e-05
9.74847e-06
1.03266e-05
3.03189e-05
1.10905e-05
3.1751e-05
0.00730556
0.0330104
0.00716711
0.00278154
0.0255798
0.00835596
9.62194e-06
3.13262e-05
9.6493e-06
9.62834e-06
9.62194e-06
9.29839e-05
1.02396e-05
0.964816
0.961091
0.964813
0.910229
0.910288
0.910289
0.9115
0.910288
0.908459
0.910288
0.955114
0.955299
0.955114
0.955084
0.508347
0.912473
0.928043
0.928043
0.928043
0.928016
0.926317
0.892257
0.477673
0.870316
0.910155
0.574579
7.94627e-06
8.49082e-06
0.000103307
1.86358e-05
0.000575179
1.57004e-05
0.000493654
0.000316684
0.000316684
0.000316684
0.00031798
0.000318181
0.000557087
0.000598343
4.17789e-05
7.51938e-05
7.0553e-05
0.000546068
0.000403042
0.000314555
0.000155305
0.000317532
0.000558388
0.000319417
2.95735e-05
3.27651e-05
3.53021e-05
5.56611e-06
1.46266e-05
8.48628e-06
0.000146441
0.000108065
7.53439e-05
2.78103e-05
7.42291e-08
3.21796e-07
7.60266e-08
1.80625e-06
7.66993e-08
3.70643e-08
6.33919e-09
2.18773e-08
1.16343e-08
1.06523e-05
1.96859e-05
3.49826e-05
3.46557e-05
3.49246e-05
3.48045e-05
8.14857e-06
1.48863e-05
8.50887e-06
4.63314e-05
8.35433e-06
8.36332e-06
4.33179e-05
4.60938e-05
2.16961e-14
7.87894e-18
1.15062e-13
4.48012e-15
5.64842e-11
4.48012e-15
9.14641e-16
1.30492e-19
1.99463e-19
1.39713e-19
2.89104e-22
2.60068e-23
2.07047e-22
1.04671e-22
5.44717e-26
7.18086e-24
3.3212e-23
5.79521e-25
6.46357e-25
6.57139e-25
8.14926e-25
7.72921e-25
6.30827e-25
4.56539e-25
4.13862e-25
4.95795e-25
5.79521e-25
8.45895e-25
6.38068e-24
8.44751e-30
2.91279e-33
2.91279e-33
1.45725e-29
1.92814e-29
2.91279e-33
1.55456e-30
2.91279e-33
4.77877e-31
3.41832e-33
4.51366e-34
2.52475e-34
1.70224e-36
1.70224e-36
1.70224e-36
4.96383e-34
1.49821e-38
1.58913e-38
1.33921e-38
1.11886e-38
1.39535e-38
9.65345e-39
4.80954e-39
1.75864e-45
8.66529e-46
1.55141e-47
1.55141e-47
1.55141e-47
1.12102e-45
1.55162e-47
8.79199e-48
8.38805e-46
6.27497e-48
1.68529e-48
1.67054e-48
1.63981e-48
1.82527e-44
9.26256e-43
1.02797e-45