/*--------------------------------*- C++ -*----------------------------------*\
| =========                 |                                                 |
| \\      /  F ield         | OpenFOAM: The Open Source CFD Toolbox           |
|  \\    /   O peration     | Version:  v2012                                 |
|   \\  /    A nd           | Website:  www.openfoam.com                      |
|    \\/     M anipulation  |                                                 |
\*---------------------------------------------------------------------------*/
FoamFile
{
    version     2.0;
    format      ascii;
    class       volScalarField;
    location    "0.25";
    object      p;
}
// * * * * * * * * * * * * * * * * * * * * * * * * * * * * * * * * * * * * * //

dimensions      [1 -1 -2 0 0 0 0];


internalField   nonuniform List<scalar> 
6576
(
-411.147
-435.356
-402.292
-410.2
-418.495
-397.948
-397.988
-383.323
-404.646
-402.146
-400.156
-392.187
-379.062
-394.702
-303.287
-321.972
-357.746
-352.528
-325.208
-317.335
-361.144
-388.71
-397.113
-468.645
-296.997
-253.858
-180.102
-439.209
-442.162
-437.822
-430.393
-420.401
-382.088
-284.308
-267.322
-281.964
-309.985
-306.795
-300.56
-302.703
-339.896
-384.406
-332.836
164.713
103.827
180.964
110.449
151.069
231.382
184.626
135.222
185.821
-2.92189
-2.92279
-2.93537
-2.89146
-2.89539
-2.90929
-2.90427
-2.92276
-2.89364
-2.88346
-2.86706
-2.89839
-2.92351
-2.89135
-2.69844
-2.73207
-2.74961
-2.76432
-2.7325
-2.7976
-2.76498
5.41036
5.21424
6.07829
5.69339
6.08765
6.11015
6.51328
7.76263
7.44992
7.2227
6.95062
7.40543
7.24014
6.98609
233.139
188.447
136.142
151.799
125.069
199.798
214.876
590.362
568.042
637.015
435.204
571.238
615.027
533.408
681.337
632.512
655.746
653.103
735.862
630.821
760.456
476.614
418.243
452.805
411.309
408.211
413.776
-2.67098
-2.88257
-2.52194
-2.72986
-2.87952
-2.51805
-2.60434
-10.0228
-6.64171
-71.1684
-39.0107
38.8385
-23.4922
8.33144
-2.63872
-3.34043
-2.79783
-3.92249
-3.76099
-3.92943
-4.28659
0.67847
2.44586
0.315605
-0.764735
1.79595
3.07625
0.0746371
-4.47092
-3.94599
-3.57464
-4.9474
-3.69664
-3.26216
-4.39341
-8.2529
-7.65343
-9.21725
-6.05371
-6.63447
-7.7515
-6.95203
-8.67533
-9.53717
-7.99752
-7.99727
-8.98775
-7.28371
-6.78163
-7.90278
-6.97434
-11.8322
-12.5702
-11.9259
-10.5767
-11.7289
-12.3519
-11.1611
-11.0222
-10.6852
-9.98973
-10.5531
-10.5872
-8.84475
-9.35344
-9.00703
-8.5807
-8.13575
-8.01218
-7.39467
-8.18707
-7.72959
-6.59263
-7.76927
-7.88333
-7.08967
-7.40434
-7.60717
-7.5853
-7.85868
-7.89478
-7.74492
-7.64164
-7.79686
-7.27074
-7.42343
-7.23822
-7.8161
-7.34755
-7.26476
-5.79059
-5.80181
-6.1519
-6.96737
-6.28788
-6.63451
-6.57696
-3.55006
-4.04061
-4.73419
-3.1173
-4.19122
-4.2824
-4.82035
-6.21662
-5.98196
-5.88206
-6.99061
-6.33296
-6.54889
-6.7119
-7.79241
-7.3021
-7.89872
-7.48916
-8.34325
-8.82847
-7.73417
-9.1123
-10.1332
-10.1357
-8.90712
-8.21017
-9.40138
-9.80947
-14.447
-13.1237
-13.2206
-12.7493
-13.2763
-13.4264
-14.2101
-14.5558
-13.299
-15.5584
-15.2055
-14.1877
-15.4435
-14.0753
-13.7273
-15.6399
-11.4352
-10.2088
-11.5723
-11.7105
-12.1876
-10.7589
-11.7076
0.66224
-0.143546
1.50514
1.03746
1.12673
0.460095
1.11647
344.996
341.755
312.707
329.506
313.262
245.351
278.794
274.458
299.216
119.262
155.047
111.5
112.678
65.6586
84.3475
27.8944
4.04011
4.41097
4.49465
4.55099
4.27646
4.337
4.25285
4.39921
4.2732
176.506
121.505
142.875
6.10723
7.35543
5.42782
7.6571
6.93019
5.57413
6.03393
-1.57226
-1.64577
-1.61838
-1.61949
-1.54766
-1.54653
-1.63388
-0.170152
-1.50342
-2.17936
-1.15736
-1.44766
-1.63289
-1.42268
-1.51678
-1.90319
-1.55812
-1.55608
-1.59327
-1.52668
-1.54093
-1.53755
-1.55115
10.3182
10.6445
11.6916
8.8494
10.1131
10.6422
9.36299
9.11232
7.95295
10.102
6.54261
6.46055
8.2915
7.44471
8.81559
9.75924
11.4759
24.9107
7.73871
6.49983
11.9617
5.05928
3.53376
6.24368
5.12698
427.839
417.544
443.009
405.074
437.35
428.195
472.649
337.929
346.731
361.795
374.8
343.978
262.082
330.38
313.157
311.159
257.27
185.513
299.048
352.322
378.216
284.876
325.499
120.768
91.5239
220.167
239.802
252.657
161.364
177.17
-2.06688
-2.23561
-2.18202
-2.74949
-2.86244
-2.63599
-2.70136
-2.29241
-2.2741
-1.50264
-1.50616
-1.62194
-1.58622
-1.64487
-1.52154
-1.55695
-1.50492
-1.46737
-1.42815
-1.48913
-1.53847
-1.4885
-1.51864
-1.46805
-1.49694
3.98796
3.47922
-0.7572
7.59252
6.44649
6.08555
7.04436
14.6695
5.07922
-19.1078
32.7585
5.36851
15.2106
20.0163
-19.733
-20.2943
-19.5836
-19.4889
-19.0282
-19.9919
-19.3674
-17.8912
-18.9257
-17.2536
-17.6579
-16.7716
-16.6312
-16.8187
-13.9309
-15.4617
-15.0528
-12.8223
-13.6433
-14.9943
-14.3919
-7.97209
-8.00269
-6.48715
-7.71647
-6.79843
-3.79534
-4.74669
-4.60456
-5.86063
-5.27281
-5.64357
-5.34424
-4.25985
-4.67152
-4.67064
-5.00187
-4.78872
-3.32269
-4.34015
-3.9094
-4.40233
-3.17761
-4.019
-4.19285
-4.02711
-3.79515
-4.23515
-4.15696
-4.08476
-3.67706
-3.97636
-3.98473
-3.158
-4.05896
-3.54671
-3.85926
-3.27337
-4.77517
-4.51184
-5.06599
-4.67508
-3.79677
-3.04623
-4.38579
-3.13914
-3.56641
-3.62809
-4.24106
-3.90005
-2.89186
-3.1934
-3.60407
-3.55521
-3.34715
-3.12866
-3.53524
-3.49268
-3.62836
-3.55566
-3.09268
-3.31805
-3.68097
-3.61396
-3.49442
-3.42481
-2.87624
-3.60269
-3.68982
-3.45173
-3.84772
-3.02966
-3.78526
-3.08733
-3.6191
-3.64689
-3.40917
-2.8205
-3.01285
-3.08123
-3.60267
-3.52498
-3.26464
-3.3638
-3.81333
-3.33656
-3.22553
-2.87901
-2.9403
-3.87224
-3.45506
-3.35173
-3.88983
-12.6958
-12.8973
-13.7308
-12.8349
-11.0893
-13.2623
-11.5591
-12.5698
-13.6993
-16.897
-17.6922
-16.5161
-16.5468
-15.448
-16.7265
-16.0662
-15.629
-14.7835
-16.5866
-15.8518
-14.7318
-14.1911
-15.5219
-18.2568
-17.7936
-18.8212
-17.1459
-17.0828
-18.3454
-18.0667
-14.814
-13.0665
-13.5097
-16.1597
-16.5218
-12.027
-10.7639
-12.0946
-11.2305
-12.2639
-10.6955
-11.804
-8.86963
-7.94898
-8.17765
-8.02341
-7.35402
-7.59724
-8.4094
-3.47267
-2.20606
0.0124659
-4.588
-1.25661
-3.20015
-5.89069
-1.79467
-1.76537
-1.80437
-1.75014
-1.7562
-1.78713
-1.77621
-1.64701
-1.68384
-1.67277
-1.62604
-1.629
-1.63472
-1.64435
-1.67213
-1.66081
-1.58109
-1.56657
-1.58598
-1.56154
-1.58026
-1.55696
-1.59255
-1.51197
-1.41701
-1.44055
-1.44975
-1.36803
-1.39043
-1.47578
-1.12456
-1.15568
-1.23289
-1.13332
-1.18823
-1.15012
-1.26156
-0.857703
-0.844047
-0.920238
-0.921241
-0.971286
-0.906423
-0.873192
0.592445
0.421278
0.466991
0.720878
0.465351
0.867456
0.450816
1.74093
1.95387
1.78117
1.70629
1.39748
1.96976
1.7856
1.91228
1.6653
1.51401
1.77013
1.81223
2.00333
1.88521
1.85554
1.64975
1.71181
1.48221
2.72264
2.75338
2.6094
2.70716
2.38536
2.51305
2.75495
2.33949
2.5391
2.28945
2.61813
2.81278
2.6471
2.58126
2.30828
2.23293
3.80365
4.00338
3.84417
3.65181
3.03021
3.49645
4.84024
4.72202
4.52844
4.33346
4.78314
5.43822
6.49146
4.72646
4.52279
4.67246
4.58192
4.67275
5.06722
4.98932
4.4391
4.32585
5.18906
7.15358
10.8249
6.65544
12.7016
11.8583
31.6665
10.3847
17.6412
66.4845
34.987
9.54801
21.3755
8.25508
8.65523
4.01996
202.374
176.656
149.469
106.021
70.7833
118.766
151.712
404.171
373.598
392.805
511.396
601.932
626.942
636.567
654.957
626.994
586.846
493.029
521.448
495.983
507.968
591.675
529.487
425.663
582.844
494.696
499.051
563.021
506.149
587.561
637.033
631.402
680.884
645.871
631.651
635.228
698.81
652.761
606.159
617.5
652.43
664.306
618.767
676.011
635.575
616.165
623.164
583.936
694.697
638.512
650.423
732.98
657.716
623.211
697.343
664.496
591.032
634.183
627.883
723.516
573.75
632.784
503.018
512.446
408.881
554.531
525.939
485.942
543.614
541.455
438.934
530.245
568.599
570.481
560.735
594.301
18.272
21.8126
13.6003
15.5112
26.4286
3.981
18.2225
43.331
58.943
66.7806
65.2653
43.5228
35.0233
40.734
-19.6093
13.4518
1.57671
36.4821
10.0517
10.2974
0.525274
-0.304947
-1.35839
-10.9357
-7.31713
-0.827649
-1.18141
-3.12618
-2.08421
-1.47537
-3.18628
-3.36218
-4.4688
-1.93013
2.52176
-1.7562
2.38417
-3.05695
-3.78631
-2.41999
-2.56342
-2.39009
-2.32039
-2.44466
-2.22377
-2.34474
-5.14338
-5.36183
-4.3519
-6.0098
-5.54437
-5.17993
-5.71649
-5.31867
-4.84939
-5.49406
-5.75576
-5.04929
-5.70755
-6.22185
-8.45231
-8.86591
-7.9902
-6.65736
-7.37324
-8.21378
-9.6684
-9.91488
-7.30253
-6.30898
-8.19056
-8.38054
-7.10619
-5.6566
-6.80057
-4.72263
-5.2055
-6.59623
-6.97074
0.884971
-0.110945
0.387523
0.460853
0.850039
-0.0742205
0.308251
0.437803
0.473577
0.564076
0.739149
-0.515117
0.392693
0.33242
0.371284
-0.0176074
-1.03276
0.185084
0.518724
0.502221
0.183555
-2.02629
-0.442751
-0.459795
-0.490695
-0.160457
-1.38233
-1.16554
-1.14877
-0.932359
-0.598191
-1.01069
-0.188636
-1.37713
-2.57434
-3.74972
-4.00787
-3.61954
-3.39309
-3.24295
-2.52403
-3.53869
-3.31765
-2.92194
-2.78201
-7.0701
-7.05824
-7.19711
-6.76799
-7.68396
-7.23869
-6.47836
-3.70316
-4.77198
-4.64501
-4.80394
-4.84319
-4.99547
-4.50715
-6.25205
-5.60685
-4.70474
-6.8579
-6.95156
-6.47915
-5.91068
-3.65999
-3.65458
-3.64862
-8.00239
-7.46356
-8.81303
-5.79343
-7.11915
-7.92288
-6.79519
-3.81731
-3.77118
-3.02469
-4.09694
-4.13575
-3.72733
-4.25431
-3.24212
-4.13723
-4.01208
-4.21348
-4.54232
-3.59597
-3.22222
-3.10712
-4.06665
-4.06543
-3.82671
-3.86755
-3.44807
-4.12518
-3.91902
-3.16488
-3.85751
-4.11099
-3.0202
-8.29674
-9.32178
-7.47536
-6.26332
-6.23717
-7.32116
-8.17669
-6.74728
-6.32591
-13.5971
-14.1859
-15.1214
-12.6177
-14.2871
-15.4002
-13.7722
-9.71041
-9.29939
-9.76197
-7.99484
-8.57051
-8.89405
-9.2291
-7.81522
-8.42414
-8.16932
-7.49714
-6.81883
-6.42449
-5.76659
-5.00164
-6.02096
-7.27129
-7.12686
-8.11076
-9.51238
-5.86054
-6.3442
-8.13588
-8.36021
-7.81729
-7.64973
-6.47774
-7.48907
-2.14011
-2.08102
-2.09327
-2.11442
-2.07994
-2.07776
-2.07807
-2.07254
-2.07892
-1.65116
-1.66796
-1.65376
-1.62193
-1.62743
-1.6384
-1.62805
-1.57251
-1.60372
-1.57605
-1.57243
-1.54941
-1.55568
-1.58305
-1.48034
-1.45396
-1.47361
-1.48017
-1.45386
-1.49027
-1.45613
-1.45607
-1.48521
-1.31049
-1.33711
-1.31482
-1.3581
-1.35583
-1.33001
-1.32994
0.109188
-0.0127502
0.00538317
-0.0895953
-0.00617415
-0.0681635
-0.0297769
0.493227
0.499849
0.673977
0.462348
0.421227
0.294921
0.482061
0.375335
0.550935
0.373602
0.493246
0.659923
0.509966
0.521673
0.399545
0.284631
0.880819
1.14268
1.09325
1.12377
1.34428
1.20771
1.3489
0.746397
1.16133
1.00103
1.92991
2.17992
2.00647
2.54579
2.96018
2.80506
16.1267
10.8187
12.0329
10.6175
11.0421
13.9156
10.7568
696.863
613.082
636.658
651.889
611.634
734.722
684.635
596.131
617.661
619.597
740.873
633.007
669.278
618.784
465.584
524.855
515.002
492.147
511.834
630.963
707.356
451.224
508.768
197.001
287.675
202.751
311.267
206.259
221.806
276.957
420.781
291.093
356.5
517.821
325.445
277.538
103.334
185.945
220.286
271.7
246.564
270.875
300.883
84.4555
26.1774
66.8268
67.8388
50.8029
68.9424
121.126
0.44042
-7.75443
-4.59981
-6.92686
-7.30938
-6.87829
-4.96644
-6.82934
-7.80999
-7.72553
-8.15373
-8.47876
-8.16394
-7.73849
18.5525
-3.33983
26.4014
-4.42712
22.9431
-7.33136
0.00380351
6.07588
-72.5832
36.6043
11.7793
-5.12411
30.4729
-33.6906
8.85201
9.08883
9.20386
9.26795
8.95789
8.78835
9.17379
7.25773
6.47393
7.74293
8.53893
7.73378
7.74801
7.86959
6.92037
6.80379
6.6987
6.6492
6.55097
6.81512
6.53547
-0.866112
-0.274083
-1.30951
-1.1839
0.275238
0.076373
-0.830403
-0.445826
-0.551024
-1.94662
-0.0361233
0.743499
0.385067
-0.554654
-0.181441
-1.49493
-0.0642129
-0.0662284
0.127762
-1.27327
-0.578998
-0.537912
0.534417
0.0797531
0.657375
0.970122
0.370698
0.000955195
0.980861
1.51885
0.883504
1.78264
1.8098
1.28078
1.31784
-0.0097193
0.749065
0.302845
0.00597341
0.677526
0.0281319
0.603661
0.610753
-0.0476326
2.2149
2.93393
2.35173
2.20403
1.90072
2.55341
2.18291
2.21171
1.93723
1.74668
2.3342
2.68014
2.21801
2.03882
1.27668
1.59634
1.26773
1.32936
1.19885
1.14915
1.25005
0.904217
1.61299
1.55753
1.34896
1.47021
1.25424
1.28203
1.32365
1.68346
1.35374
0.602028
1.32212
1.18941
-0.828451
0.173082
0.452981
-3.88222
-3.37615
-2.6208
-3.27235
-2.87554
-3.06561
-1.96827
-6.62444
-4.12783
-6.30711
-8.39412
-7.01688
-7.35467
-8.20648
-7.59416
-6.48019
-6.98487
-7.14737
-6.05951
-9.93886
-8.75134
-8.64648
-10.6904
-11.3813
-10.1358
-9.54071
-10.8724
-12.0044
-10.7462
-12.7956
-12.0179
-10.7634
-11.3142
-12.8317
-12.0105
-10.8608
-14.0301
-14.2303
-6.39884
-7.92502
-7.85378
-6.47933
-7.68691
-7.34953
-8.31186
-14.7478
-14.1744
-13.4884
-12.7104
-13.5267
-14.2214
-14.8833
-7.88583
-6.80567
-7.63227
-7.77501
-6.66599
-7.50882
-8.49527
-4.02232
-4.24847
-3.90767
-3.77999
-3.5189
-4.10174
-4.84861
-4.0397
-4.36725
-5.55954
-3.73988
-3.09242
-4.50963
-3.35178
-3.22096
-3.59335
-3.18275
-3.56745
-4.51544
-3.8032
-2.52733
-3.44023
-2.95628
-3.33316
-3.58788
-3.0194
-3.29768
-2.91959
-3.55917
-3.71987
-3.32761
-2.86508
-3.0603
-3.44679
-3.34924
-3.50209
-3.29559
-3.34977
-4.05088
-3.51316
-3.9036
-3.59626
-3.38883
-3.32531
-3.15697
-3.23566
-3.27981
-3.14281
-3.27428
-3.26892
-3.03494
-3.86091
-3.92012
-4.40059
-3.83607
-4.51311
-4.01029
-4.03233
-1.98862
-1.93807
-1.74515
-2.14654
-2.21949
-2.11984
-1.95108
-1.74356
-1.6326
-1.67184
-1.69255
-1.73763
-1.80934
-1.7325
-2.17646
-2.17826
-2.3365
-2.10167
-2.21093
-2.18437
-2.31887
-1.82156
-1.83767
-1.82362
-1.88122
-1.85237
-1.87472
-1.85867
-1.83998
-1.8465
-1.90997
-1.99514
-1.94082
-1.8505
-1.90972
-1.96742
-1.90623
-1.91524
-1.9148
-1.92723
-1.9293
-1.92479
-1.90993
-1.91588
-1.82031
-1.79577
-1.82134
-1.82621
-1.85087
-1.82973
-1.85235
-1.816
-1.84077
-1.80085
-1.83762
-1.8199
-1.76671
-1.78404
-1.78026
-1.79837
-1.82547
-1.80714
-1.68212
-1.71497
-1.71225
-1.68948
-1.72139
-1.6749
-1.70395
-1.41308
-1.39998
-1.35293
-1.41123
-1.44793
-1.41882
-1.38055
-1.38677
-1.36551
-1.4103
-1.30659
-1.33711
-1.37178
-1.34602
-1.04711
-1.02765
-0.957923
-1.0436
-1.09096
-1.05192
-0.999906
-1.06037
-1.03923
-0.997969
-1.01909
-1.05146
-0.972137
-1.00885
-0.821801
-0.873266
-0.820738
-0.794476
-0.715623
-0.779081
-0.828203
-0.257397
-0.318213
-0.334983
-0.244889
-0.289685
-0.33192
-0.319356
-0.469561
-0.567089
-0.558809
-0.647748
-0.584887
-0.547227
-0.615145
-0.167729
-0.291592
-0.270943
-0.399017
-0.191957
-0.3192
0.248945
0.0389836
-0.0264098
0.0369083
0.184726
-0.0357613
-0.0758854
-0.118182
0.0251868
-0.0430206
0.67818
0.57231
0.546807
394.256
365.843
401.403
358.721
280.944
351.205
402.92
232.656
227.179
197.989
194.851
80.5369
93.4826
203.501
256.539
250.547
366.856
222.517
162.368
223.894
103.278
103.774
154.819
233.991
309.166
93.1058
115.293
-4.09858
-3.77272
-7.63282
-4.28114
-0.830358
-2.93385
-6.93687
-6.52066
-8.74056
-8.94709
-8.29346
-6.97489
-8.08199
-8.63048
6.6801
6.36368
6.6499
7.17935
6.95297
6.74011
6.94556
12.4637
8.39621
8.86599
5.86966
7.57724
6.67397
6.35153
7.26414
7.08799
7.96774
8.01838
7.67377
8.19186
8.19091
11.7732
8.75973
7.75981
7.6681
7.67798
7.77845
7.71946
7.39825
7.52768
7.51808
7.37815
7.83715
7.75404
7.73574
7.79488
7.76132
7.76542
7.67167
7.74019
7.69951
7.67979
7.65609
7.72572
7.69813
7.68068
7.79077
7.80844
5.96636
4.79893
5.70809
4.69839
5.39887
5.46373
5.86459
5.39725
4.71839
5.28773
4.62513
5.13291
5.09096
5.46598
4.63076
5.25368
5.05679
5.24892
5.61787
5.23429
4.8196
3.28704
3.6073
3.65695
4.06956
3.63495
3.86075
4.29613
5.18442
5.70132
5.20415
5.31986
5.69017
3.27815
3.63099
3.64286
3.54609
3.17866
5.81346
5.24298
5.81305
5.52282
5.17268
3.23704
3.53761
3.70897
3.28756
3.02525
2.25115
1.85648
2.06841
0.33553
-0.283969
-0.13136
0.893109
1.01941
1.80097
1.58629
0.945217
0.620091
1.07516
1.26544
1.6577
-3.22187
-2.52071
-2.28892
-2.33625
-0.710074
-2.40201
-1.96076
-4.51006
-3.7742
-2.85275
-3.26836
-3.77905
-2.09147
-2.76011
-8.38569
-8.90291
-7.90975
-7.42705
-6.47137
-7.84213
-7.14967
-18.5466
-18.2995
-18.7346
-19.1523
-19.0008
-19.0428
-18.9893
-8.27184
-7.58645
-9.08644
-6.65746
-7.10654
-8.23009
-8.45947
-2.99046
-3.27177
-3.51893
-3.42607
-3.23845
-3.365
-3.43284
-3.27836
-3.34504
-3.86664
-3.50195
-2.93547
-3.32628
-2.87562
-3.03273
-3.00311
-3.07973
-3.08666
-3.12766
-3.10181
-3.02988
-3.04481
-3.10863
-3.18918
-3.4357
-3.01342
-3.03178
-3.17579
-2.96821
-3.65558
-3.13208
-3.16992
-5.41873
-5.09012
-5.16472
-4.93389
-3.00015
-5.49309
-4.87346
-3.50552
-105.792
-8.294
-24.7721
0.850002
-33.8942
6.65891
-3.88624
-5.50794
-3.85492
-2.21829
-4.72692
-5.13782
0.459606
-4.03063
-4.57277
-5.04857
-5.06269
-4.35718
-4.88157
-5.14408
-2.25529
-1.461
-2.03713
-2.42131
-2.49005
-2.42041
-2.32151
-2.95469
-2.64711
-4.83802
-1.2059
-2.36614
-2.81824
-4.39471
-2.02007
-2.07328
-2.12482
-2.0639
-2.14111
-2.27822
-2.1525
-2.58581
-2.43002
-2.44262
-2.35364
-2.39676
-2.54991
-2.47957
-2.37813
-2.45174
-1.98859
-2.03516
-2.02401
-2.01902
-2.07737
-2.06019
-2.01261
-2.04945
-2.04379
-2.09079
-2.06946
-2.05877
-2.11563
-2.10509
-2.07789
-2.0952
-2.05533
-2.06914
-2.05126
-2.03858
-2.02307
-1.88522
-1.87492
-1.84747
-1.86731
-1.89644
-1.87201
-1.8442
-1.48673
-1.52176
-1.47638
-1.46013
-1.41429
-1.45199
-1.48851
-1.26007
-1.30393
-1.3023
-1.30311
-1.34233
-1.34509
-1.31609
-1.12318
-1.07098
-1.14131
-1.14628
-1.16596
-1.15643
-1.11625
-1.18137
-1.13752
-1.17984
-1.13924
-1.07068
-1.141
-1.13329
-1.17664
-1.19863
-1.01085
-0.972831
-0.966419
-0.962644
-0.895837
-0.879422
-0.938204
-0.964367
-1.03434
-0.991052
-0.698284
-0.773856
-0.778901
-0.8139
-0.771919
-0.852282
-0.808943
-0.832959
-0.828586
-0.883162
-0.810292
-0.728932
-0.799309
-0.853694
-0.75926
-0.67976
-0.745779
-0.566065
-0.453828
-0.526905
-0.595507
-0.564478
-0.50428
-0.654738
-0.674571
-0.636189
-0.609398
12.6069
-6.79928
13.8668
6.0508
12.9564
10.6132
19.0546
-7.70932
-10.296
-7.55351
-6.99511
-7.56961
-6.59709
-6.47855
8.75657
7.04633
41.8214
6.4396
-7.39118
-4.19761
13.0419
-2.04179
-7.16309
-6.26216
-4.44763
-4.94186
-6.40801
0.0597669
861.643
329.548
799.482
559.544
499.674
524.054
703.232
-32.1814
-169.373
-126.071
33.4667
-55.2341
24.1307
9.04211
8.43569
8.72342
8.69541
8.25754
8.74578
8.42296
8.28409
7.81854
8.13454
8.08422
7.71839
8.19358
7.89537
7.48691
7.81973
7.84336
7.71478
7.94991
7.747
7.42865
7.829
7.7282
7.40533
7.75108
8.17571
7.87078
7.61548
6.21723
6.66232
6.64981
7.25873
6.82339
6.96825
6.61776
6.65343
6.06345
6.47471
6.62418
6.20357
6.64397
6.45512
6.75429
6.16573
6.53523
6.917
6.49042
7.10833
7.03278
6.68842
6.36372
6.82658
7.03079
7.95432
7.53348
7.61274
7.24617
7.47632
6.86534
8.59886
9.31123
9.19176
7.99445
8.40925
9.02792
9.02336
-5.03767
-4.83317
-4.87054
-2.39246
-3.46672
-3.33179
-3.56098
-5.71828
-6.58612
-5.61823
-6.05003
-6.99016
-6.00697
-4.58356
-7.21459
-7.06334
-7.79197
-6.14854
-6.93807
-3.85707
-6.1339
-5.65977
-5.16304
-3.50871
-3.52177
-3.88119
84.8161
2.28318
26.2719
17.8695
-1.91388
-6.14334
-2.19357
-4.85302
-5.50745
-6.24006
-3.68692
-2.68516
-5.01379
-5.81788
-3.66636
-3.91724
-2.85717
-3.46597
-3.65164
-3.54297
-3.86542
-2.41172
-2.77171
-2.53837
-2.74814
-2.88379
-2.79628
-2.91791
-2.82687
-2.90285
-2.80613
-2.7435
-2.93531
-2.83038
-2.9873
-2.94154
-2.97463
-2.94093
-2.93593
-2.92624
-2.99716
-3.00194
-2.98077
-2.96856
-2.96909
-2.94806
-2.95937
-2.91365
-2.83375
-2.88517
-2.94367
-2.89308
-2.85378
-2.89974
-2.26342
-2.31165
-2.28522
-2.30595
-2.33381
-2.29625
-2.27029
-2.2082
-2.18634
-2.16295
-2.19971
-2.22572
-2.19281
-2.16739
-2.10526
-2.08856
-2.06067
-2.12104
-2.14891
-2.11604
-2.08983
-1.97762
-1.94666
-1.99147
-2.00545
-2.03515
-1.99067
-2.02011
-1.96177
-1.99099
-2.03813
-2.00941
-1.9921
-2.03687
-2.00665
-1.97582
-2.00602
-1.58397
-1.57218
-1.5255
-1.64063
-1.60125
-1.60731
-1.5682
-1.49376
-1.45782
-1.46994
-1.54104
-1.58845
-1.59125
-1.61925
-1.58244
-1.64247
-1.60424
-1.38755
-1.44174
-1.43239
-1.44296
-1.37456
-1.50866
-1.28577
-1.30783
-1.21979
-1.31945
-1.34897
-1.29932
-1.28533
-1.24048
-1.29031
-1.31787
-1.11045
-1.12808
-1.05784
-1.19966
-1.22058
-1.16785
-1.14028
-1.17134
-1.18282
-1.21314
-0.941426
-0.919327
-0.968859
-1.02613
-1.02537
-1.00107
-1.00568
-5.59056
-1.4314
-1.70689
-2.60069
-1.37518
42.6648
-4.00605
25.5149
8.20673
17.2042
-8.63371
5.93074
-2.14213
-1.76257
-3.13321
-2.05277
-2.09369
-2.69613
-2.53159
-5.05982
-15.1312
1.83975
-2.42488
-3.43834
-9.05681
-8.9185
-9.28744
-9.59891
-9.3546
-9.50104
-9.6468
-8.74789
-9.76306
-8.39943
-8.96193
-8.75152
-9.37212
-8.47175
-8.58927
-9.13846
-9.63653
-9.96954
-10.8175
-10.7403
-10.0356
582.231
144.57
340.033
2842.17
1153.99
2351.17
2408.48
2042.79
3052.55
2269.47
2156.44
562.039
2739.64
1696.53
2468.04
2618.48
810.884
401.031
355.891
311.768
373.955
-214.25
144.822
424.911
3861.8
2352.41
9.33144
10.1279
10.0874
9.66248
9.39834
9.03138
9.37924
9.01982
9.09256
10.0112
9.24264
9.07886
9.16242
9.10333
9.23399
9.08263
9.35717
10.118
10.0345
10.0107
9.96537
9.86876
9.90191
10.0035
10.6324
10.7324
10.5951
10.447
10.5205
10.5696
10.4602
7.73307
8.70714
5.60486
3.74611
6.08191
6.51347
6.43173
5.23435
5.84527
5.00102
9.85653
7.67503
4.10735
5.88714
-0.631296
1.42731
2.09628
3.82865
2.30527
1.78509
1.19809
-2.96448
-2.34744
-1.29425
-1.96864
-2.68451
-0.437425
-1.77271
-2.70914
-2.23637
-2.57468
-2.09636
-1.88969
-2.51075
-2.52705
-2.88287
-2.87733
-2.7996
-3.00471
-3.16035
-2.7328
-2.59054
-2.62301
-2.79902
-3.29049
-3.15318
-3.33025
-3.58589
-3.23623
-3.21244
-3.2149
-2.99698
-3.03579
-3.07584
-3.00845
-3.03282
-3.07061
-3.02684
-2.93791
-2.94888
-2.99328
-2.9529
-2.94075
-2.93592
-2.93003
-2.93038
-2.92575
-2.91766
-2.96124
-2.93791
-2.93535
-2.9076
-2.90224
-2.934
-2.88495
-2.92347
-2.91442
-2.92334
-2.93479
-2.9202
-2.90426
-2.90261
-2.89232
-2.89015
-2.66302
-2.62816
-2.61305
-2.64616
-2.61207
-2.56327
-2.59725
-2.57952
-2.6131
-2.18509
-2.23318
-2.21762
-2.21533
-2.24721
-2.21644
-2.18446
-2.09197
-2.05881
-2.10874
-2.05878
-2.09062
-2.09233
-2.12399
-1.93898
-1.98225
-1.98639
-2.01455
-1.98128
-2.03992
-2.00383
-1.89261
-1.85978
-1.85453
-1.80877
-1.85415
-1.83352
-1.79804
-1.9126
-1.85689
-1.87482
-1.72727
-1.66657
-1.72733
-1.71408
-1.74504
-1.77628
-1.56435
-1.58304
-1.53117
-1.54308
-1.5075
-1.503
-1.55093
-1.51314
-1.48925
-1.52975
-1.38885
-1.36733
-1.40264
-1.37562
-1.39257
-1.39447
-1.4152
-1.40528
-1.43089
-1.36292
-1.39091
-1.40103
-1.34679
-1.3402
-1.54129
-1.53692
-1.52896
-1.60928
-1.5714
-1.56987
-1.59202
-1.83958
-1.74146
-1.75701
-1.67049
-1.65308
-1.71713
-1.67537
-2.2034
-1.93001
-1.9821
-1.8786
-1.91679
-2.153
-2.11437
-2.62636
-2.69696
-2.4603
-3.08712
-2.85577
-2.69073
-2.74773
-2.35575
-2.69298
-2.48031
-2.55985
-2.27059
-2.9241
-2.93469
-2.90622
-2.7457
-2.76221
-2.74459
-2.77692
-2.85051
-2.32468
-1.33609
-2.99066
-2.35963
-1.78368
-2.70015
-2.41987
-2.67714
-2.19738
-2.60375
-2.48681
-2.45921
-2.27035
1133.83
597.69
255.762
406.873
300.735
828.436
-134.187
112.397
-67.7574
54.0942
-688.827
39.1227
551.749
17.0749
172.933
-365.055
-79.502
178.89
49.7186
-301.323
58.369
-171.867
51.0382
-169.633
-6.36195
12.9321
9.10061
8.90509
8.87406
9.42187
9.7295
9.45528
9.39486
8.93013
7.28647
8.12909
8.91094
7.16522
9.00667
7.81812
7.69238
7.5984
8.83009
8.86339
7.99306
8.66014
8.4613
9.39985
7.41876
8.27238
9.90515
9.07259
8.51652
9.08799
8.48502
8.37448
7.89852
8.54368
7.80583
8.91673
8.93397
8.6545
8.60175
8.63724
8.81106
8.19735
8.75113
8.52859
8.78221
-1.67716
-1.65791
-1.71477
-1.75246
-1.70153
-1.69813
-1.67687
-1.70294
-1.74113
-1.67422
-1.73588
-1.71687
-1.70065
-1.71626
-2.52269
-2.46569
-2.44951
-2.42647
-2.46911
-2.52041
-2.47128
-2.88419
-2.87049
-2.90301
-2.73889
-2.68921
-2.72574
-2.75568
-2.72
-2.68841
-2.72342
-2.89125
-2.92171
-2.8829
-2.86271
-2.83129
-2.88939
-2.92039
-2.89246
-2.86263
-2.90523
-2.93636
-2.90412
-2.93453
-2.91889
-2.92005
-2.90281
-2.90129
-2.8876
-2.89038
-2.89404
-2.88174
-2.86417
-2.90091
-2.93228
-2.88309
-2.86772
-2.89977
-2.89878
-2.92371
-2.89341
-2.88445
-2.92369
-2.89148
-2.86707
-2.89753
-2.5147
-2.54604
-2.50028
-2.51172
-2.48289
-2.51375
-2.54447
-2.24202
-2.18502
-2.24169
-2.2242
-2.25704
-2.29247
-2.11139
-2.06149
-2.11528
-2.13466
-2.16245
-2.09767
-2.13073
-2.162
-1.96205
-1.97558
-1.93089
-1.87576
-1.91752
-1.88594
-1.85918
-1.88987
-1.91793
-1.8876
-1.88406
-1.91245
-1.86727
-1.87907
-1.84982
-1.91057
-1.88095
-1.7258
-1.75933
-1.74197
-1.7853
-1.75314
-1.78645
-1.75385
-1.74972
-1.76212
-1.73333
-1.77031
-1.79618
-1.79444
-1.76535
-1.66603
-1.63164
-1.62305
-1.56906
-1.60929
-1.63563
-1.60099
-1.7051
-1.67252
-1.6706
-1.71041
-1.67854
-1.65803
-1.69061
-1.46249
-1.42121
-1.4612
-1.49997
-1.4664
-1.44854
-1.48411
-1.51337
-1.54205
-1.54373
-1.54625
-1.50926
-1.50635
-1.53372
-1.39528
-1.42442
-1.4208
-1.41394
-1.444
-1.45052
-1.4204
-1.43731
-1.44085
-1.4643
-1.49197
-1.49753
-1.52774
-1.49865
-1.5123
-1.51687
-1.51943
-1.53479
-1.51924
-1.52407
-1.51383
-1.44956
-1.46235
-1.46924
-1.48734
-1.49583
-1.46073
-1.4595
-1.48104
-1.48359
-1.52068
-1.50845
-1.51571
-1.51874
-1.50746
-1.51738
-1.51467
-1.5131
-1.50936
-1.50324
-1.51321
-1.50672
-1.49039
-1.50314
-1.67111
-1.6585
-1.74077
-1.60382
-1.65321
-1.67794
-1.62291
-2.18024
-1.88462
-2.32631
-1.86775
-1.62702
-2.13723
-1.93859
-2.09189
-2.31474
-1.98764
-1.92129
-1.92947
-2.38325
-2.2081
2.42026
1.00763
12.083
-5.56379
-0.392105
4.45188
5.20551
-306.292
-20.0809
-101.349
99.0028
-54.9277
6.41722
24.7773
-40.9989
108.837
56.425
221.421
58.9291
102.093
52.7529
-182.684
20.7944
-102.181
60.83
15.2195
104.434
83.7517
216.586
160.043
709.295
45.0109
288.292
9.42738
-6.57857
28.8933
38.0573
51.9701
-29.4076
-1.19965
52.1864
7.9481
6.06729
5.85931
5.15811
7.10948
5.45868
6.29383
202.007
159.24
52.2478
267.053
385.899
328.402
201.723
-7.69928
12.934
90.8725
2.15961
25.3221
203.4
203.402
144.814
125.061
81.9686
99.7493
71.4941
80.5337
90.6524
67.1624
85.995
81.9536
85.6794
117.562
100.058
79.4799
137.658
115.928
124.836
119.089
54.265
54.2376
54.4026
54.2523
53.9419
54.1565
53.7419
32.112
20.7535
28.0199
34.3318
32.6205
22.3673
27.3421
44.5541
50.0981
37.39
31.9834
23.6284
37.1458
43.2691
12.5237
11.2893
15.5165
13.9077
13.2986
21.8761
21.9869
9.8251
58.101
28.2151
91.6728
-10.4038
48.8033
21.323
17.536
5.97459
70.3612
-10.9317
55.3262
8.16511
11.0416
6.76829
11.0166
10.4958
5.91223
5.1176
7.12341
10.7355
14.6645
9.59255
8.76704
14.8909
18.998
12.4394
26.7246
30.8019
25.1989
22.8113
50.4574
48.5789
49.0573
52.1497
51.079
51.2425
49.4974
52.5913
52.306
52.5978
50.0698
50.7331
51.2048
51.4818
57.6504
57.3955
57.4656
57.2593
57.1764
57.3347
57.2302
194.435
222.95
261.318
61.8798
64.5942
66.3208
65.9939
62.0594
76.7211
66.543
66.4408
58.3864
62.407
152.107
228.37
238.517
195.878
238.059
222.527
168.77
54.6458
57.1102
54.8752
54.7661
54.0763
54.8706
54.9033
133.803
63.5504
95.4391
143.412
129.444
80.6599
130.036
52.3682
54.2042
64.2545
67.2419
56.8851
54.0322
58.5006
6.88067
7.07657
7.21642
7.33792
7.39143
7.24755
7.14514
7.62976
7.6116
7.48085
7.55211
7.51522
7.32801
7.3699
5.97831
6.33573
6.48406
6.65427
6.57537
6.39937
6.64168
6.42856
6.64611
5.591
5.94964
5.36795
5.3098
6.16286
5.80722
4.81688
6.31573
19.2676
-6.50805
11.3672
-36.8643
-2.96988
8.43704
-6.3667
-0.0886012
5.44177
4.72207
-23.8977
8.77766
-7.75533
3.36962
-13.6885
-5.83887
8.91239
-5.80867
9.14194
3.47925
0.0806366
-0.876869
-1.59834
-1.34718
-1.86681
-2.32174
0.370585
-2.32344
-2.2217
-2.33577
-2.21014
-2.25776
-2.06068
-2.03646
-2.11401
-2.09434
-2.07126
-2.10301
-2.14792
-2.08287
-2.12705
-2.0421
-2.05827
-2.05603
-1.99329
-2.00884
-1.98346
-2.03569
-2.04046
-2.02209
-2.01354
-2.15433
-2.16058
-2.1415
-2.19401
-2.21643
-2.20695
-2.18516
-2.29631
-2.35305
-2.29795
-2.31032
-2.35911
-2.32495
-2.28381
-2.52985
-2.49551
-2.47741
-2.46057
-2.49018
-2.52747
-2.49558
-2.61145
-2.5624
-2.59495
-2.62953
-2.66358
-2.74173
-2.69299
-2.72642
-2.75739
-2.72663
-2.69364
-2.72587
-2.85644
-2.88803
-2.87313
-2.82444
-2.85769
-2.85701
-2.82456
-2.93628
-2.90495
-2.90312
-2.87741
-2.82907
-2.86171
-2.91706
-2.8857
-2.90102
-2.86935
-2.84514
-2.87752
-2.91782
-2.91733
-2.93475
-2.90256
-2.88616
-2.8291
-2.86212
-2.87819
-2.89446
-2.93616
-2.90378
-2.9062
-2.69783
-2.74647
-2.7298
-2.73014
-2.76125
-2.72918
-2.69764
-2.75012
-2.78395
-2.73836
-2.75036
-2.7124
-2.72922
-2.69975
-2.75595
-2.81105
-2.7713
-2.62332
-2.56748
-2.61799
-2.60371
-2.6367
-2.6783
-2.54373
-2.51163
-2.49709
-2.44927
-2.48054
-2.54455
-2.51341
-2.48244
-2.51151
-2.493
-2.45207
-2.50272
-2.51267
-2.54483
-2.48542
-2.51876
-2.0643
-2.09441
-2.11161
-2.15548
-2.12655
-2.095
-2.12384
-2.10218
-2.11707
-2.13389
-2.16253
-2.13211
-2.16352
-2.13187
-2.03892
-2.01035
-1.99712
-1.98209
-2.00875
-2.01085
-2.03762
-1.9457
-1.99034
-1.97496
-2.03474
-2.00514
-1.88023
-1.86553
-1.89529
-1.92101
-1.89124
-1.89289
-1.92243
-1.88455
-1.89735
-1.87032
-1.90174
-1.92622
-1.92578
-1.89856
-1.81098
-1.78098
-1.77203
-1.72741
-1.76004
-1.75376
-1.7841
-1.80391
-1.83521
-1.80792
-1.7992
-1.77238
-1.78362
-1.76775
-1.74802
-1.79851
-1.82129
-1.79352
-1.77156
-1.6938
-1.68357
-1.71567
-1.72749
-1.6959
-1.70187
-1.73167
-1.74823
-1.77247
-1.74532
-1.73983
-1.76688
-1.77923
-1.75438
-1.72436
-1.68373
-1.69678
-1.67552
-1.69307
-1.68379
-1.71247
-1.70311
-1.73032
-1.65954
-1.64507
-1.65572
-1.69885
-1.67632
-1.67498
-1.69325
-1.65656
-1.67872
-1.64695
-1.65722
-1.63335
-1.60646
-1.61548
-1.61529
-1.64149
-1.6591
-1.64779
-1.6357
-1.64317
-1.61205
-1.61665
-1.62142
-1.59366
-1.59283
-1.61175
-1.51007
-1.50313
-1.52126
-1.51796
-1.50534
-1.51227
-1.51036
-1.50398
-1.52163
-1.53632
-1.51858
-1.52521
-1.53082
-1.51946
-1.49021
-1.43639
-1.46314
-1.47179
-1.49564
-1.47318
-1.49661
-1.50119
-1.47819
-1.49835
-1.48003
-1.49573
-1.49735
-1.48539
-1.51514
-1.44918
-1.55986
-1.47164
-1.52045
-1.59257
-1.52366
-1.59534
-1.52198
-1.51728
-1.7007
-1.59381
11.2554
9.84138
16.2651
5.36818
8.44665
8.35611
7.47017
190.833
77.065
64.7145
733.698
356.805
754.585
706.45
537.543
1072.05
789.131
349.552
752.118
374.332
842.313
851.481
764.267
926.293
808.266
855.128
924.497
967.135
779.445
1030.25
824.499
1128.35
856.212
169.416
78.2121
116.547
253.448
149.968
222.891
119.795
315.37
230.918
121.774
272.046
238.885
324.144
259.66
162.491
100.921
242.865
69.7431
88.2477
26.6759
240.049
345.394
56.2397
53.4106
82.7166
50.9419
49.9496
47.9739
36.6626
56.1247
55.0568
54.5809
53.7467
48.5049
52.122
55.7767
69.1617
120.82
84.9554
60.2041
31.3829
49.3392
57.0858
55.0645
57.6836