/*--------------------------------*- C++ -*----------------------------------*\
| =========                 |                                                 |
| \\      /  F ield         | OpenFOAM: The Open Source CFD Toolbox           |
|  \\    /   O peration     | Version:  v2012                                 |
|   \\  /    A nd           | Website:  www.openfoam.com                      |
|    \\/     M anipulation  |                                                 |
\*---------------------------------------------------------------------------*/
FoamFile
{
    version     2.0;
    format      ascii;
    class       volScalarField;
    location    "0.25";
    object      p_rgh;
}
// * * * * * * * * * * * * * * * * * * * * * * * * * * * * * * * * * * * * * //

dimensions      [1 -1 -2 0 0 0 0];


internalField   nonuniform List<scalar> 
6576
(
2774.61
2749.53
2758.01
2763.27
2779.55
2786.93
2762.32
2766.14
2781.68
2771.89
2813.2
2796.59
2785.14
2794.08
2761.04
2766.91
2733.6
2760.91
2763.67
2810.84
2742.48
2801.71
2805.59
2758.63
2790.23
2821.08
2870.29
2784.73
2744.91
2749.25
2768.97
2729.81
2768.13
2791.42
2783.84
2806.06
2780.5
2808.25
2765.34
2787.77
2752.21
2744.57
2771.56
312.492
267.356
335.214
310.897
325.242
363.513
342.981
319.891
344.228
0.00447035
0.003567
0.00149456
0.00862183
0.00468814
0.00129565
0.00631558
0.00534471
0.00819166
0.0104855
0.0137432
0.00869768
0.00460127
0.0104768
0.0474694
0.0401159
0.0357197
0.0341431
0.0396854
0.0271485
0.0334848
6.58032
6.40713
7.29976
6.88632
7.2543
7.30353
7.73256
8.87827
8.5501
8.34382
8.09806
8.52806
8.36249
8.13349
556.873
531.583
484.383
523.402
475.101
548.56
538.659
733.628
724.295
755.257
631.772
741.853
759.396
703.862
696.221
673.663
704.773
694.244
750.744
692.937
796.362
511.649
466.416
461.564
472.62
443.246
448.811
0.239576
0.0542896
0.388618
0.196476
0.0468146
0.381977
0.295691
555.023
2289.39
2498.01
2539.95
2554.46
2748.21
2557.35
0.287614
-0.414102
0.139025
-1.02249
-0.860987
-1.0189
-1.37606
2.51347
4.26773
2.16376
1.05709
3.59153
4.87193
1.89649
-2.51772
-2.00592
-1.64771
-3.02044
-1.79599
-1.36151
-2.46648
-6.18966
-5.60364
-7.12804
-4.04335
-4.59775
-5.6883
-4.91501
-6.61253
-7.44809
-5.94786
-5.94762
-6.9118
-5.24707
-4.77126
-5.853
-4.95084
-9.67711
-10.3758
-9.75803
-8.46115
-9.58715
-10.1839
-9.01952
-8.8553
-8.49194
-7.83595
-8.41235
-8.42015
-6.73034
-7.21281
-6.86624
-6.4662
-5.75777
-5.60793
-5.02983
-5.82223
-5.33848
-4.24093
-5.44385
-5.54477
-4.72484
-4.92127
-5.13723
-5.07594
-5.40187
-5.46425
-5.26184
-5.18484
-5.32693
-4.78767
-4.91409
-4.78144
-5.38558
-4.89076
-4.7817
-3.21994
-3.21803
-3.5944
-4.43614
-3.73037
-4.077
-4.04573
-0.725476
-1.24232
-1.94898
-0.371539
-1.41916
-1.48409
-2.04833
-3.54082
-3.29302
-3.21941
-4.35423
-3.67025
-3.88622
-4.07551
-5.20419
-4.68761
-5.32364
-4.90095
-5.78132
-6.2928
-5.17224
-6.64667
-7.70704
-7.68319
-6.42839
-5.75773
-6.97521
-7.35702
-12.0945
-10.7587
-10.8948
-10.3712
-10.8716
-11.0745
-11.8316
-12.2955
-11.0785
-13.3114
-12.9058
-11.9145
-13.1568
-11.8155
-11.4936
-13.3795
-9.28472
-8.09761
-9.43479
-9.57317
-10.0237
-8.64746
-9.56983
2.60336
1.81073
3.43308
2.93864
3.05469
2.38806
3.01724
365.641
388.677
366.198
363.29
373.322
338.256
345.423
354.225
352.707
274.472
284.323
269.418
266.221
246.881
247.541
203.962
5.1443
5.32397
5.63798
5.31831
5.31201
5.19384
5.16871
5.22016
5.18615
289.899
274.98
278.149
11.5552
9.16047
8.69193
9.26488
8.71694
7.54017
7.93098
-0.424864
-0.524648
-0.510391
-0.498366
-0.400237
-0.425321
-0.53903
99.4674
9.1466
1.4183
72.4162
3.97729
4.29805
2.17702
1.42236
1.11975
-0.349415
-0.360515
-0.423973
-0.278561
-0.319069
-0.315696
-0.355552
11.5139
11.9385
12.834
11.6439
16.3423
12.7874
10.7907
10.2138
9.18422
11.291
8.30011
7.82622
13.6433
8.71813
10.001
27.3274
57.359
242.521
43.5014
7.92951
112.724
7.01676
17.0521
18.4528
6.69962
444.48
434.185
449.14
447.991
480.267
460.602
505.056
357.637
366.438
368.364
407.645
389.961
354.049
396.07
365.709
350.574
424.923
382.456
453.267
496.788
495.306
455.617
469.299
352.639
358.776
419.079
487.641
474.551
425.65
422.814
-1.07937
-0.87636
-1.247
-1.60787
-1.12783
-1.59635
-1.6914
-1.24895
-1.30004
-0.325007
-0.35691
-0.513311
-0.494555
-0.579473
-0.401907
-0.442259
-0.256691
-0.258599
-0.206237
-0.29348
-0.369132
-0.279735
-0.336162
-0.25929
-0.261829
36.7582
139.299
539.091
125.252
38.6815
7.63918
9.12355
1517.3
1520.65
1522.38
1484.94
1469.12
1491.19
1535.56
-17.359
-17.9072
-17.1701
-17.1281
-16.6411
-17.6047
-16.9539
-15.4601
-16.4683
-14.783
-15.2005
-14.3405
-14.1753
-14.335
-11.5613
-13.0745
-12.6422
-10.4396
-11.2856
-12.61
-11.9827
-5.59402
-5.59825
-4.12208
-5.35154
-4.40717
-1.44355
-2.42118
-2.23964
-3.52198
-2.78426
-3.12853
-2.86913
-1.77172
-2.20887
-2.15583
-2.51293
-2.21536
-0.788707
-1.77993
-1.33342
-1.80007
-0.627904
-1.44301
-1.61774
-1.43887
-1.18062
-1.67318
-1.62127
-1.52279
-1.08881
-1.19278
-1.21429
-0.413839
-1.27275
-0.734229
-1.07306
-0.513443
-2.12211
-1.8325
-2.38402
-1.99574
-1.09115
-0.324843
-1.69068
-0.311767
-0.778456
-0.826996
-1.57661
-1.22246
-0.253687
-0.269378
-0.706324
-0.661843
-0.449409
-0.204639
-0.628742
-0.612456
-0.739372
-0.662294
-0.173039
-0.468483
-0.805127
-0.746877
-0.601058
-0.516849
0.0580022
-0.721002
-0.800316
-0.601637
-0.971349
-0.107309
-0.889181
-0.178112
-0.736156
-0.783659
-0.519667
0.115929
-0.0895611
-0.15794
-0.69251
-0.627962
-0.374191
-0.512766
-0.936023
-0.432979
-0.299167
0.0473564
-0.00342295
-0.97216
-0.554981
-0.441139
-0.979238
-10.0154
-10.2301
-11.0898
-10.1413
-8.36952
-10.5816
-8.85248
-9.88941
-11.0452
-14.33
-15.1516
-13.938
-13.9545
-12.8302
-14.1594
-13.4728
-13.0464
-12.1617
-13.99
-13.2839
-12.1381
-11.5721
-12.9259
-15.7918
-15.3169
-16.3299
-14.6561
-14.5641
-15.8266
-15.576
-12.5523
-10.8457
-11.263
-13.8587
-14.2478
-9.78025
-8.54343
-9.8346
-8.95748
-9.96447
-8.44882
-9.53085
-6.6974
-5.80307
-6.01863
-5.82497
-5.18187
-5.42506
-6.21092
-1.30052
-0.0601869
2.17151
-2.38957
0.915538
-1.02801
-3.69226
0.762841
0.0760722
0.209284
-0.05221
-0.0074492
0.0857332
-0.0519425
-0.0178889
-0.0153015
-0.0305122
-0.0363327
-0.0130147
-0.0318728
-0.0152322
-0.016732
-0.0316886
-0.0745934
-0.0863455
-0.0663464
-0.0813186
-0.0737628
-0.0504599
-0.0597785
-0.447781
-0.326543
-0.336913
-0.332999
-0.225004
-0.273696
-0.385317
-0.00782374
-0.0126663
-0.129293
-0.0428626
-0.0714887
-0.0859369
-0.171097
0.206484
0.246416
0.183363
0.221774
0.145453
0.18404
0.243547
1.39426
1.24961
1.25566
1.4964
1.26858
1.6167
1.22635
2.41632
2.60171
2.46782
2.40823
2.12379
2.66387
2.45739
2.58365
2.36297
2.34319
2.47647
2.65155
2.77155
2.70632
2.65426
2.54661
2.53329
2.33696
3.6871
3.82964
3.66013
3.3803
3.24253
3.20767
3.41663
3.04669
3.21223
3.01651
3.29104
3.87413
3.31922
3.38425
3.96144
3.31244
5.12414
5.05368
4.9019
4.70954
4.5005
4.89299
6.24606
6.15829
5.37635
5.14086
5.53885
16.2067
10.2302
7.56659
5.49466
6.91106
5.58085
6.64554
7.67284
7.96804
5.34595
5.21977
6.76357
8.92839
42.637
8.61246
51.8707
29.091
86.1342
41.6635
125.021
289.478
128.37
21.2931
197.31
26.7775
17.1401
18.4615
320.613
315.256
296.249
271.795
262.067
282.593
293.199
454.096
436.66
429.592
604.114
668.373
680.245
654.961
699.627
671.664
657.792
536.573
538.715
547.409
551.511
608.939
594.051
516.503
621.109
559.258
530.582
568.276
537.68
605.337
654.81
638.668
724.937
689.924
652.994
656.57
746.429
700.38
621.173
632.509
656.934
705.597
660.058
706.792
692.632
652.93
673.059
646.965
709.586
679.674
699.466
747.869
698.88
685.317
732.391
731.125
683.937
687.674
668.235
790.138
666.655
699.413
673.781
668.776
605.055
672.773
670.151
656.676
688.109
712.088
635.824
687.718
713.056
688.676
731.446
738.765
23.4293
55.7201
77.6282
28.7626
42.8165
17.9679
64.7225
519.798
510.75
569.182
382.892
484.974
512.083
484.26
413.232
510.105
425.12
446.62
109.813
33.9986
218.304
427.097
398.915
356.92
67.1358
65.5554
19.5168
252.215
259.341
277.395
16.4268
-2.38197
38.9318
441.893
373.137
42.0366
320.167
-2.0958
0.889148
-1.49611
-1.67264
-1.44857
-1.40394
-1.54575
-1.28939
-1.40948
-3.21205
-3.41738
-2.44687
-4.02571
-3.5867
-3.24854
-3.75874
-3.38737
-2.94436
-3.54961
-3.79818
-3.11799
-3.74997
-4.2379
-6.38941
-6.77685
-5.94057
-4.64699
-5.33673
-6.05907
-7.50053
-7.72076
-5.16097
-4.19369
-6.04885
-6.21269
-4.90769
-3.49752
-4.62835
-2.5504
-3.05955
-4.42401
-4.77224
3.02684
2.00511
2.54254
2.60354
3.01837
2.12067
2.47723
2.69582
2.69218
2.80898
2.9998
1.77181
2.62706
2.59307
2.63112
2.25602
1.26668
2.40559
2.76542
2.74886
2.45647
0.377743
1.92182
1.90492
1.86949
2.17345
0.95166
1.19465
1.22918
1.38873
1.76231
1.36322
2.15984
0.94403
-0.105185
-1.24115
-1.53867
-1.16226
-0.962764
-0.760665
-0.0940013
-1.08233
-0.726782
-0.344209
-0.164858
-4.50745
-4.48295
-4.66128
-4.15292
-5.09507
-4.67617
-3.88935
-0.878408
-1.97351
-1.85968
-2.03175
-2.09726
-2.22328
-1.70868
-3.46664
-2.80825
-1.87991
-4.08551
-4.20494
-3.70661
-3.11211
-0.766918
-0.748365
-0.768688
-5.23004
-4.67816
-6.06694
-2.96862
-4.32061
-5.15061
-3.99662
-0.922483
-0.863211
-0.0904299
-1.21525
-1.22774
-0.819219
-1.34603
-0.307723
-1.22918
-1.1038
-1.31857
-1.66032
-0.669596
-0.295837
-0.170236
-1.16656
-1.16531
-0.91605
-0.956949
-0.524041
-1.22742
-1.02566
-0.240861
-0.95977
-1.23077
-0.1137
-5.52332
-6.57464
-4.68892
-3.46384
-3.41146
-4.52146
-5.40327
-3.94768
-3.50003
-11.0346
-11.6101
-12.5847
-10.003
-11.6986
-12.8342
-11.1835
-7.24919
-6.82503
-7.27447
-5.50736
-6.05676
-6.40657
-6.71533
-5.45038
-6.07243
-5.84389
-5.09289
-4.44086
-4.04214
-3.41052
-2.63243
-3.63862
-4.86267
-4.74451
-5.70215
-7.25265
-3.64021
-4.09757
-5.83674
-6.08735
-5.53129
-5.39
-4.24428
-5.22934
1.17454
0.742369
1.24276
1.22157
1.19338
1.3197
1.27934
1.26348
1.29987
0.0786905
0.0750221
0.0629447
0.0685032
0.0892782
0.0783055
0.0623877
0.0697491
0.0648197
0.0530736
0.0435585
0.0402942
0.0603066
0.0592089
0.0305435
0.0306439
0.0504091
0.0438481
0.0438773
0.0731655
0.081025
0.0679536
0.0650811
0.0952841
0.0818015
0.0646773
0.100226
0.0762243
0.0757684
0.102113
1.58523
1.33421
1.20625
1.17406
1.50979
1.1632
1.20553
1.59974
1.58606
2.01677
1.65216
1.7822
1.52075
1.93431
1.31885
1.97939
1.79352
1.67171
1.84731
1.61072
1.96967
1.6559
1.70437
1.74419
2.07978
1.92363
1.93493
2.12833
2.00217
2.14613
1.64858
2.14546
2.18008
2.78997
2.92839
2.85068
4.19535
4.49632
3.70794
36.6304
20.4968
16.5762
14.0791
42.9381
50.552
23.6159
733.649
663.006
699.72
695.682
668.508
804.763
752.429
692.39
713.968
689.622
746.128
664.537
700.808
634.45
481.279
530.633
549.76
529.535
535.573
652.174
741.803
498.31
567.519
205.147
310.159
229.525
327.742
234.774
240.665
284.364
437.742
296.82
387.999
540.65
365.483
294.377
166.291
231.244
270.651
301.406
279.988
287.9
335.282
127.489
29.1831
153.413
70.8621
119.038
72.1559
150.689
10.0577
-1.85467
15.3841
-6.58775
10.0456
-6.50353
-1.18466
1.71116
1.36637
0.636446
-6.56279
-7.70743
5.37221
2.42897
313.761
-2.51319
592.918
49.2414
627.615
-6.34461
279.136
288.718
533.902
863.333
826.29
833.939
844.984
756.284
9.94224
10.179
10.3868
17.4375
10.2544
9.98589
10.2969
8.38813
7.62957
8.97325
9.6445
8.86678
8.83993
8.96022
8.11593
7.97309
7.90744
7.87157
7.79978
8.03699
7.73106
0.977616
1.5565
0.547344
0.69924
2.13211
1.93328
1.05274
1.4988
1.40657
0.037362
1.89576
2.64933
2.31656
1.40311
1.78141
0.494406
1.88552
1.89681
2.06451
0.71606
1.38404
1.45091
2.48353
2.04218
2.61978
2.90584
2.33269
1.98929
2.9693
3.46767
2.84603
3.7446
3.74548
3.26904
3.27987
2.07968
2.81185
2.35272
2.08292
2.72715
2.06556
2.61425
2.63456
2.00304
4.1576
4.83721
4.28129
4.14935
3.87232
4.47246
4.12823
4.15616
3.89482
3.73055
4.26551
4.58517
4.14932
3.9964
3.32536
3.61874
3.31904
3.37804
3.27381
3.23987
3.3145
3.08603
3.76853
3.71044
3.46246
3.60998
3.3835
3.43757
3.37058
3.69097
3.38753
2.79873
3.47941
3.35985
1.47336
2.44862
2.71538
-1.47733
-0.998051
-0.25515
-0.920209
-0.49616
-0.739838
0.384009
-4.25952
-1.74974
-3.90276
-6.04233
-4.69137
-4.84513
-5.72329
-5.12411
-4.02328
-4.55424
-4.69044
-3.57565
-7.57832
-6.43021
-6.29907
-8.31674
-9.03371
-7.81467
-7.1933
-8.35837
-9.52984
-8.25845
-10.3079
-9.5565
-8.27558
-8.80031
-10.1514
-9.31698
-8.14105
-11.3625
-11.5874
-3.56941
-5.12187
-5.06382
-3.6499
-4.88377
-4.54656
-5.53506
-12.1061
-11.5108
-10.8121
-10.0213
-10.8632
-11.5579
-12.2436
-5.08269
-3.97628
-4.84231
-4.97187
-3.8366
-4.70568
-5.71841
-1.12924
-1.36836
-1.00123
-0.886628
-0.599262
-1.21276
-1.98152
-1.14634
-1.49141
-2.70997
-0.831914
-0.158179
-1.62787
-0.427176
-0.322637
-0.703657
-0.284426
-0.695403
-1.66518
-0.926654
0.400656
-0.512244
-0.0177857
-0.431461
-0.686182
-0.10718
-0.411749
-0.0133805
-0.666095
-0.839946
-0.401253
0.0612763
-0.123436
-0.546706
-0.449158
-0.591504
-0.384997
-0.476854
-1.20424
-0.627088
-1.05696
-0.723335
-0.489627
-0.452377
-0.232954
-0.337904
-0.386446
-0.218789
-0.37653
-0.388702
-0.128447
-1.0581
-1.09101
-1.61092
-1.03322
-1.73656
-1.18116
-1.2295
1.1019
1.136
1.29619
0.777299
0.86848
0.856077
0.947364
0.80037
0.966076
0.805845
1.32126
1.07064
1.04007
0.884849
0.493159
0.519282
0.240293
0.739139
0.661075
0.657837
0.360874
0.412056
0.42113
0.427575
0.390722
0.445848
0.370952
0.413269
0.405689
0.372891
1.55806
1.41287
0.214913
0.357547
0.658733
0.513006
0.275648
0.196454
0.235849
0.209896
0.20782
0.238752
0.200921
0.221239
0.111922
0.110187
0.124031
0.132304
0.133916
0.12878
0.132436
0.116241
0.117739
0.143588
0.146235
0.137677
0.138314
0.147259
0.1379
0.14607
0.145245
0.1373
0.113417
0.119988
0.109565
0.132334
0.126705
0.120645
0.117868
0.21605
0.216005
0.236778
0.231031
0.220609
0.22344
0.23544
0.255491
0.263621
0.258246
0.283126
0.278878
0.27049
0.269965
0.371811
0.378127
0.421579
0.388453
0.367373
0.380137
0.405872
0.402343
0.397202
0.425327
0.417344
0.411253
0.438021
0.427582
0.505148
0.479959
0.493073
0.506197
0.558774
0.521592
0.498746
0.817303
0.784081
0.766948
0.982858
0.828758
0.786415
0.794301
0.711993
0.640742
0.651649
0.602125
0.638709
0.660603
0.618962
0.925813
0.812907
0.867925
0.745557
1.22615
0.799764
1.70233
1.53233
1.18686
1.53424
1.64212
1.31662
1.27085
1.28801
1.5222
1.21501
1.60631
1.93693
1.57969
630.557
625.373
615.991
632.264
580.83
622.741
651.419
252.714
260.705
237.933
236.114
137.273
150.217
240.605
259.414
264.988
381.509
231.488
171.345
227.198
126.429
121.195
167.599
247.206
326.892
120.035
140.752
-3.87888
-3.57075
-7.39552
-4.00706
-0.591107
-2.69619
-6.66375
-6.30121
-8.50303
-8.67418
-8.05622
-6.77324
-7.74103
-8.35741
7.61459
7.07572
7.36766
8.16768
7.71656
7.4216
7.74942
13.8704
18.8163
10.1229
24.4261
9.0831
7.89243
8.13228
9.54422
9.54851
9.1297
10.9397
8.78119
58.6358
18.6188
191.088
34.4507
8.78451
8.72339
8.75262
8.77118
8.74755
8.40861
8.32802
8.53531
8.33931
8.85498
8.80443
8.68836
8.82103
8.84548
8.64829
8.53557
8.63624
8.57174
8.71908
8.69839
8.76407
8.71937
8.72297
8.79963
8.82445
7.71818
6.577
7.4467
6.47642
7.15062
7.21548
7.59006
7.149
6.49642
7.02634
6.40315
6.88466
6.84271
7.19145
6.40611
6.98962
6.80587
6.98194
7.32461
6.96731
6.5789
5.15387
5.44786
5.49459
5.88384
5.47551
5.68525
6.09435
6.91135
7.40198
6.93547
7.04679
7.39083
5.15106
5.47763
5.48512
5.39273
5.05157
7.5039
6.97283
7.50349
7.23953
6.91567
5.12017
5.38133
5.53955
5.14442
4.90838
4.19822
3.84297
4.02862
2.38514
1.80593
1.93246
2.90337
3.05587
3.70164
3.51328
2.88532
2.57343
3.00288
3.19239
3.55837
-1.05764
-0.383464
-0.137462
-0.224228
1.42824
-0.289989
0.177559
-2.41647
-1.70672
-0.798555
-1.20087
-1.68545
-0.0237726
-0.718205
-6.08646
-6.62995
-5.64993
-5.20665
-4.2247
-5.59546
-4.87672
-16.0585
-15.7854
-16.26
-16.6905
-16.5131
-16.6077
-16.5279
-5.60907
-4.91059
-6.45
-3.99474
-4.41755
-5.56732
-5.823
-0.0842509
-0.378688
-0.638996
-0.532701
-0.31881
-0.476028
-0.565749
-0.384986
-0.469197
-1.01708
-0.593981
-0.00123135
-0.444581
0.0507245
-0.106376
-0.0662452
-0.17967
-0.186607
-0.217082
-0.191235
-0.123687
-0.151752
-0.228722
-0.281253
-0.501461
-0.118623
-0.123837
-0.294154
-0.0602792
-0.762547
-0.225912
-0.290073
-2.65111
-2.34878
-2.38394
-2.16628
-0.25883
-2.72554
-2.07963
299.281
1781.16
2772.05
2768.78
2768.15
2661.11
2649.16
-0.716285
-0.797244
-0.901292
0.676845
-1.80355
-2.29426
3.32784
3.19291
14.5235
-2.36628
-2.12844
-1.41341
216.622
-2.31251
0.617506
1.38959
0.848877
0.477853
0.38293
0.426107
0.55131
-0.181496
0.142779
-2.08885
1.63517
0.452922
-0.0102597
-1.58003
0.425587
0.401116
0.414956
0.517149
0.414207
0.418974
0.714459
0.0327752
0.202772
0.133391
0.182951
0.166112
0.0696294
0.122685
0.184738
0.137405
0.336849
0.316551
0.340836
0.358966
0.326894
0.317796
0.339108
0.29789
0.277274
0.269687
0.277877
0.262294
0.257984
0.24225
0.195003
0.20397
0.204429
0.203756
0.195361
0.208033
0.197268
0.159953
0.157111
0.158284
0.16472
0.161865
0.160023
0.161557
0.260642
0.251884
0.257854
0.26097
0.280525
0.269105
0.258865
0.341906
0.324324
0.328581
0.325141
0.312195
0.325202
0.327933
0.387826
0.413744
0.382828
0.379555
0.386148
0.380851
0.394752
0.370741
0.388312
0.385284
0.386476
0.42613
0.382083
0.389796
0.372725
0.366499
0.43522
0.446961
0.450745
0.457148
0.497679
0.498328
0.465823
0.457178
0.426617
0.44363
0.588375
0.539079
0.536662
0.525312
0.541017
0.502696
0.519758
0.49399
0.485225
0.470063
0.490381
0.545465
0.501364
0.473255
0.551924
0.592009
0.552267
0.640013
0.712883
0.666036
0.613199
0.63109
0.665012
0.567106
0.57355
0.585654
0.58617
30.1101
62.6408
230.348
111.398
107.66
33.6118
40.6561
17.1371
9.34197
16.4262
-6.55451
-2.91888
-5.66877
-5.17598
10.8974
35.6113
94.4649
21.0824
-7.12133
-1.248
23.1406
-1.65841
-6.83954
-3.35953
-4.15663
-4.39072
-5.25252
14.3327
876.99
344.897
805.137
599.129
538.601
553.937
723.612
-20.6053
-161.966
-98.5604
63.0981
-14.491
75.9856
10.5836
10.0035
10.2518
10.237
9.82536
10.261
9.9645
9.82563
9.38636
9.66294
9.62576
9.28621
9.70885
9.43691
9.05472
9.34813
9.38489
9.25632
9.46517
9.28854
8.99646
9.35302
9.26536
8.96877
9.26196
9.66031
9.38166
9.15263
7.87351
8.29232
8.27719
8.84669
8.43763
8.57197
8.24776
8.28519
7.73462
8.1196
8.25769
7.87649
8.29061
8.10177
8.37466
7.83866
8.18187
8.5505
8.16334
8.75498
8.65315
8.33506
8.03664
8.47322
8.70371
9.60096
9.16698
9.23311
8.89281
9.12296
8.53826
10.228
10.9272
10.7815
9.66299
10.0515
10.6702
10.6393
-2.97938
-2.78801
-2.83852
-0.360449
-1.46098
-1.32605
-1.52897
-3.60744
-4.449
-3.46797
-3.93919
-4.85304
-3.84358
-2.44645
-4.9417
-4.80361
-5.49284
-3.92822
-4.69148
-1.5562
-3.8739
-3.38683
-2.8475
-1.27592
-1.20456
-1.63418
1884.01
1784.02
2478.95
2083.13
2030.39
600.37
2368.48
-1.65759
-2.58102
-3.02095
-1.01973
0.0474174
-2.3341
-3.12441
-0.960896
-1.23715
-0.202996
-0.746469
-0.958393
-0.876001
-1.17219
0.468119
0.134429
0.354647
0.153649
0.0443028
0.0976296
0.0101835
0.0749236
0.00580743
0.0747288
0.167938
0.00243387
0.0810506
0.0935977
-0.0400819
-0.0294617
-0.0238565
-0.0228859
-0.0131923
0.142993
0.0038887
0.0807499
-0.0579754
0.0212237
0.0549019
0.172897
-0.138883
-0.080549
-0.0988452
-0.144573
-0.118587
-0.0548162
-0.0743492
0.162763
0.153944
0.167237
0.146507
0.144925
0.156209
0.155896
0.15229
0.161012
0.158129
0.147647
0.14791
0.154544
0.153683
0.154508
0.158061
0.159681
0.151861
0.150272
0.156864
0.156793
0.163899
0.168579
0.163193
0.162352
0.158926
0.163994
0.160826
0.166613
0.163673
0.16033
0.162766
0.166942
0.161591
0.165527
0.170085
0.166162
0.255367
0.254024
0.274428
0.238123
0.251231
0.245168
0.258008
0.279892
0.276414
0.277433
0.271153
0.250018
0.249846
0.245496
0.256025
0.238038
0.249992
0.307269
0.292491
0.288706
0.291278
0.320259
0.264986
0.327588
0.318674
0.367292
0.32282
0.319577
0.329807
0.330661
0.349236
0.325684
0.3244
0.397802
0.393314
0.42414
0.341881
0.347237
0.360553
0.37498
0.370195
0.358717
0.35468
0.359247
0.355069
0.344951
0.300821
0.327858
0.299604
0.321273
106.43
7.72234
13.1259
-1.65262
92.321
558.958
536.563
580.545
566.365
592.568
408.416
547.512
28.045
23.0482
31.6605
31.7003
10.5126
2.32547
-1.93456
112.913
327.263
187.916
13.4244
86.881
-5.8662
-2.33751
-8.34755
-8.7974
-8.50174
-8.21804
-7.25832
-6.67226
-8.13214
4.96425
-3.32663
4.81259
-8.10647
-7.28486
-8.28626
-8.79951
-9.02554
-9.62852
-10.4429
-9.96595
-9.55828
628.28
172.861
354.951
2856.5
1193.69
2398.48
2468.46
2077.42
3066.91
2309.17
2202.88
593.067
2748.09
1733.09
2501.83
2650.02
826.936
417.043
361.803
353.177
415.364
-183.294
169.262
455.328
3866.86
2380.15
10.6444
11.4146
11.4031
10.9912
10.7533
10.3707
10.6922
10.3311
10.3917
11.2901
10.6178
10.4803
10.577
10.5047
10.6091
10.5103
10.7586
11.3354
11.2388
11.2019
11.1566
11.0337
11.0668
11.1947
11.9419
12.0549
11.8914
11.7171
11.8168
11.8659
11.7302
15.0295
11.519
9.28133
8.19036
8.73305
11.2236
17.1158
9.77386
7.88081
23.2926
14.8671
9.70718
22.2815
10.4176
1.44338
9.47457
18.9556
99.1748
31.9601
7.27954
3.24707
-0.767162
-0.0442793
0.933492
0.269864
-0.0710185
1.80388
0.441381
-0.085247
0.436832
0.0533678
0.846074
1.89182
0.412268
0.308614
-0.230876
-0.2595
-0.155879
-0.377114
-0.543031
-0.139962
-0.0243775
-0.0173928
-0.195913
-0.59232
-0.409779
-0.626148
-0.887948
-0.55963
-0.483885
-0.515096
-0.0316948
-0.170212
0.0832978
-0.174984
-0.149102
0.00229653
-0.217314
0.0583525
0.183577
0.167302
-0.0510744
-0.0126415
-0.0419767
-0.00192038
-0.0285549
-0.0186732
-0.0368604
-0.0497858
-0.00016437
-0.0238914
0.000360327
-0.0074244
0.000243236
-0.00327061
-0.0155168
-0.00646436
0.00301392
0.00208138
0.00616006
0.00633016
0.00797995
0.00775486
0.00992176
0.0566095
0.0651898
0.0671632
0.0603321
0.0681426
0.0775253
0.0698214
0.0744132
0.0671124
0.135997
0.127323
0.129739
0.132038
0.126427
0.130922
0.136625
0.150284
0.157172
0.146656
0.157202
0.151639
0.149926
0.144538
0.188536
0.171539
0.170028
0.16552
0.172513
0.155908
0.165729
0.184102
0.19065
0.193274
0.21539
0.196283
0.201143
0.210347
0.178995
0.195295
0.190507
0.217175
0.238467
0.217122
0.21723
0.212544
0.207587
0.259221
0.253672
0.26613
0.234949
0.24425
0.235608
0.227097
0.238613
0.23622
0.222005
-0.0356229
-0.0403792
-0.0888313
-0.0749539
-0.0656218
-0.120079
-0.114531
-0.23591
-0.235306
-0.154215
-0.195341
-0.17918
-0.0986737
-0.118354
-0.336963
-0.319453
-0.337772
-0.444347
-0.380217
-0.378682
-0.427113
-0.775088
-0.63775
-0.666213
-0.553646
-0.509891
-0.626426
-0.558116
-1.26563
-0.798394
-1.06902
-0.969981
-0.955562
-1.21879
-1.16865
0.23249
-0.564343
1.07563
-0.160535
-0.677244
0.649582
0.48168
-1.21015
-1.60838
-1.16494
-1.50379
-1.02235
-2.13219
-2.07148
-2.12142
-1.99396
-1.9835
-1.95048
-2.02418
-2.16373
3.30818
20.3886
2.44111
0.255038
15.1947
3.5222
-1.73455
-1.99065
-1.55183
-1.93168
-1.78822
-1.73171
-1.62442
1182
658.302
291.256
420.427
338.211
873.088
-101.451
169.011
-54.2292
91.5708
-642.814
72.593
560.115
75.6347
190.76
-333.084
-64.0567
194.336
55.409
-261.492
98.1276
-142.948
66.5353
-142.187
-1.57841
31.0627
10.1468
9.91206
9.9901
10.4256
11.2397
10.4828
10.8662
10.3817
8.70347
9.58414
10.3986
8.61846
10.7885
9.60518
8.95244
8.89602
10.1531
10.6678
9.66755
10.2153
9.85854
10.8501
9.11342
9.67268
11.1928
10.3371
9.77057
10.3475
9.72916
9.59785
9.27401
9.90228
9.12435
10.204
10.1287
9.82323
9.80961
9.86035
10.0583
9.39202
9.97204
9.69697
9.97685
0.646444
0.659646
0.623926
0.544722
0.62344
0.626568
0.614493
0.608171
0.581972
0.694681
0.560368
0.605892
0.647732
0.665851
0.0961801
0.126904
0.12995
0.139844
0.123481
0.0984623
0.121312
0.00887663
0.00943838
0.0032011
0.0420518
0.0523099
0.0420609
0.0383983
0.0477998
0.0531088
0.0443861
0.00820393
0.00402197
0.00866297
0.0157127
0.0208559
0.0100557
0.00533872
0.0122419
0.0157966
0.00623032
0.00137982
0.00734191
0.00233602
0.00746219
0.00630885
0.00777969
0.00929872
0.0124768
0.00969419
0.0121707
0.0113317
0.0157595
0.00705407
0.00195784
0.0117274
0.0139668
0.00819514
0.00918123
0.00440227
0.008416
0.00949774
0.00442118
0.0103506
0.0137344
0.00955694
0.0779258
0.0728565
0.079201
0.0809037
0.083454
0.078876
0.0744266
0.12286
0.14045
0.123191
0.127544
0.120978
0.111833
0.149326
0.159809
0.145435
0.139188
0.137676
0.149908
0.143123
0.13813
0.176852
0.176458
0.181733
0.178169
0.175827
0.181133
0.181618
0.177197
0.175415
0.179469
0.183012
0.180898
0.186665
0.188006
0.190975
0.182782
0.186121
0.209893
0.202638
0.206857
0.202941
0.20883
0.201789
0.208116
0.199104
0.199843
0.202355
0.191653
0.192056
0.193796
0.196617
0.212728
0.220833
0.216287
0.230868
0.216916
0.216853
0.225207
0.178032
0.184337
0.173115
0.17272
0.178316
0.172551
0.16624
0.166637
0.1685
0.154783
0.168571
0.175866
0.167448
0.158153
0.0719587
0.0695584
0.0810165
0.0916337
0.10235
0.078984
0.0778862
0.089327
0.086459
0.103219
0.0969401
0.0931609
0.112915
0.116757
0.0735665
0.0437574
0.0597152
0.0451908
0.0659028
-0.0684717
-0.0656599
-0.0924535
-0.136434
-0.112721
-0.0755228
-0.08625
-0.0910794
-0.107116
-0.0428465
-0.0819156
-0.0493884
-0.0543466
-0.0365683
-0.0277362
-0.0527903
-0.0480535
-0.0243289
-0.198113
-0.212158
-0.206284
-0.248725
-0.211167
-0.247367
-0.218383
-0.291261
-0.300657
-0.255128
-0.343927
-0.311147
-0.268537
-0.307579
-0.252055
-0.554223
0.509436
-0.460133
-0.531246
-0.586783
-0.505491
1.79199
-0.570684
1.19934
2.446
-0.299061
2.06885
1.2434
1.87316
0.742386
-0.776163
-0.887362
-0.441493
-0.240116
1.06179
35.3437
36.9319
62.0537
148.243
219.054
481.152
141.026
-259.957
22.3896
-67.2288
112.822
-16.7263
51.9339
58.6586
-8.56148
122.656
92.964
264.317
90.2021
109.893
107.348
-155.913
36.9663
-75.1216
65.7074
23.1068
117.477
119.814
259.554
205.976
737.283
71.5136
301.325
9.69098
-6.28548
46.9231
55.5076
62.5856
2.42166
32.2767
65.9855
17.6902
11.8445
13.2208
7.36335
7.3755
5.73284
6.54458
356.181
224.264
106.241
463.306
547.215
435.685
364.539
267.827
314.739
352.989
264.611
314.065
425.977
452.691
407.309
361.292
484.29
477.39
432.792
473.848
457.766
394.045
438.144
449.038
426.616
366.855
574.468
449.816
548.425
439.681
569.032
469.466
54.9682
54.8952
55.124
54.8619
54.5768
54.8778
54.4182
41.0041
29.8998
37.1094
43.1903
41.7776
36.3496
60.3086
76.9562
82.9795
48.9496
77.6231
34.8332
68.9243
97.177
15.5967
13.8628
18.8024
18.4776
17.6339
48.9203
67.124
35.9082
107.276
32.0563
156.005
87.4123
113.167
122.101
69.8759
53.1746
113.074
84.891
154.229
11.1492
12.9799
9.00796
14.6343
12.3832
16.1946
26.0405
8.72009
11.9875
16.4386
12.2046
10.6422
20.8293
22.3382
15.9115
30.1329
48.6034
37.0131
26.2006
62.9508
54.4462
50.8431
57.872
62.0509
57.0813
56.8569
53.245
52.9998
53.2783
51.6201
52.8551
56.3313
61.1914
58.6079
58.6335
58.0564
57.7616
57.7887
57.923
57.7132
349.43
364.841
376.933
76.8323
89.0575
100.711
77.7987
80.5254
178.572
77.5638
75.7037
61.0624
72.32
347.803
398.286
383.689
328.974
346.941
365.088
324.407
55.3704
93.7302
55.483
55.4934
54.7162
55.476
55.4894
303.558
254.705
435.725
469.005
572.663
404.219
582.963
84.8268
84.1663
360.581
277.275
86.077
62.2239
156.157
8.12879
8.29841
8.42513
8.53348
8.56072
8.44311
8.36698
8.69394
8.70206
8.58446
8.64257
8.63195
8.47102
8.48664
7.3306
7.66182
7.79693
7.92773
7.8751
7.72538
7.94149
7.72829
7.91957
6.91229
7.27892
6.72951
6.61807
7.44846
7.11493
6.1515
1557.78
1551.55
1319.25
273.397
1085.11
1589.85
1489.24
1163.71
1164.72
703.196
687.791
971.139
1503.87
1581.7
1215.23
1046.9
1450.58
1694.56
1033.04
1663.99
275.67
8.53785
531.314
1.55368
0.802883
4.9856
8.58258
430.972
-0.406088
2.53456
3.28953
-0.27906
-0.354132
1.06086
0.414831
0.482662
0.967407
0.474534
0.371423
1.16615
1.25314
1.23034
1.35806
1.25637
1.21583
0.253323
0.250914
0.236871
0.237198
0.258702
0.250799
0.233071
0.228051
0.208663
0.214605
0.188376
0.192225
0.201702
0.197222
0.191179
0.160713
0.1764
0.17717
0.154659
0.162544
0.177403
0.0890456
0.0971064
0.102067
0.105767
0.102427
0.0914224
0.0970284
0.0687574
0.0783955
0.0721207
0.0638255
0.0560462
0.0392221
0.0485365
0.0413899
0.0366931
0.0411838
0.0478929
0.0419347
0.0164796
0.01117
0.0129288
0.0222055
0.0152345
0.0159106
0.022082
0.0014653
0.00651545
0.00834471
0.0120924
0.0210206
0.014657
0.00529389
0.0103739
0.00819445
0.0135872
0.0180871
0.0119794
0.00547554
0.00596489
0.00168195
0.00758688
0.0108526
0.021925
0.0151821
0.0122545
0.00911945
0.00158321
0.00768351
0.0052685
0.0437069
0.0344851
0.0380062
0.037674
0.0328411
0.0386287
0.0438964
0.0360877
0.0285307
0.0452159
0.0358447
0.0475247
0.0412185
0.0444068
0.0320121
0.0163273
0.0298001
0.0568935
0.0733213
0.0622291
0.0633674
0.0566599
0.0413319
0.0717294
0.0775545
0.0789534
0.0873574
0.0823627
0.0709145
0.0757735
0.0804691
0.0776685
0.0689661
0.0836227
0.072381
0.0755726
0.0696896
0.0765423
0.0694825
0.156048
0.152215
0.148154
0.143702
0.146352
0.151629
0.149066
0.148828
0.147078
0.143403
0.141037
0.145174
0.14005
0.145416
0.159528
0.161822
0.161913
0.163809
0.163427
0.161324
0.160832
0.169539
0.164322
0.166562
0.159331
0.162658
0.173696
0.175263
0.171782
0.172342
0.175826
0.174183
0.170912
0.169377
0.169717
0.170471
0.165325
0.167126
0.167562
0.168506
0.172877
0.176599
0.172418
0.177615
0.171269
0.177542
0.173486
0.140526
0.148643
0.149663
0.132104
0.132649
0.160821
0.163556
0.157002
0.15907
0.162562
0.164063
0.159742
0.149912
0.147007
0.141182
0.155642
0.160955
0.154987
0.151458
0.0954817
0.11066
0.111527
0.0907444
0.0899673
0.103892
0.102471
0.0502228
0.0645766
0.038388
0.0202325
0.0289534
0.0382374
0.0358341
0.0451881
0.0442584
0.0922007
0.0803969
0.0828887
0.0791681
0.0754242
0.0767667
0.0847724
-0.0274383
-0.0101907
-0.00469034
-0.0412421
-0.0436464
0.0139056
0.0180158
0.0313536
0.00515093
0.0138171
0.0251217
0.010937
-0.0797378
-0.0748952
-0.0926362
-0.0842688
-0.0827787
-0.108224
-0.100874
-0.240059
-0.206836
-0.211838
-0.195394
-0.209053
-0.215977
-0.240342
-0.207549
-0.212114
-0.212684
-0.222209
-0.255125
-0.229972
-0.248982
-0.3253
-0.245206
-0.258814
-0.2543
-0.304449
-0.28199
-0.331697
-0.190303
-0.244983
-0.277908
-0.284374
-0.273702
-0.308392
-0.174549
-0.306299
-0.253615
-0.39052
-0.249478
-0.272264
-0.449535
-0.406923
-0.491733
-0.431511
-0.40054
-0.636507
-0.503346
135.002
38.5511
84.5193
123.926
9.58864
9.48404
213.903
211.088
81.6647
76.0604
749.399
373.193
760.623
748.716
578.549
1103.94
820.988
398.715
781.658
430.764
857.203
892.647
813.316
962.204
870.453
896.294
939.387
1002.17
788.203
1078.42
859.531
1163.18