/*--------------------------------*- C++ -*----------------------------------*\
| =========                 |                                                 |
| \\      /  F ield         | OpenFOAM: The Open Source CFD Toolbox           |
|  \\    /   O peration     | Version:  v2012                                 |
|   \\  /    A nd           | Website:  www.openfoam.com                      |
|    \\/     M anipulation  |                                                 |
\*---------------------------------------------------------------------------*/
FoamFile
{
    version     2.0;
    format      ascii;
    class       surfaceScalarField;
    location    "0.25";
    object      phi;
}
// * * * * * * * * * * * * * * * * * * * * * * * * * * * * * * * * * * * * * //

dimensions      [0 3 -1 0 0 0 0];
oriented        oriented;


internalField   nonuniform List<scalar> 
13152
(
1.01098e-06
2.03112e-05
-1.67814e-06
-1.9644e-05
1.87369e-05
-1.70933e-05
-6.32656e-07
-3.46774e-06
4.25159e-05
-3.4647e-05
3.54319e-05
-2.46305e-06
2.12138e-05
-7.55048e-05
2.85328e-05
-2.44124e-05
6.0497e-05
-1.60939e-05
-2.95466e-05
-2.8438e-05
7.40785e-05
3.87248e-07
-1.67723e-05
2.91224e-07
-2.99193e-05
7.59857e-07
7.84325e-06
5.15662e-06
-2.97722e-05
7.8098e-06
3.24682e-07
-5.08293e-06
-1.55452e-05
-2.98456e-05
-8.65011e-06
-1.46166e-05
-5.13289e-06
2.83996e-05
-7.63365e-08
-8.66388e-06
9.01099e-08
-1.41427e-05
-5.5025e-07
5.66934e-06
-3.05648e-05
1.62316e-05
-2.9313e-05
2.98495e-05
2.9371e-05
-4.92224e-07
3.73913e-08
-1.52579e-05
-2.99158e-05
1.07661e-07
-7.4946e-05
3.3253e-07
1.59891e-05
3.02056e-05
-2.35639e-08
7.45943e-05
3.57833e-05
1.26638e-05
2.54096e-05
-7.38567e-05
3.78357e-07
-7.36438e-07
3.61414e-05
1.24095e-05
2.60774e-07
-1.87464e-05
7.36717e-05
7.7892e-05
2.9183e-05
-7.32843e-07
-2.93948e-05
9.44714e-07
-1.64198e-05
-2.68944e-05
7.24972e-05
1.70202e-07
-1.73229e-05
-8.0795e-06
8.01279e-06
2.36907e-07
5.30267e-06
-3.0705e-05
-4.97039e-06
-1.39113e-05
-2.90626e-05
-1.38021e-05
1.27725e-07
2.91646e-05
2.29763e-07
9.11845e-07
-8.76443e-07
-9.00395e-06
8.96855e-06
-8.98745e-07
-5.37571e-06
7.1863e-06
-1.65561e-06
-1.19577e-07
-6.51762e-06
-5.38e-06
6.52191e-06
-2.33839e-06
-1.31832e-05
1.07084e-06
2.45789e-07
-2.97224e-06
1.03362e-06
-8.2352e-08
-1.65625e-06
-2.69013e-06
-3.74884e-06
-7.71062e-07
8.95958e-06
-3.2293e-06
-4.95921e-06
1.35783e-05
-4.9534e-06
-9.39593e-06
-1.0436e-05
-1.53626e-05
3.19142e-06
1.37804e-06
-9.52286e-06
2.58342e-09
-4.04635e-08
-1.0226e-05
-2.07445e-07
-2.42105e-05
-3.28935e-06
-5.73996e-06
-7.27203e-07
9.75651e-06
-1.3228e-08
-3.11415e-06
-1.61973e-07
-5.76837e-06
1.5192e-08
1.0759e-05
7.7816e-06
-2.4309e-05
1.02102e-05
5.64024e-07
-4.93465e-06
1.44176e-05
-2.67207e-07
7.94496e-06
7.78293e-06
7.76188e-06
-2.34898e-05
-4.91569e-08
7.69541e-06
2.98706e-07
7.76353e-06
-2.97597e-08
-3.60668e-07
7.61185e-06
4.44224e-07
7.7043e-06
-3.03097e-07
-8.14714e-06
2.35225e-05
-4.72607e-07
-1.55717e-05
-7.79051e-06
1.02532e-05
1.3109e-05
-6.31378e-06
-9.23177e-07
-8.33482e-06
-1.34698e-05
-6.34541e-07
-3.12491e-05
-5.94823e-06
3.62741e-05
2.71015e-05
-4.80975e-05
1.95841e-05
-5.95239e-06
1.30012e-05
2.01358e-05
-1.36151e-05
-2.131e-05
1.47893e-05
-3.27041e-05
8.84777e-06
4.39922e-05
-3.82398e-06
-4.24952e-05
3.93277e-05
-1.45017e-05
-4.61361e-05
5.33859e-06
4.87784e-05
-1.87812e-05
3.29675e-05
-3.71069e-05
3.66357e-05
1.56117e-05
-2.89291e-06
-4.93546e-05
-1.16182e-05
1.32574e-05
3.49966e-05
1.45264e-05
-1.05329e-05
-3.24766e-05
2.72997e-06
4.4273e-05
-1.35716e-05
-2.94378e-05
-3.47586e-05
5.07459e-05
-5.12231e-05
-6.76279e-06
-1.73755e-05
1.10211e-06
2.30362e-05
-6.00061e-06
8.62925e-06
-9.39143e-06
-1.04083e-05
-1.29678e-05
-2.5429e-05
6.18189e-06
2.78764e-05
-1.5436e-06
-3.32768e-05
2.10215e-05
-3.29734e-05
2.83055e-05
2.09086e-06
3.78598e-08
-2.63684e-06
5.08127e-07
-4.9158e-06
-9.23619e-07
7.93028e-06
8.1149e-07
-5.68943e-06
-2.08258e-06
-6.65125e-06
7.81022e-06
-9.74037e-06
5.02095e-06
-1.11721e-05
5.33233e-06
-2.66019e-05
2.89396e-06
2.65122e-06
4.17444e-06
-9.71962e-06
7.26464e-07
-2.0315e-07
2.37065e-06
1.12206e-06
2.25562e-06
2.32999e-06
1.6413e-06
3.17448e-07
3.1346e-06
4.94371e-06
-4.29009e-05
3.89627e-05
-2.36508e-06
6.30323e-06
6.20781e-05
3.80701e-05
5.85898e-05
6.70423e-06
9.43365e-05
3.57531e-06
1.42566e-05
2.02381e-05
2.0256e-05
4.19091e-05
-1.33285e-05
4.02886e-05
-1.43716e-06
2.78436e-05
4.1142e-06
-2.72244e-05
-4.73346e-06
-2.3978e-05
-2.625e-05
7.80716e-05
2.59083e-06
-2.24546e-05
-2.59881e-05
2.67827e-05
1.79617e-06
2.16531e-05
-7.00958e-05
-1.21601e-06
1.74871e-06
-6.78729e-06
-1.68817e-05
-0.000289653
0.000103844
0.000202691
-0.000185067
6.75895e-05
0.000100596
0.000210942
0.000317813
6.77465e-05
2.23122e-06
-2.38819e-06
-3.00667e-05
0.000201657
0.000207551
5.62132e-06
0.000495297
5.94763e-05
4.01309e-05
-6.45418e-05
-3.50654e-05
2.53927e-05
-0.000142044
0.000176127
-8.09595e-05
0.000146483
1.58594e-05
0.000106873
-0.000187275
8.58359e-05
-0.000105042
0.000102211
-0.000158419
0.000128125
2.97326e-06
2.52574e-05
-4.87133e-05
2.04827e-05
4.77237e-05
-5.17037e-05
6.95321e-06
-5.45329e-05
0.000127514
6.3126e-05
2.88188e-05
-0.000143648
4.53441e-05
2.4735e-05
9.36659e-06
-1.85553e-05
-1.0528e-05
4.82652e-05
8.17222e-05
2.31033e-05
-0.000153091
1.69515e-05
-1.57018e-05
4.70155e-05
6.65504e-05
3.21233e-05
8.3418e-05
-6.54254e-05
-3.36944e-05
-1.1249e-05
0.000141682
-9.83505e-05
0.000153652
-0.000140673
-0.000108064
-5.7837e-05
1.33259e-05
0.000152575
2.3281e-05
-6.34498e-05
-6.78947e-05
-5.45906e-05
2.00345e-05
-3.36943e-05
-8.64238e-06
5.56625e-05
-5.83021e-06
-9.13139e-05
0.000108906
-3.45239e-05
-0.000128972
5.1448e-05
7.74922e-05
3.05685e-05
-7.09227e-05
7.33741e-05
-1.99069e-05
-3.62543e-05
1.73885e-05
3.87727e-05
-2.26985e-05
8.68743e-05
-8.40827e-05
4.93845e-05
-0.000108337
4.59326e-05
-9.64389e-05
-4.5613e-05
0.000130318
-8.74292e-05
0.000128691
-0.000134484
-0.000124839
-3.09941e-05
4.56885e-05
0.000110144
2.45008e-05
5.31941e-06
-0.000154659
2.06748e-05
-2.71681e-05
-8.44706e-05
1.20759e-05
0.000118083
1.69142e-05
-9.60654e-05
-0.000121195
6.85948e-06
0.00013501
-5.71964e-05
-9.11663e-05
0.000114842
-0.000155124
0.000133777
-9.21787e-05
-5.88234e-06
9.24577e-05
5.60331e-06
6.89654e-05
1.74698e-05
-0.000178614
-9.2345e-06
7.23176e-05
-2.54676e-05
2.39552e-05
9.39702e-05
2.36655e-05
-3.16633e-05
0.000107771
-8.4235e-05
-3.277e-05
-1.17482e-05
0.000191836
-2.6192e-05
3.83989e-05
-8.67615e-05
-1.18546e-06
-5.73621e-05
5.65376e-05
2.0099e-06
-5.76924e-05
-2.59794e-06
5.91049e-05
5.30643e-05
-0.000168119
6.04524e-05
-5.79697e-05
-5.08072e-06
-5.90566e-05
-7.31956e-07
-4.17346e-06
-3.25096e-06
4.92725e-06
-7.23085e-05
-6.09257e-06
7.34738e-05
-7.82397e-05
7.53527e-05
7.81423e-06
7.34471e-05
-0.000223995
8.28136e-05
-7.25265e-05
-1.63797e-05
-7.24958e-05
0.000228783
1.42318e-06
1.43378e-06
2.34383e-06
-7.76858e-05
-5.62894e-06
7.7372e-05
5.94275e-06
0.000121266
3.86579e-05
-0.00023761
0.000132798
-1.71613e-05
-0.000105237
-4.13864e-05
-9.90074e-05
-2.86822e-07
0.000148667
-0.000209017
0.000240079
0.000167793
0.000164683
0.000168033
-0.000500509
-2.59146e-07
0.000159975
8.07695e-06
0.000163602
8.22273e-07
-0.000171597
-0.00015393
0.000489129
-0.000165097
-5.67744e-06
9.96145e-06
-7.02595e-06
1.60066e-05
-4.2864e-05
6.4166e-06
4.9508e-05
-1.30606e-05
7.26519e-05
6.56506e-06
-0.000122081
5.65507e-05
2.25177e-05
-9.18785e-05
-8.69333e-06
0.00015008
-4.71231e-05
-5.7816e-05
8.89355e-05
-0.000129494
0.000136793
-2.41122e-05
1.94024e-05
6.40641e-05
-5.93543e-05
5.0769e-05
7.51986e-05
5.69647e-05
1.32067e-05
-3.06817e-05
6.36749e-05
4.22054e-05
8.42371e-05
-5.08548e-05
-4.33995e-05
0.000184601
3.34821e-05
6.87392e-05
-3.29695e-06
-6.54288e-05
-1.34712e-08
-0.000109497
-2.9238e-05
0.000207474
-9.32766e-05
-1.95176e-05
9.84132e-05
2.44863e-05
-0.000188328
9.3319e-05
-0.000133199
0.00019728
-0.00020199
-4.5043e-06
4.92028e-05
-6.75237e-05
2.28252e-05
6.51686e-05
-3.88639e-06
-6.57865e-05
-7.05379e-05
0.000184909
-6.44207e-05
6.3568e-05
-3.03372e-06
6.08902e-05
-0.000191097
8.79594e-06
-1.57659e-05
2.16243e-06
3.82711e-05
3.65913e-05
-4.75495e-05
-2.73129e-05
5.41539e-06
-5.1227e-05
-5.79141e-05
9.99208e-05
4.02488e-05
4.75545e-05
-0.000135353
7.84092e-05
-6.54732e-05
9.89192e-06
2.71557e-05
1.05068e-05
2.87873e-05
5.95138e-05
-3.92396e-06
-1.85158e-05
-3.46823e-05
-4.38235e-06
4.98941e-05
-4.52422e-05
-2.69626e-07
6.61362e-05
-3.83953e-05
-3.02774e-05
0.000146308
2.8571e-05
5.65051e-05
4.81363e-05
-1.98348e-05
3.8285e-06
1.42814e-05
2.16875e-05
7.01619e-05
-2.45039e-05
-5.61551e-05
1.04971e-05
-0.00013714
-1.07053e-05
0.000218007
-6.94982e-05
-9.21456e-05
8.1597e-05
1.83878e-05
-0.00015614
7.54311e-05
1.66632e-05
-0.000109863
0.000174589
-0.000160974
-1.29632e-06
4.3345e-07
6.67487e-07
1.95385e-07
2.44351e-06
1.31167e-07
-3.871e-06
1.05336e-06
1.8236e-06
-5.38595e-07
1.04716e-06
1.58922e-07
1.73598e-06
-2.14341e-06
-7.59182e-07
-4.27557e-06
6.08811e-06
-1.8171e-06
2.88152e-06
3.16221e-07
-2.85581e-06
-4.53725e-07
-5.97079e-07
1.05486e-06
4.6533e-07
-9.23115e-07
7.09108e-07
-5.68525e-07
-7.37662e-07
9.84497e-07
7.79472e-07
1.59657e-06
2.01822e-06
-4.18332e-06
3.96073e-06
-1.89883e-06
1.53646e-06
1.46625e-06
6.27666e-06
1.34362e-06
5.07649e-06
-1.21489e-05
5.72882e-06
3.01439e-06
-7.06065e-06
5.38989e-06
7.12849e-06
9.62395e-07
2.24665e-08
2.77649e-07
6.82838e-06
1.91777e-06
-9.32907e-07
2.22883e-06
-2.51153e-06
-6.77794e-06
-9.1471e-06
-7.72986e-07
7.72983e-07
-3.00686e-06
-6.45635e-06
1.28654e-06
-1.29982e-07
-1.89422e-06
-1.53541e-06
-5.84871e-06
8.88083e-06
1.31387e-05
-5.87094e-07
-2.14325e-05
-5.27831e-07
4.0453e-06
5.36336e-06
-1.06417e-06
1.36751e-05
3.23523e-06
-1.03627e-06
1.84632e-06
9.11275e-07
7.6873e-06
-4.6978e-06
4.5449e-06
-6.32117e-06
5.68645e-06
-6.82018e-06
-1.6424e-05
1.75577e-05
-1.2921e-05
-2.54847e-05
4.40922e-05
-1.20485e-05
-7.69268e-06
1.06767e-05
-1.89732e-05
-1.71881e-05
-2.44583e-05
1.8711e-05
3.4029e-06
-3.99097e-05
-2.3263e-05
5.87581e-05
9.84095e-07
-5.73139e-05
-2.4283e-06
-3.76774e-05
-1.65891e-05
0.000113025
-3.73113e-05
6.18042e-07
1.45139e-05
-1.74491e-05
-5.43788e-05
-1.64176e-05
1.43424e-05
4.96001e-05
1.52644e-05
-0.000102176
4.90547e-05
1.16338e-06
-1.25391e-05
4.51762e-05
-1.47238e-05
8.27312e-06
5.15693e-07
-2.76347e-07
-8.51246e-06
-1.20195e-05
-5.48063e-06
2.57732e-05
-1.55629e-05
4.05914e-06
-1.35258e-05
1.16855e-05
1.56394e-06
3.83545e-06
-2.58737e-05
-1.79337e-05
2.41386e-05
-2.96612e-05
-9.32806e-06
-2.84035e-05
1.04403e-05
2.72912e-05
-1.30929e-05
1.30791e-05
-9.31428e-06
-4.60595e-06
-3.68904e-05
-1.9316e-05
-1.32526e-06
3.37203e-05
-3.43351e-06
-2.51968e-05
2.2364e-05
-3.04035e-05
3.1479e-05
6.94925e-06
5.40795e-06
1.14246e-05
-2.37818e-05
-9.54813e-06
7.92271e-06
8.57465e-06
2.3151e-05
6.84354e-06
-2.1198e-05
2.22772e-05
-3.3063e-05
4.84812e-05
-6.68768e-06
-7.00467e-06
-7.50568e-06
-1.37063e-05
-2.60443e-05
-1.91563e-05
2.86009e-05
-1.47364e-05
-4.38746e-06
3.40191e-06
5.15737e-06
-4.17183e-06
5.54502e-06
1.10117e-06
-1.10336e-05
5.26859e-06
3.67834e-06
5.71468e-07
2.10131e-06
2.4846e-06
1.00688e-06
6.65752e-07
4.35139e-06
3.37533e-06
-2.45813e-06
-3.76721e-06
1.17969e-05
-1.64151e-06
-1.11882e-06
3.83512e-06
1.028e-06
-1.85663e-07
-1.45018e-06
6.07838e-07
-2.7e-06
-8.1733e-07
4.54533e-06
-1.3645e-07
-2.74921e-06
-1.26524e-06
-4.63032e-06
5.07822e-06
-5.87034e-06
3.15493e-06
-6.60157e-06
1.83481e-06
-1.52211e-05
-8.51839e-07
-1.39907e-06
2.40983e-06
-1.81433e-07
-1.22478e-06
5.5437e-07
-1.38512e-06
3.55183e-06
-8.80794e-06
1.83641e-07
-6.03694e-06
-1.05915e-06
4.24027e-06
1.98805e-06
-7.84135e-06
1.48327e-06
3.43937e-06
1.45275e-07
-3.62638e-06
-7.31158e-06
1.07927e-05
-4.22809e-06
-1.47424e-05
1.91158e-05
-4.99249e-06
-2.86198e-06
4.13684e-06
7.9827e-06
-1.7112e-05
1.19363e-05
-1.06614e-05
1.06761e-05
-1.74358e-05
1.53008e-05
-4.65724e-07
-6.90665e-06
-1.23502e-05
1.97226e-05
-1.00882e-05
-2.06938e-05
3.03163e-05
-8.53932e-06
-8.45552e-06
6.29815e-06
1.26454e-05
-2.74829e-05
1.83739e-05
-2.05313e-05
1.67419e-05
-2.47903e-05
2.27656e-05
2.92984e-06
-2.0957e-05
2.27233e-05
-4.69607e-06
-2.09909e-05
2.17203e-05
2.20049e-06
-2.42524e-06
-3.95227e-05
-1.62992e-05
-8.41825e-06
4.64377e-05
-1.64116e-05
2.3129e-06
-4.98514e-06
-6.49666e-06
3.06355e-06
-3.94382e-06
-1.74529e-05
6.63908e-06
-1.30082e-05
2.28657e-05
9.35693e-06
9.63719e-06
1.27248e-05
-3.1719e-05
7.91658e-06
2.17688e-05
-2.03284e-05
9.21257e-06
8.34119e-06
-8.92355e-06
-1.46868e-05
3.28229e-05
-2.93503e-05
2.87679e-05
-2.63162e-05
3.33981e-05
-4.29416e-05
1.06032e-05
9.71148e-06
1.35449e-06
-2.16691e-05
-3.20242e-06
2.05709e-06
1.17485e-05
1.25666e-05
-6.05753e-06
1.29182e-05
-1.10972e-05
2.36079e-07
-5.81579e-06
3.04825e-05
2.77566e-06
-2.94837e-06
-1.09245e-05
-4.48608e-06
1.44595e-06
-2.1842e-06
1.02647e-05
-3.77806e-06
2.11876e-05
1.47168e-06
-1.90541e-05
-3.60509e-06
-2.52574e-05
-3.12091e-05
7.7654e-05
-2.56932e-05
1.90739e-06
1.59715e-05
2.37527e-05
-5.87783e-05
2.44307e-05
-1.20644e-05
9.58598e-06
-1.63647e-05
7.64481e-06
1.16976e-06
-4.08299e-05
-1.48568e-06
4.11458e-05
-4.22229e-05
3.98535e-05
3.53923e-06
3.87648e-05
-0.000121818
4.43588e-05
-4.08884e-05
-4.95609e-06
-3.90422e-05
0.000124547
-3.25365e-06
4.06489e-06
-5.37734e-06
-2.55996e-07
3.03347e-05
-3.45433e-05
4.46467e-06
2.00015e-05
-9.9448e-06
-1.03127e-05
-9.11569e-06
5.94519e-05
6.79121e-05
9.95075e-07
-0.00010345
3.77784e-05
3.45984e-05
3.63232e-05
-4.52729e-05
6.4986e-05
8.13225e-05
5.30229e-05
3.35835e-05
-0.000167929
-1.32809e-05
7.23837e-05
2.22197e-05
-5.24618e-06
4.49882e-05
-0.000110744
2.65987e-05
0.000156529
9.5438e-05
-0.000172598
7.21786e-05
1.80133e-05
0.000143766
-1.09539e-05
7.95835e-05
1.23607e-05
-8.09903e-05
0.00012373
-8.5542e-05
-4.91414e-05
-2.04775e-05
0.00022379
-0.000141157
0.000100808
5.27098e-05
1.56927e-05
-0.00023784
0.000150056
-0.000219905
0.000230387
0.000197788
2.62895e-05
-0.000146674
-7.74034e-05
-0.000128514
8.75252e-07
0.000325427
2.32315e-05
-0.000125456
5.97557e-05
-3.16158e-05
-0.000174814
-3.44114e-05
9.50424e-05
-0.000208541
0.000152894
7.88785e-05
-1.7201e-05
-0.000316796
-6.49415e-05
0.000183424
-0.000113758
0.000167377
4.97588e-06
-0.000154927
-1.74259e-05
-0.000103719
-4.92362e-05
0.000320332
2.43714e-06
-0.00010118
-0.000156747
0.000148615
1.05691e-05
4.52932e-05
-0.00030322
-0.000212556
0.000311934
-0.000322189
-4.91828e-05
-1.9261e-06
1.09926e-06
5.00097e-05
0.00010475
0.000112186
-0.000266119
0.000107852
-5.02771e-06
2.99074e-05
-3.03928e-05
1.58473e-06
-1.87341e-05
9.86513e-05
2.0047e-05
6.17465e-05
0.000109165
1.82778e-06
9.06839e-05
1.26512e-06
-9.37768e-05
8.84433e-05
-9.8019e-05
1.14035e-05
-9.78457e-05
0.000276973
-9.64912e-05
9.2729e-05
9.69131e-05
-0.000287181
-2.28343e-06
1.17758e-06
-7.39991e-06
3.63109e-06
-5.3825e-05
-1.22748e-06
5.14214e-05
-9.99913e-05
9.15695e-05
1.20529e-05
9.32544e-05
-0.000247071
2.52699e-05
-2.74042e-05
9.06747e-07
-1.54468e-05
9.21381e-05
-1.89046e-05
9.50272e-05
4.69456e-05
3.16012e-05
6.13124e-05
2.02013e-05
-0.000113115
-5.15507e-07
2.94576e-05
2.65918e-06
5.96043e-05
1.19261e-06
1.71466e-05
0.000103838
-0.000100783
9.16625e-05
-4.50583e-05
-9.58038e-05
9.22651e-06
-4.24029e-05
-8.5922e-05
0.000220463
5.44931e-06
1.45543e-05
-1.90125e-06
-0.000106332
7.45062e-06
-4.43004e-05
-0.000263748
-4.35233e-05
-4.77938e-05
-7.28679e-06
9.86039e-05
1.05226e-05
-3.94192e-05
-1.46267e-05
1.29967e-05
-5.0268e-05
5.64957e-05
-5.3396e-05
-4.25189e-05
-7.19105e-05
0.000121119
-0.000108107
4.91933e-05
-0.000211771
-5.27932e-06
5.15221e-05
-5.49657e-05
8.72292e-06
2.88785e-05
-2.41415e-05
-1.00164e-05
-2.46869e-05
0.000105087
9.90269e-05
8.06875e-05
-0.00023468
7.15016e-05
3.62481e-05
-4.29575e-06
6.08417e-05
7.92036e-05
-7.13529e-05
-1.78671e-05
-2.51381e-05
-6.37546e-05
-1.64587e-05
5.86027e-05
2.16105e-05
6.96791e-05
9.58919e-05
-0.000229326
0.000105894
-5.26742e-05
-1.41739e-05
-1.42825e-05
8.7059e-05
-2.415e-05
3.15865e-05
-3.08283e-06
-4.29556e-05
3.1756e-05
-6.11816e-05
3.39487e-05
3.2093e-05
2.61709e-06
9.50317e-05
-0.000127584
-0.000108706
-6.61487e-05
2.75011e-05
-0.00012333
-1.44525e-05
-6.67528e-05
-0.000111452
7.68896e-05
-9.19559e-05
-7.38013e-05
2.79438e-05
-2.08954e-05
0.000153504
-0.000224689
8.94922e-05
-1.4026e-05
6.25443e-05
-1.5083e-05
-3.34353e-05
0.000125209
-3.2829e-05
-0.000106406
-0.000115267
-5.33071e-05
-3.23837e-05
3.45802e-05
-1.72794e-05
5.41308e-05
-0.000119344
0.00012557
-0.000186705
0.000106843
-4.24416e-05
-4.73908e-05
4.91841e-05
4.06482e-05
-2.06907e-05
8.43004e-05
-0.000106051
6.88072e-05
-0.000136889
-1.64156e-05
-6.52497e-05
0.000130849
-7.87011e-05
0.000102934
-5.68636e-07
-3.33402e-05
-3.13407e-05
-3.60255e-05
-4.32442e-05
-4.50595e-06
5.27808e-05
3.0961e-05
2.22802e-05
2.93229e-05
3.21824e-05
-8.37855e-05
7.64991e-06
4.48982e-05
-3.02679e-05
3.04865e-05
6.48628e-06
-4.91588e-05
-2.73386e-05
0.000106984
-6.70094e-05
2.43369e-05
-6.28315e-05
8.03911e-05
-9.76586e-05
-4.61016e-06
-3.7367e-05
6.43854e-06
3.55387e-05
-2.93723e-05
4.48705e-05
-2.01084e-05
4.02445e-05
-3.82777e-06
-4.70308e-05
5.72971e-05
-7.16815e-05
0.000103392
4.25001e-05
-6.93111e-05
3.57138e-05
-2.13766e-05
-1.5772e-05
5.36475e-06
3.17838e-05
-9.54424e-06
1.43246e-05
-2.61569e-05
1.57872e-05
-4.11034e-05
-5.85993e-05
3.16435e-05
4.12805e-05
-8.56217e-06
-7.61941e-05
2.00823e-05
-1.28573e-05
5.70905e-05
2.72413e-05
-3.2953e-05
-3.04845e-05
3.61962e-05
-0.000103901
0.000112627
-7.73403e-05
8.57199e-05
-0.000105698
8.72337e-05
2.5628e-05
-1.47605e-05
-7.11094e-05
6.02418e-05
-5.76744e-05
-9.23486e-05
0.000175651
-1.14626e-05
-6.09723e-05
-4.97807e-05
7.31862e-05
-3.48681e-05
8.62706e-05
-0.000197024
3.71603e-05
-5.63227e-05
5.23215e-05
6.47841e-05
-2.07812e-05
-0.000119541
7.55385e-05
-5.78036e-05
-5.36102e-05
0.000176198
-6.0988e-05
-1.75968e-05
7.82347e-05
5.07452e-05
-0.000189968
0.000111094
-5.04561e-05
-0.000126504
0.000183988
-0.0001953
0.000135429
-2.96238e-05
-0.00016509
5.92844e-05
-0.000126013
-8.53846e-05
0.000346827
-0.000123865
-3.17717e-05
0.000163321
7.37554e-05
-0.000360942
0.000231283
-9.97328e-05
-0.000221564
0.000367462
-0.000312898
1.68765e-06
3.47071e-06
-3.58982e-06
-1.56855e-06
3.62351e-06
-3.98274e-06
2.04688e-06
-2.11119e-06
9.20543e-06
6.04547e-06
2.58533e-06
-1.26135e-05
4.19271e-06
3.89966e-06
-1.19031e-06
3.27184e-06
-2.19478e-06
6.35458e-06
1.06915e-06
-5.94737e-06
-1.47636e-06
-6.00339e-06
-2.42094e-06
1.47789e-05
-6.05313e-06
1.1189e-06
4.33492e-06
3.33788e-06
-1.36202e-05
7.90539e-06
-5.04683e-06
1.20406e-06
2.22139e-06
-8.75579e-08
2.44961e-06
6.65985e-06
-1.36304e-06
1.39173e-06
-5.19476e-06
-6.47788e-06
-1.61301e-06
2.37842e-06
5.71248e-06
2.95293e-06
-1.89639e-06
-7.53442e-06
-2.47188e-06
3.8118e-06
6.58636e-06
1.28916e-06
-9.7719e-06
-1.16201e-06
1.01268e-05
9.1773e-06
-1.036e-05
1.18271e-05
-7.7842e-06
1.26762e-05
3.4884e-05
-3.9776e-05
1.25161e-05
2.01483e-05
-4.04486e-05
1.29852e-05
1.22071e-05
-8.31593e-06
-1.87729e-05
4.00741e-05
-3.16717e-05
3.55629e-05
2.77255e-05
-3.92489e-05
4.38366e-05
2.78008e-05
1.01204e-05
-7.92252e-06
-2.99987e-05
-1.1608e-05
3.56528e-06
3.58436e-05
-1.34864e-05
1.19988e-05
2.31931e-05
2.33929e-06
-3.34549e-05
-8.59169e-06
3.53501e-05
3.43784e-05
-4.55255e-05
3.77855e-05
3.83981e-06
1.64542e-05
3.02908e-05
-5.05847e-05
8.23289e-06
2.089e-05
-2.52831e-05
1.56627e-05
9.02434e-06
-1.10114e-06
-2.82848e-05
4.50487e-05
-1.96766e-05
2.75998e-05
-1.76027e-05
2.82169e-05
-2.49975e-05
2.18117e-05
-4.69409e-06
-2.51462e-05
8.02866e-06
-2.25524e-05
-2.64884e-05
7.08525e-05
-2.5075e-05
-2.17148e-06
1.19948e-06
-3.35849e-05
7.23922e-06
-2.7462e-05
2.17306e-06
2.704e-05
-8.57e-05
-2.59344e-06
-1.56348e-05
7.13127e-06
3.63969e-05
-2.78933e-05
1.20741e-05
2.48078e-05
-5.25167e-05
6.82601e-06
1.23793e-05
1.84728e-05
-2.30349e-05
1.13881e-05
-2.53054e-05
5.61575e-05
3.80526e-05
2.81029e-05
-4.13477e-05
2.14358e-05
5.30137e-05
-6.59629e-06
1.16644e-05
-1.04659e-05
-3.41955e-05
-1.94672e-05
-3.69418e-06
5.73569e-05
1.93041e-07
-2.30005e-05
-1.81528e-05
-1.12135e-06
5.81365e-06
-3.89798e-06
-2.00685e-05
5.55014e-06
-8.57841e-07
7.98849e-06
8.34761e-06
-2.02341e-05
2.35025e-05
-9.96391e-06
3.56e-05
-5.02528e-05
5.54083e-05
2.91516e-06
1.1431e-06
2.11077e-05
-2.5166e-05
3.81735e-06
1.06904e-05
-1.15926e-05
-9.48371e-07
5.90883e-06
9.87199e-06
-1.19758e-05
1.15546e-06
-5.348e-06
2.11288e-05
1.76102e-05
2.57457e-05
-2.22481e-05
1.71491e-05
1.11516e-05
-2.04892e-05
4.08868e-05
-1.53159e-05
-6.36247e-06
-1.68437e-05
4.4335e-05
-5.34117e-06
1.34156e-07
4.88685e-06
3.23611e-06
-1.34641e-05
6.68236e-06
-1.66135e-06
5.77911e-06
-1.78589e-05
2.13347e-05
-8.8732e-06
4.53778e-05
8.99535e-06
6.10304e-06
-1.39155e-06
-1.37068e-05
2.30555e-06
5.91681e-06
4.23413e-06
4.17447e-06
9.97189e-06
1.79047e-07
-1.65596e-05
3.0706e-05
-1.77721e-05
2.56272e-06
4.8148e-06
-2.21251e-06
-5.165e-06
2.57447e-06
2.61826e-06
-2.63001e-06
-2.52301e-06
2.13441e-06
2.09285e-06
1.85023e-05
4.1553e-06
-1.09043e-06
-2.15672e-05
-3.89836e-06
1.4895e-05
-1.80266e-06
2.0596e-06
3.34238e-06
-6.89095e-06
2.46667e-08
1.82127e-05
-1.19588e-06
-7.49772e-06
8.88393e-07
7.00406e-06
1.50598e-06
1.82886e-06
2.54519e-06
-2.81465e-06
-7.76717e-06
-4.16834e-06
6.5404e-06
5.69178e-06
1.46634e-05
1.4034e-05
-5.29075e-06
-6.79991e-06
-2.64576e-06
-4.64599e-06
-2.95708e-06
2.31231e-06
-6.59631e-06
-4.84959e-06
2.9919e-07
-2.12737e-06
-8.17581e-07
-6.82971e-06
-2.01697e-06
-1.14091e-05
-8.99393e-06
6.56178e-07
5.94247e-06
-7.71746e-06
6.99271e-06
-5.67078e-06
4.15312e-06
8.78205e-06
8.95003e-06
-9.71312e-07
1.92965e-06
5.12978e-06
-6.31831e-07
3.00603e-06
-3.34551e-06
-7.54403e-07
2.05222e-06
1.09299e-06
-2.18363e-06
3.36239e-07
-2.52557e-06
4.16083e-06
-3.68038e-06
7.10698e-06
1.34739e-06
2.41538e-06
1.84723e-06
4.57839e-06
1.05525e-05
-2.04429e-06
-2.14646e-05
1.29565e-05
-7.82479e-06
-1.14056e-05
2.97829e-05
5.20027e-07
-1.03891e-05
-9.77862e-06
8.2295e-06
2.06915e-06
1.74825e-06
-2.1916e-05
-1.51101e-05
1.1934e-05
-3.48265e-05
-1.62717e-06
-5.52826e-06
1.09225e-06
6.06319e-06
-3.98494e-07
-2.1193e-06
8.90622e-07
-8.62752e-06
2.70076e-06
-4.23036e-06
-3.76795e-06
9.09056e-06
-1.07091e-05
4.35947e-06
1.7969e-05
7.09921e-07
-2.73064e-05
9.44608e-06
1.12237e-05
1.71559e-05
-2.71551e-05
2.2834e-05
-3.23375e-06
-5.92419e-06
2.01633e-06
5.18271e-06
5.32982e-06
-3.05353e-06
-4.1298e-06
1.85351e-06
-1.33257e-05
-1.56457e-07
1.88119e-05
-2.09203e-06
-1.42872e-05
7.80138e-06
-1.9558e-05
7.62685e-06
-1.43302e-05
2.19751e-05
-1.31752e-05
1.20025e-05
-9.19278e-07
7.44797e-07
-2.82072e-05
1.92509e-05
-3.80641e-05
1.69232e-05
-4.42428e-06
-5.85347e-06
-2.14295e-06
1.24207e-05
-2.07766e-06
-3.82277e-06
1.47614e-06
-5.86199e-06
5.58105e-06
-1.55622e-05
6.15842e-06
1.53721e-05
1.32645e-05
-4.10425e-05
-3.71243e-05
-5.36385e-06
-9.37054e-06
2.27071e-06
8.27223e-06
5.27739e-06
3.22771e-07
-5.62042e-06
2.02583e-08
-1.15001e-05
-3.61542e-06
2.03929e-05
-4.99751e-07
-1.06776e-05
2.80868e-06
-1.8837e-05
1.04079e-05
-1.94169e-05
1.86102e-05
-1.88563e-05
-1.06038e-06
-4.8371e-05
-1.16164e-05
-7.00526e-06
-1.85026e-05
-9.91372e-07
-2.40178e-05
1.33929e-05
-8.91592e-06
1.31521e-05
-5.02752e-05
2.79798e-05
-5.28918e-05
-7.64538e-06
1.16073e-05
-9.22485e-06
1.1476e-05
2.63974e-05
-5.30881e-08
-3.78203e-05
8.31038e-06
-6.43491e-06
9.60052e-06
1.00869e-05
2.46209e-05
2.14061e-05
-1.44482e-05
2.38108e-07
3.07686e-05
-2.57168e-05
3.60418e-05
-4.02181e-05
-1.34001e-05
-1.29815e-05
-1.37732e-05
4.01549e-05
-5.58439e-06
-3.13949e-05
2.35791e-05
-1.52241e-05
-3.34185e-06
2.24684e-05
1.44536e-05
-5.2146e-05
2.92094e-05
-1.00829e-05
3.28003e-05
-4.97415e-05
4.82365e-05
3.22309e-05
1.80049e-05
1.31145e-05
-6.33503e-05
-8.68599e-06
1.5237e-05
2.56799e-05
-3.86722e-06
1.3186e-05
8.67947e-06
1.91919e-05
-1.47569e-05
9.10348e-06
1.4813e-05
1.9113e-05
-3.78835e-06
4.14025e-05
9.84986e-06
2.81415e-05
-9.98766e-06
-2.80037e-05
1.37928e-05
-1.5044e-05
1.11011e-05
2.00165e-06
3.99326e-05
3.15903e-05
2.15598e-06
-4.87902e-05
1.0485e-05
3.22063e-05
-2.16522e-05
3.41389e-05
-2.94839e-05
6.72617e-06
-6.8514e-06
-2.2161e-05
2.22862e-05
-9.77397e-06
-1.19119e-05
2.84121e-05
-1.1535e-05
-5.09034e-06
-2.10378e-05
-2.02397e-05
2.93656e-05
-9.19837e-06
-3.40004e-05
1.77004e-05
-3.84338e-05
-7.62966e-06
-1.03462e-05
-5.36626e-07
-1.59332e-05
2.6816e-05
9.88155e-06
-8.67038e-06
-1.15574e-05
-1.64818e-05
2.58267e-05
-8.91973e-06
1.72215e-05
-1.69722e-05
1.36559e-05
-3.4133e-05
-2.1529e-06
7.05569e-06
1.23187e-05
7.28379e-06
4.21917e-06
8.99573e-07
-1.00976e-05
-7.97789e-06
-3.31399e-05
-1.34175e-05
1.53474e-05
3.12101e-05
1.12176e-05
-9.33809e-06
-3.50194e-05
-1.19407e-05
9.74075e-06
2.79191e-05
-1.30437e-05
8.41908e-06
2.92407e-05
9.0049e-06
-7.35161e-07
-2.13135e-05
-1.1917e-06
1.86157e-05
1.30442e-05
-2.31174e-05
2.71999e-05
2.16701e-05
-3.75764e-06
-2.47763e-05
6.86389e-06
-2.36805e-05
-2.91751e-05
7.45257e-05
-2.24133e-05
-5.02492e-06
-2.56088e-06
-2.72801e-05
5.06464e-06
-2.57623e-05
-5.97373e-06
1.66537e-05
-6.63472e-05
-1.41336e-05
4.65123e-05
8.42669e-05
1.68063e-06
-0.00013246
9.60258e-06
-1.25227e-05
4.94325e-05
5.59834e-05
3.78861e-05
8.53058e-05
-4.61612e-05
-5.16673e-05
-6.71654e-06
0.000141455
-9.43817e-05
-0.000138862
-3.76419e-05
-4.18992e-05
-5.7417e-05
0.000136958
-2.92927e-05
-0.00011371
0.000105361
-4.24044e-05
-2.87874e-05
-9.87135e-05
-0.000101342
0.000142639
-6.15836e-05
-0.00015084
2.72019e-05
-0.00013119
-0.000102928
1.65633e-05
3.6465e-05
-0.000123951
2.32824e-05
-9.80331e-05
1.66756e-05
4.30718e-05
3.83823e-05
0.000137117
-3.76819e-05
6.03137e-05
4.24119e-05
-6.50437e-05
0.000167802
-5.37994e-05
-0.000151684
-3.14078e-06
0.000231256
-9.25534e-05
4.44303e-05
9.0535e-05
-2.38452e-05
-0.000133752
0.000122972
-0.000200617
0.000164261
-0.000102321
-0.000208025
1.0845e-05
0.0002995
-5.83967e-05
5.83958e-05
-0.00010232
-8.60957e-05
-0.000180326
-0.000217937
9.71418e-05
0.000179191
-1.34829e-05
-0.000306773
0.000207614
-0.000307193
0.000315601
-7.22799e-05
-1.95993e-05
3.79384e-05
5.39409e-05
4.95066e-05
1.07495e-05
-0.000132536
5.74875e-05
-2.75802e-05
3.78159e-05
4.3458e-05
-7.05244e-05
2.59362e-05
4.98182e-05
-0.000101698
0.000185122
-8.58205e-05
-3.35257e-05
-8.8001e-06
7.10721e-07
4.1615e-05
5.59113e-05
6.66972e-05
-0.000156134
7.48178e-05
-2.77065e-05
2.09086e-05
-1.83767e-05
-1.82104e-06
-1.41026e-05
7.66263e-05
8.57184e-06
3.97487e-05
6.92871e-05
-1.74526e-05
6.93162e-05
-6.25151e-05
1.06514e-05
9.64363e-05
-6.04211e-05
-5.34678e-05
-5.50443e-05
0.000220797
7.08448e-05
3.05277e-05
-0.000163887
5.37901e-05
2.86873e-05
-5.85806e-05
2.74332e-05
-3.63441e-05
-0.00010957
-0.000102342
0.000248257
-2.95393e-06
5.13308e-06
-3.85233e-05
-0.000102158
-1.03661e-05
-4.98896e-05
5.12205e-05
3.80214e-06
2.00591e-05
-0.000108472
7.04794e-05
-0.000152578
9.03023e-05
3.13976e-05
-2.2406e-05
7.31014e-05
2.97012e-05
-0.000211274
8.37606e-05
-6.85707e-06
-0.000141508
0.000256667
-9.79199e-05
-5.04455e-05
0.000111908
-1.18168e-06
-5.30403e-07
-0.000110196
-5.86554e-05
-9.5555e-05
-2.36028e-06
-5.74768e-05
-0.000134989
0.00015898
-2.63511e-05
7.5657e-05
-0.000268122
-9.29233e-05
-3.16199e-06
0.000213717
0.000279774
-4.85734e-06
0.000106622
5.8474e-05
7.36635e-06
-0.000101451
0.00010925
-1.51656e-05
-0.000109582
0.000104861
1.20882e-05
0.000113702
-0.000324735
-8.14006e-05
-0.000122541
0.000308802
-0.000111143
4.18308e-05
-1.71608e-05
1.97197e-05
-3.04511e-05
-3.84133e-05
-8.04957e-05
-0.000110417
-2.80234e-05
-9.15972e-05
8.12073e-05
-2.18801e-05
-8.6639e-05
-5.64245e-05
9.47568e-05
-6.02125e-05
0.000123718
-0.000266782
-4.36487e-05
7.57695e-05
-5.93087e-05
-3.60775e-05
7.06146e-05
4.19965e-05
-7.65335e-05
0.000129898
-6.54748e-05
-0.000100501
-1.75177e-05
0.000218031
-0.000138797
5.77088e-05
0.000123085
3.02452e-05
-0.000245576
7.39485e-05
-0.000109178
0.00011414
-1.45475e-05
-3.61674e-05
-4.40641e-05
-0.000199575
4.4392e-05
-9.3007e-08
9.27763e-05
-0.000137075
-6.32749e-05
6.06143e-05
4.70526e-05
0.00013704
-0.000200408
1.21734e-05
-0.000133416
0.000181857
-8.63222e-05
0.000145548
-9.31055e-05
0.000143823
-0.000133745
-3.60516e-05
4.88904e-05
-5.26056e-05
3.97667e-05
0.000114666
-4.38747e-05
-3.00572e-05
-9.77268e-05
7.03099e-05
-0.00016679
-0.000119024
0.000128734
-0.000146441
6.77662e-05
1.35128e-05
3.04733e-05
-0.000111752
-9.89458e-05
-1.92693e-06
-3.01482e-05
4.33007e-05
-4.16652e-05
-8.63639e-05
0.000126102
-2.85127e-05
-8.44033e-05
-1.36596e-05
1.09641e-05
7.1465e-06
-4.451e-06
5.58669e-05
-2.6922e-07
-6.92573e-05
-1.86566e-05
1.80445e-05
-1.18012e-05
4.30043e-05
-2.40566e-05
5.76711e-05
-6.97416e-05
6.78826e-05
-2.88681e-05
0.000128931
-1.84602e-05
9.21146e-07
1.6581e-05
9.5806e-07
3.73177e-05
2.11421e-05
-7.69201e-05
5.14246e-06
3.30964e-05
9.1219e-06
4.96972e-05
-4.22381e-05
5.09588e-05
-2.06948e-05
2.98084e-05
2.62929e-05
0.000112602
9.35511e-05
2.87029e-05
3.54984e-05
-0.000157752
-1.52696e-05
7.07044e-05
3.81163e-05
2.38055e-05
-1.03721e-05
-8.51714e-05
-2.34108e-05
0.000132388
-5.7053e-05
-3.84905e-05
0.000124591
6.83594e-05
-0.000157452
4.0585e-05
0.00015471
-3.36433e-05
5.08176e-05
-2.23369e-05
-3.45626e-05
6.06773e-06
-5.7158e-05
8.56528e-05
3.56507e-05
-3.60598e-05
-3.41534e-05
-7.34713e-05
0.00011519
-2.54019e-05
9.8434e-05
-0.000109092
4.3837e-05
5.47161e-05
-8.43504e-05
9.5992e-05
-6.73137e-05
-0.000110315
-2.43607e-05
-5.92667e-06
-7.10007e-07
-6.06771e-05
-8.02511e-05
-3.59909e-05
-9.28677e-05
8.79842e-05
2.03546e-05
-0.000173899
-0.000124705
5.31002e-06
6.22301e-05
-5.96397e-05
-7.90048e-06
8.58712e-05
1.3409e-05
0.0001865
8.21075e-05
-0.000173411
-1.25545e-05
0.000109004
-1.67184e-05
-0.00010484
-9.99023e-05
-5.67143e-05
0.000265621
-1.99163e-05
-9.67044e-05
-0.000142595
0.000190701
-6.80228e-05
5.20782e-05
-0.000291377
-0.000176021
0.000310008
0.000111393
-3.32029e-05
-9.53949e-05
1.7205e-05
-0.00023776
-1.17888e-05
-0.000187783
-8.318e-05
0.00015321
1.51214e-05
-0.000263727
0.000132649
3.77666e-05
4.76478e-05
3.88941e-05
-7.14205e-05
3.60171e-05
0.000144279
-6.02977e-05
8.45259e-05
-0.000209187
-2.86168e-06
-3.69415e-06
-6.66435e-06
1.32202e-05
-3.52783e-06
-3.40598e-06
4.07213e-06