/*--------------------------------*- C++ -*----------------------------------*\
| =========                 |                                                 |
| \\      /  F ield         | OpenFOAM: The Open Source CFD Toolbox           |
|  \\    /   O peration     | Version:  v2012                                 |
|   \\  /    A nd           | Website:  www.openfoam.com                      |
|    \\/     M anipulation  |                                                 |
\*---------------------------------------------------------------------------*/
FoamFile
{
    version     2.0;
    format      ascii;
    class       volVectorField;
    location    "0.25";
    object      U;
}
// * * * * * * * * * * * * * * * * * * * * * * * * * * * * * * * * * * * * * //

dimensions      [0 1 -1 0 0 0 0];


internalField   nonuniform List<vector> 
6576
(
(0.0338656 -1.48156 -0.0679944)
(-0.0942842 -1.53638 0.0796367)
(-0.0339464 -1.56783 0.0121906)
(0.0448169 -1.451 -0.0632107)
(-0.00503964 -1.50743 0.00515858)
(-0.0819502 -1.59917 0.0804412)
(-0.0177897 -1.54773 0.0321426)
(0.0157401 -1.49759 0.00261579)
(0.0179515 -1.24801 -0.00993458)
(0.0180793 -1.45844 0.000818478)
(-0.0116764 -1.51159 -0.0164003)
(-0.0175258 -1.55233 -0.0109424)
(-0.00215745 -1.55175 0.00654442)
(0.00758048 -1.48781 -0.000330671)
(0.061448 -1.45536 0.0230291)
(0.00802888 -1.82199 -0.03384)
(0.0687203 -0.859449 0.0342043)
(0.0170748 -1.71942 -0.016921)
(0.0570234 -1.56165 0.0643578)
(0.0180153 -1.47986 0.0035803)
(0.0496063 -1.37566 0.050566)
(0.0020194 -1.5315 0.0146523)
(0.0105397 -1.4681 0.00852517)
(-0.00489241 -1.49996 -0.01234)
(0.00172637 -1.59571 0.0200364)
(0.0546791 -1.52912 0.0566367)
(0.0644883 -1.49309 0.0672251)
(0.000525749 -1.45711 0.0140927)
(-0.00589064 -1.57992 -0.0318264)
(0.00682084 -0.963385 -0.00853777)
(-0.0553358 -1.57697 0.0644063)
(-0.0280628 -1.45713 -0.0098469)
(-0.0124051 -1.55572 6.64607e-05)
(0.0129082 -1.45886 0.0318444)
(0.0170054 -1.46755 0.035006)
(-0.0194489 -1.25779 0.00988906)
(0.00178103 -1.64185 0.0119962)
(-0.0146712 -1.56918 0.0103706)
(0.0183037 -1.48064 0.0245077)
(0.0107638 -1.47819 0.0187046)
(0.00242117 -1.31305 0.0311456)
(-0.0176539 -1.47742 0.00608271)
(-0.000929016 -1.4073 0.00583054)
(-0.106507 0.157844 -0.182771)
(-0.121085 0.110034 -0.119852)
(-0.00325301 0.155531 -0.0942228)
(-0.102362 0.123796 -0.0955144)
(-0.086884 0.143961 -0.107727)
(0.0589753 0.188558 0.00856877)
(-0.00633291 0.156159 0.0221695)
(-0.0376402 0.252586 0.013872)
(0.0554688 0.207072 0.0220845)
(-0.00251152 0.460975 -0.00227537)
(0.00132409 0.460057 0.0185583)
(0.000717938 0.455961 0.00857527)
(-0.00251857 0.463178 0.0155165)
(-0.00178117 0.453893 0.00242504)
(-0.00445484 0.447773 0.00447886)
(-0.00267231 0.460412 0.0118742)
(-0.00410793 0.45923 0.00982553)
(-0.00818721 0.45564 0.0164806)
(0.00191494 0.46273 0.0037877)
(0.000909219 0.45859 0.0103707)
(0.00346981 0.454189 0.0090623)
(0.00126246 0.459404 0.0175873)
(-0.00433827 0.461276 0.0184953)
(-0.00287261 0.442716 0.00292571)
(-0.000109651 0.44135 0.00542682)
(0.000272685 0.438983 -0.00127978)
(0.0063955 0.444012 0.00828721)
(-0.00277725 0.4456 0.0101744)
(0.00130981 0.44321 0.0091867)
(-0.00670506 0.446143 0.0172708)
(-0.397138 -0.291515 -0.0895593)
(-0.20504 -0.740271 -0.091929)
(0.195839 -0.060458 0.642272)
(-0.237035 0.491504 0.701084)
(-0.509087 0.887796 0.0740514)
(0.367929 1.39493 0.105419)
(0.104715 0.509332 0.322162)
(0.0358983 -0.921221 -0.877887)
(-0.341851 -0.485879 -0.658279)
(-0.0467377 -0.572585 -0.787034)
(0.478576 -0.931417 -0.791453)
(0.0930351 -0.93532 -0.896348)
(-0.074455 -0.50705 -0.622347)
(0.344599 -0.691089 -0.741648)
(-0.0467961 0.931043 0.684777)
(-0.0067827 0.915478 0.661582)
(-0.00199517 0.871064 0.615962)
(0.0313581 0.878538 0.568591)
(0.0113941 0.871869 0.561751)
(-0.00174343 0.968531 0.665829)
(-0.0456705 0.97095 0.675712)
(0.0595388 0.295254 0.432188)
(-0.0102869 0.401621 0.413227)
(0.0315553 0.25453 0.531647)
(0.000510876 0.52323 0.555887)
(-0.0329545 0.503237 0.655392)
(0.00113945 0.32962 0.600325)
(0.0566609 0.446294 0.552163)
(0.0139843 -0.0314572 0.43923)
(-0.00830495 0.024333 0.364667)
(-0.00492105 0.0549421 0.405076)
(0.0116454 0.102836 0.39562)
(0.00447224 -0.000205057 0.506668)
(0.0272594 0.121262 0.435285)
(0.0182905 0.0264475 0.466828)
(0.0068999 0.0184993 0.169963)
(-0.00667262 -0.0212025 0.141606)
(0.0609223 -0.00624771 0.132046)
(-0.0237272 0.0527063 0.198241)
(0.0141555 0.0230409 0.0990469)
(0.0338493 0.0334544 0.0921911)
(0.0422075 -1.75353 -0.120626)
(0.0227141 -1.89265 0.000792382)
(0.0113873 -1.80277 -0.00503963)
(0.000497361 -1.95956 -0.0172953)
(0.00418386 -1.9269 0.0695808)
(0.000739211 -1.91079 -0.00609601)
(-0.00853312 -1.94247 -0.144349)
(0.203191 -1.38836 0.11453)
(0.0810963 -1.50442 0.067099)
(-0.0286651 -1.37963 0.0667866)
(-0.0968609 -1.41917 -0.0471604)
(-0.0534207 -1.32629 0.020543)
(-0.0103203 -1.57792 0.0160609)
(0.194275 -1.44634 0.113641)
(0.0438099 -9.63326 -0.0392353)
(0.0286355 -9.4172 -0.0186926)
(0.0216322 -9.33931 -0.0145411)
(0.0300861 -9.33401 -0.0113336)
(0.066131 -9.55254 -0.0588616)
(-0.0158726 -8.59281 -0.00307082)
(0.0029125 -9.26346 -0.0156604)
(0.107072 2.01633 3.30417)
(-0.208366 3.23047 3.26684)
(0.196434 2.88019 2.97302)
(0.26061 1.20988 3.50187)
(-0.141811 2.04148 3.43509)
(-0.262559 3.03493 3.31277)
(0.250976 2.63951 3.13936)
(0.59079 1.09079 1.95933)
(0.0713462 -0.0971736 2.87363)
(0.000982547 0.508471 2.3828)
(0.234672 -0.685743 2.63954)
(-0.0102131 -0.565855 2.62061)
(-0.17628 0.278628 2.49076)
(0.520846 0.397691 2.14028)
(-0.0909339 0.0168923 2.97227)
(-0.0693739 1.01686 2.73108)
(-0.106907 0.631581 2.99878)
(0.146768 0.625195 2.53713)
(0.07133 0.937209 2.62829)
(-0.0112668 0.60672 2.83502)
(0.00438639 0.239953 2.66717)
(0.145154 -0.998555 2.90532)
(0.136117 -1.40464 2.73598)
(-0.017972 -0.665878 2.88627)
(0.247227 -1.55192 2.787)
(0.125622 -1.87576 2.67015)
(0.0347808 -1.78434 2.43722)
(0.0836675 -1.38884 2.54836)
(0.172094 -1.70249 2.36317)
(0.214234 -1.50753 2.47575)
(0.00820079 -1.00057 1.98433)
(-0.182688 -1.40152 2.04396)
(0.078343 -1.78021 1.96181)
(0.15495 -1.19557 2.56466)
(0.129214 -1.09901 2.40536)
(0.0274569 -1.47836 2.396)
(0.091856 -1.69522 2.42509)
(-0.245381 -2.58832 2.11253)
(-0.262706 -2.91097 1.76233)
(0.0188849 -1.88368 2.64319)
(-0.321654 -2.79827 2.26909)
(-0.347151 -3.16664 2.16024)
(0.266372 -2.5321 1.9349)
(0.16944 -2.9098 1.71939)
(0.151657 -2.7496 1.67612)
(0.216453 -2.51765 1.90222)
(-0.103594 -3.5082 0.18744)
(0.0708854 -3.35136 0.0116484)
(0.00683955 -3.53791 0.318756)
(-0.0579933 -3.39743 0.111599)
(0.1616 -3.24652 -0.0469383)
(-0.00159324 -3.52414 0.514554)
(-0.0216768 -3.44901 0.551651)
(-0.021537 -3.30081 0.2671)
(0.0260141 -3.13794 0.204783)
(-0.045479 -3.17382 0.0174112)
(0.0168533 -3.38219 -0.0980378)
(0.00829827 -3.19227 -0.113066)
(0.0848958 -3.33701 -0.0333059)
(0.0482711 -3.34624 -1.10964e-05)
(0.0483562 -3.13616 -0.0488276)
(0.00865809 -3.14469 0.0740704)
(-0.00274241 -4.18199 0.424558)
(-0.056014 -4.19371 0.195433)
(-0.108844 -4.23754 0.170797)
(0.0056575 -4.2341 0.220469)
(0.105833 -4.29221 0.24468)
(-0.0579907 -4.26877 0.0634373)
(-0.0614729 -4.0251 -0.0745423)
(0.0432767 -4.36819 0.34202)
(0.0687937 -4.21579 0.214126)
(-0.00401489 -5.3352 0.364386)
(-0.133915 -4.19881 0.201291)
(-0.244459 -3.72568 0.00549083)
(-0.0035223 -3.91726 0.100591)
(0.00367151 -4.51323 0.239005)
(-0.111751 -9.30867 -0.150218)
(0.113084 -9.1336 -0.0478754)
(0.0494014 -9.09239 -0.0497122)
(-0.112355 -9.44058 -0.253586)
(-0.253207 -9.56061 -0.300924)
(-0.352021 -9.67809 -0.4094)
(-0.108 -8.99195 -0.240632)
(0.0289811 -2.58821 -0.484783)
(0.0258403 -2.2787 -0.671548)
(0.0504863 -2.43964 -0.436623)
(-0.0845986 -2.80294 -0.827718)
(-0.153131 -2.79447 -1.04595)
(-0.0967851 -2.54363 -1.0268)
(-0.0500103 -2.55929 -0.722913)
(0.0222932 -2.91183 -1.05926)
(-0.0507074 -2.87402 -0.836015)
(0.00226674 -3.01215 -0.907031)
(-0.0230051 -3.13281 -0.766292)
(0.0489647 -3.3387 -0.947298)
(0.043647 -3.41252 -0.788229)
(-0.0807704 -3.44115 -0.549132)
(0.0673899 -3.73813 0.0407514)
(-0.0503705 -3.90107 -0.190771)
(-0.083297 -3.92009 -0.369201)
(0.0743846 -3.47203 -0.381368)
(0.0081411 -3.49747 -0.160922)
(-0.0105887 -3.72381 -0.251181)
(0.0216764 -3.7923 -0.431273)
(0.231067 -3.58001 0.429837)
(0.010252 -3.79309 0.311337)
(-0.0492614 -3.49051 0.566736)
(0.0827579 -3.64015 -0.0065625)
(0.0436603 -3.6078 -0.200608)
(-0.158349 -3.30534 0.469929)
(0.0298984 -3.4425 0.0804236)
(0.0401065 -1.98727 1.56212)
(-0.185984 -1.74928 1.90642)
(-0.079058 -1.63572 1.79186)
(0.00709215 -2.52448 1.04715)
(-0.00533897 -2.73881 1.24937)
(-0.053902 -2.45779 1.16087)
(-0.0333415 -2.60966 1.26253)
(-0.162204 -2.16869 1.52521)
(-0.0798535 -1.97443 1.52909)
(0.0941386 0.30659 2.44876)
(-0.442965 0.6084 2.70156)
(-0.281781 0.705156 2.70797)
(0.0983768 -0.760957 2.47881)
(-0.163478 -0.436915 2.38547)
(-0.136127 -0.265713 2.46787)
(-0.102159 0.363331 2.74095)
(0.0410741 3.52889 1.10717)
(-0.109119 3.90309 1.60986)
(-0.164901 3.82884 1.58602)
(0.130269 2.93037 0.141635)
(0.0374735 3.07488 0.350388)
(-0.0642693 3.1522 0.61587)
(-0.0253458 3.02786 0.607975)
(0.0227922 -0.0231145 -0.125227)
(-0.00801823 0.0333017 -0.174761)
(-0.00173445 0.0553904 -0.130721)
(0.0206054 8.65447e-05 -0.0997121)
(0.00515974 0.0529203 -0.131625)
(0.0287424 0.116073 -0.0836376)
(-0.0310112 0.0908868 -0.0525513)
(0.0144519 0.0696709 -0.113379)
(0.000908374 0.0410943 -0.0627622)
(0.0358214 0.164635 0.0245446)
(0.0151482 0.0255993 -0.0260975)
(0.0079669 0.0236836 0.0823538)
(0.078746 0.12132 -0.0605595)
(0.104448 0.191862 -0.00470455)
(-0.0267285 0.125169 0.0163433)
(0.0128926 0.144659 0.0909849)
(-0.254515 0.183132 0.0573982)
(-0.207487 -0.161962 0.137431)
(0.00676121 -0.667217 -0.276562)
(0.0921414 -0.365569 -0.152941)
(0.00792418 0.311158 0.0821463)
(-0.44009 -0.36514 0.312031)
(-0.309556 0.0773523 0.1416)
(0.107309 0.164227 0.0149859)
(-0.283248 0.354142 0.103583)
(-0.00927396 0.0276098 -0.0361096)
(0.0708261 0.152678 0.0018473)
(0.0525757 0.103969 -0.058609)
(0.217233 0.345248 -0.181289)
(0.250594 -0.360397 -0.180788)
(0.389785 0.271714 0.249014)
(0.627578 0.0878382 0.200309)
(0.395147 -0.170175 0.0551441)
(0.213825 0.43084 0.266246)
(0.613344 0.582298 0.275918)
(0.0436115 0.333437 0.752232)
(-0.0444691 0.300616 0.839249)
(0.00472815 0.400486 0.665644)
(-0.0620306 0.259991 0.978271)
(0.0475186 0.343498 0.840985)
(0.0347728 0.460355 0.737472)
(-0.0337328 0.386801 0.875944)
(0.0962453 -2.16051 -0.0557375)
(0.0163741 -2.11057 -0.123542)
(-0.0370539 -1.67498 -0.108834)
(0.0259405 -2.15553 0.220095)
(0.0204862 -2.11482 0.221473)
(0.0378179 -1.8963 0.071409)
(-0.0155153 -1.88573 -0.0558978)
(-0.0798659 -1.88556 0.121648)
(-0.204888 -1.88299 0.343926)
(0.00124594 -0.0589833 0.476185)
(-0.0255215 -0.0830559 0.511813)
(-0.0483434 -0.0762469 0.575316)
(-0.00833583 0.0388724 0.438489)
(0.0122058 0.0686314 0.485312)
(-0.0291407 0.000267987 0.491116)
(-0.0340632 -0.00631947 0.546005)
(0.0174164 0.921816 -0.533032)
(-0.0264136 0.805546 -0.502168)
(-0.0194841 0.712681 -0.526935)
(-0.00235761 0.643064 -0.34615)
(-0.0463414 0.328452 -0.415048)
(0.044536 0.552519 -0.610497)
(-0.111 0.922111 -0.581401)
(0.108099 0.448379 -0.224735)
(0.0313549 0.995251 -1.00729)
(0.026742 0.6273 -0.534181)
(-0.147644 0.699066 -0.556536)
(-0.354396 1.02182 -0.446102)
(-0.175211 0.343027 0.0794999)
(-0.341653 0.909278 -0.0571269)
(0.0316146 0.502962 -0.168688)
(0.126621 0.227161 -0.102896)
(-0.116757 0.194584 -0.0212704)
(-0.0442489 0.194824 -0.0360979)
(-0.0729494 0.212683 -0.0670332)
(-0.0318914 0.155003 -0.295365)
(0.0185112 -0.00989292 -0.0301391)
(0.243374 0.0755248 -0.348665)
(0.0873374 0.201512 -0.214771)
(0.0172968 0.105721 -0.143383)
(0.392005 -0.146597 -0.281068)
(0.0292057 -0.0129238 -0.246771)
(0.0179928 -0.00142638 -0.212655)
(0.0164056 0.00285523 -0.230646)
(-0.0383177 -0.0111543 -0.251753)
(0.00102964 0.0315029 -0.300847)
(-0.0477862 -0.0244851 -0.264568)
(0.0023446 0.0392957 -0.270495)
(-0.00826097 0.00519714 -0.0862283)
(-0.0204491 -0.00405263 -0.104432)
(-0.0120486 -4.21961e-05 -0.123249)
(-0.0120195 0.045967 -0.150219)
(-0.00966109 0.0397011 -0.139921)
(-0.00264095 0.0785392 -0.143453)
(0.0174904 0.0831435 -0.141325)
(-0.000977404 0.0417305 -0.100808)
(0.00446377 0.0239275 -0.0659829)
(0.0110093 0.321645 -0.207605)
(-0.0486951 0.347316 -0.225595)
(-0.0107484 0.210601 -0.208478)
(0.0156562 0.222613 -0.327058)
(0.0497208 0.182371 -0.304005)
(-0.0193141 0.368547 -0.300529)
(0.00420214 0.271376 -0.287693)
(0.0303248 0.603189 -0.36514)
(0.0824776 0.550734 -0.458743)
(-0.0444897 0.487285 -0.399159)
(0.0195713 0.390392 -0.517357)
(-0.033589 0.382976 -0.429753)
(0.0567157 0.479585 -0.522697)
(-0.0118814 0.400328 -0.433385)
(-0.0102894 -0.0711975 0.791662)
(-0.0261818 -0.19277 1.04)
(-0.21824 0.135321 0.749672)
(0.102289 -0.272522 0.901036)
(-0.0276176 -0.0805701 0.64576)
(-0.0523064 -0.0810237 0.726903)
(-0.0987536 0.128291 0.529505)
(-0.0528691 0.175398 0.763858)
(0.0166169 -0.0565221 0.822439)
(0.0945046 -0.241699 0.616822)
(0.00599802 -0.373916 0.411487)
(-0.00218943 -0.495541 0.520273)
(-0.0806769 -0.53463 0.715178)
(-0.0503425 -0.572007 0.834644)
(-0.0122236 -0.383131 0.665816)
(0.0208396 -0.338777 0.80188)
(-0.0809949 -0.409523 -0.0274324)
(-0.0251089 -0.531929 0.181391)
(0.00449796 -0.416542 0.0901299)
(0.0360857 -0.535345 0.0170849)
(0.04122 -0.561126 0.120377)
(-0.0213533 -0.373396 -0.00706698)
(0.0478269 -0.502562 0.14277)
(0.0272678 -0.407227 0.142823)
(-0.0591173 -0.3575 0.0526688)
(0.0275344 -1.05808 -0.293257)
(-0.0780035 -1.47817 -0.183949)
(-0.132078 -1.54687 -0.16062)
(0.00466303 -1.10391 -0.190524)
(0.00876242 -1.25995 -0.17209)
(0.017432 -1.32038 -0.254657)
(-0.137132 -1.00921 -0.307821)
(-0.00615288 -2.30987 -0.0816647)
(0.00128508 -2.27984 -0.0651545)
(-0.00946168 -2.30161 -0.0851632)
(0.0149869 -2.38403 -0.0857557)
(-0.00207189 -2.34739 -0.0872216)
(-0.0140643 -2.31476 -0.0904074)
(0.0030355 -2.36095 -0.0925867)
(-0.0214597 2.18412 -0.0746468)
(0.049511 0.326587 0.167848)
(0.178113 1.24442 -0.320319)
(0.0961741 1.99265 0.997745)
(-0.0261919 2.13195 0.599318)
(0.120054 0.926081 0.466396)
(0.20464 1.34191 0.167483)
(-0.0735695 3.13824 0.271897)
(-0.00131164 2.84306 -0.472538)
(0.00341597 2.66063 -0.829985)
(-0.223545 3.21678 -0.062882)
(-0.132938 3.21467 0.596168)
(-0.195237 3.1809 0.436466)
(-0.163873 2.86441 -0.178565)
(-0.0595825 4.57859 0.557933)
(0.218685 3.95374 0.941618)
(0.189322 4.23264 0.67367)
(-0.0268726 4.53073 0.93981)
(-0.0487416 4.42628 1.37792)
(0.102522 4.27452 1.21757)
(0.139098 4.33459 0.927857)
(0.139939 5.8721 1.52496)
(0.0588311 6.14425 1.22637)
(-0.00346889 6.40131 1.08912)
(0.107871 6.13684 1.78431)
(0.0091801 6.25658 1.56146)
(-0.141932 6.03911 1.51105)
(0.0537098 6.06709 2.08882)
(-0.00618407 6.29132 1.89309)
(0.276771 6.44357 2.45054)
(0.0295381 6.25239 0.243871)
(-0.0636041 6.03418 0.201431)
(-0.0115746 5.71787 0.210581)
(-0.0388773 5.57213 0.210112)
(0.0622861 5.80831 0.418832)
(-0.0192023 5.90004 0.299017)
(0.0567453 6.12718 0.480967)
(-0.164695 2.85673 0.0863983)
(0.148038 4.99613 -0.115199)
(-0.0645816 4.77772 0.10617)
(0.0117766 5.99995 -0.126224)
(-0.180409 4.79378 0.129966)
(0.0825515 5.78661 -0.161805)
(-0.168319 5.37963 0.214695)
(0.0558518 5.22154 -0.149182)
(-0.157617 5.27063 -0.213904)
(-0.156781 5.23499 -0.120672)
(0.0312516 5.33302 0.0817177)
(0.00197955 5.43076 -0.026057)
(-0.141153 5.38655 -0.0503482)
(-0.189688 5.30298 0.103688)
(-0.00549006 4.02942 -0.34343)
(0.0590935 4.35688 -0.289617)
(-0.0332678 4.55616 -0.089734)
(0.11246 5.08794 0.128369)
(0.0897771 4.48353 -0.15956)
(0.0825441 4.63408 -0.287987)
(-0.0388104 4.98374 -0.0727486)
(-0.20804 5.6789 0.158407)
(0.0721953 5.94669 0.140395)
(-0.0706259 4.99845 0.0568659)
(-0.214098 5.11108 0.142039)
(-0.203556 4.84854 0.0550416)
(-0.0570478 4.69937 -0.025986)
(0.000537298 4.69987 -0.11302)
(0.0598089 4.26059 -0.210001)
(-0.0551838 3.55106 -0.0157892)
(0.0389708 4.32371 -0.319209)
(-0.272457 4.59028 0.127405)
(-0.348415 3.08816 0.0392195)
(-0.268368 4.87781 0.184157)
(-0.0870995 3.76062 -0.653751)
(-0.125884 4.19684 -0.430419)
(0.00826831 3.5822 -0.923539)
(-0.0148176 4.12396 -0.612812)
(-0.0296585 3.79193 -0.767701)
(0.0037913 3.63098 -0.918693)
(0.0427553 4.01295 -0.867426)
(-0.00807859 3.86441 -0.603252)
(-0.00850243 4.27797 -0.359278)
(0.0192014 4.02458 -0.498563)
(-0.0659945 4.39943 -0.526209)
(0.0260806 4.2867 -0.675514)
(-0.113003 4.49278 -0.507203)
(-0.00999479 4.24056 -0.600827)
(0.0566311 4.17551 -0.370549)
(-0.0141872 3.797 -0.592907)
(-0.12144 4.43962 -0.506981)
(-0.0220887 3.75588 -1.04032)
(-0.105252 4.2332 -1.25352)
(0.0757929 4.01984 -1.00203)
(0.0213511 3.72266 -1.09687)
(-0.0554847 3.8552 -1.25612)
(0.0314212 4.05284 -1.11808)
(-0.122623 4.23787 -1.35102)
(-0.134658 4.28128 -1.34998)
(0.0496408 4.06561 -1.0564)
(0.0230786 3.65743 -1.09551)
(0.0381239 3.7392 -0.890685)
(0.0182857 3.70997 -1.29475)
(-0.0218194 3.91136 -1.41252)
(-0.0730559 4.06034 -1.46614)
(-0.00376955 3.8512 -1.48294)
(-0.0566516 4.20131 -1.56837)
(-0.0328413 4.03832 -1.58487)
(0.0386635 3.70629 -0.966245)
(0.0259952 3.20259 -1.4038)
(0.0542516 3.55937 -1.4833)
(0.0618566 3.35032 -1.72303)
(0.0340565 3.44478 -1.76195)
(0.0313643 3.73196 -1.91224)
(0.0555525 3.46538 -2.0969)
(0.111827 3.34495 -2.00846)
(-0.029381 2.07799 -2.18567)
(-0.0360553 2.77556 -2.01384)
(0.0494005 2.52728 -1.75664)
(0.107389 1.84977 -2.39366)
(0.0527846 1.96392 -2.58153)
(0.148774 2.14378 -2.2217)
(0.0441719 2.38079 -2.38848)
(0.00934128 2.65545 -2.05757)
(0.113815 2.5079 -1.87658)
(-0.139883 1.21179 -1.46361)
(-0.101949 0.508884 -1.0491)
(-0.0389741 0.205058 -1.46982)
(-0.106254 0.271354 -1.93632)
(0.0511481 0.47726 -2.2146)
(-0.326892 0.604909 -1.48099)
(-0.0746827 0.923792 -1.79478)
(-0.0717356 -0.2686 -1.96988)
(0.060442 -0.292471 -1.87023)
(-0.207766 0.0665269 -2.0246)
(-0.629533 -1.82811 -1.39632)
(0.029441 -1.30362 -1.95792)
(0.185002 -1.26023 -2.17109)
(-0.457968 -1.29214 -1.68044)
(0.331303 -0.352526 -0.308989)
(0.0152483 -1.40243 -0.518545)
(0.0136451 0.280989 -0.751657)
(0.120869 -1.81357 -0.744421)
(-0.116527 -1.39245 -1.03565)
(0.0884321 -0.152841 -0.788871)
(0.38974 -0.793481 -0.406996)
(-0.0112449 -1.33965 2.23281)
(-0.134754 -2.07347 1.72733)
(-0.0859647 -2.64069 1.42268)
(0.0118374 -2.04099 1.0822)
(0.0071353 -1.57428 1.66518)
(-0.242401 -3.11219 1.37352)
(-0.0340937 -3.32498 1.18663)
(0.0325837 -3.33101 0.667373)
(-0.0119817 -3.6976 0.639154)
(0.0908964 -3.68268 0.506831)
(0.0628699 -3.70186 1.04997)
(-0.00136831 -3.57808 0.99068)
(-0.137478 -3.5599 1.40988)
(-0.0781774 -3.43341 1.32804)
(0.0374418 -3.31281 1.06153)
(0.0662865 -3.57599 0.85064)
(-0.00846181 -3.45214 0.919172)
(-0.0300312 -3.53809 1.16827)
(-0.0504836 -3.66152 1.22761)
(0.12871 -5.1682 1.11212)
(0.328674 -6.17198 1.67597)
(-0.0543573 -7.15454 1.9168)
(-0.355022 -6.7188 1.58748)
(0.0759431 -8.28249 1.93183)
(0.114717 -6.84181 1.68208)
(-0.246422 -5.8187 1.08569)
(-0.0622078 0.14425 -0.03217)
(-0.00315115 0.224152 -0.0903416)
(0.00617005 0.174088 -0.0221638)
(0.0020856 0.237815 -0.0646672)
(0.0486467 0.227214 -0.0256368)
(0.0574142 0.204853 0.00280405)
(-0.00898608 0.219496 -0.0416438)
(-0.00132579 0.31278 0.0684314)
(0.0240728 0.275478 0.037238)
(0.00992139 0.23707 0.0265882)
(-0.020987 0.258482 0.116439)
(0.0104085 0.28331 0.0899592)
(-0.0177545 0.219787 0.0868248)
(0.00816324 0.263266 0.0806151)
(0.0148093 0.251949 0.0508127)
(0.00276549 0.217285 0.0574241)
(-0.00370755 0.155122 0.109996)
(-0.00625143 0.147777 0.165975)
(-0.0054941 0.184211 0.0931285)
(0.0160904 0.18671 0.224918)
(0.0250917 0.165409 0.147064)
(0.0194546 0.20688 0.196589)
(0.0108826 0.212759 0.152975)
(-0.00671071 0.73385 0.854189)
(0.0244075 0.75833 0.748798)
(0.00783418 0.677675 0.694031)
(-0.00710872 0.637603 0.747709)
(0.0249983 0.674993 0.70426)
(0.0198895 0.728251 0.733456)
(0.0017696 0.699514 0.809442)
(0.0153078 0.730626 0.568784)
(-0.00717265 0.678523 0.583237)
(0.00767982 0.67949 0.599699)
(0.0359566 0.834946 0.62752)
(0.0118574 0.809758 0.648103)
(0.0311871 0.854574 0.681627)
(-0.00877514 0.850183 0.710048)
(0.00498939 0.942937 0.520574)
(0.00389578 0.963307 0.472987)
(0.000763181 0.901889 0.471219)
(0.0226208 0.859769 0.484713)
(0.000942659 0.826665 0.509088)
(0.0178222 0.899659 0.498516)
(0.0186492 0.905443 0.469086)
(0.153899 1.38811 -0.166958)
(-0.036036 1.36764 0.0115712)
(0.0132473 1.28319 -0.146438)
(0.172084 1.64906 -0.137786)
(-0.153891 1.64641 0.188981)
(0.0677678 1.61655 -0.223525)
(-0.0703838 1.68187 0.00112395)
(-0.0476964 1.14616 -0.509993)
(-0.0649163 0.960765 -0.615254)
(-0.013407 1.05457 -0.604873)
(0.149156 0.963124 -0.23519)
(-0.000687312 1.0759 -0.242868)
(0.0719315 0.79587 -0.441048)
(0.0162556 0.956656 -0.39666)
(0.0695172 0.852947 -0.216255)
(-0.11967 1.08661 -0.0770883)
(0.0506363 1.07177 -0.129189)
(0.152856 1.03965 -0.211729)
(-0.049914 1.02978 0.0304597)
(-0.0258574 0.931406 -0.0458357)
(0.00280016 0.996984 0.049593)
(-0.0633001 0.916126 -0.0536045)
(-0.0774119 0.938717 0.0578141)
(0.0532871 1.01598 -0.228292)
(-0.039559 1.03144 -0.116272)
(0.00145749 0.402934 -0.440746)
(-0.0641785 0.193372 -0.276273)
(0.0170866 0.51933 0.0541713)
(-0.0737306 0.756858 -0.0931234)
(-0.0694713 0.800549 -0.0146913)
(0.0432166 0.676623 -0.415936)
(-0.30122 0.322264 -0.561242)
(-0.0441537 0.806121 -0.201046)
(-0.109119 0.7146 -0.159082)
(0.0159443 0.843059 -0.0735242)
(-0.0241807 0.711147 -0.00613688)
(-0.142492 0.620918 0.038318)
(-0.0240636 0.805738 0.0325073)
(-0.0923012 0.709444 -0.0946043)
(0.0197878 0.86933 -0.154168)
(0.0374665 0.86745 -0.223507)
(-0.00757023 -0.0854284 -0.272836)
(0.102044 -0.128788 -0.139916)
(0.00552459 0.158445 -0.0348344)
(0.119175 0.487066 0.351206)
(-0.11515 0.572879 -0.172837)
(-0.277933 0.546849 -0.632435)
(0.277607 0.114763 -0.123141)
(-0.100959 0.155744 -0.0413715)
(-0.0265459 0.393369 -0.0906775)
(0.211982 0.592523 -0.222673)
(0.196001 -0.0334145 -0.181072)
(-0.180967 0.389245 0.499865)
(-0.156825 0.449025 0.229573)
(0.0100073 0.246258 -0.0205897)
(-0.32786 -0.145019 0.306507)
(-0.441742 -0.0803609 -0.277133)
(0.0797117 -0.0290853 0.0586494)
(-0.0491123 -0.0417263 -0.0498569)
(0.35188 0.239196 0.0584106)
(0.101822 -0.0321895 -0.122668)
(-0.207034 -0.0927896 0.175049)
(-0.1651 0.28556 0.256789)
(-0.217779 0.0277082 0.147823)
(0.0715437 -0.86078 0.269772)
(-0.184803 0.0893289 0.168958)
(-0.268735 0.373722 0.132138)
(-0.154831 0.366853 -0.0801825)
(-0.29166 0.49699 -0.126121)
(0.117994 0.308831 -0.133077)
(-0.059657 0.119782 -0.0303452)
(-0.191247 0.24755 -0.117894)
(0.0484771 0.179983 -0.0820648)
(0.0579573 0.0625435 -0.104471)
(0.0848437 0.112264 0.164064)
(0.0380432 0.0972431 0.0949619)
(0.0760808 0.508901 0.273414)
(-0.125089 0.548956 0.0883979)
(-0.0451877 0.48535 0.296448)
(-0.00813159 0.109789 -0.0872757)
(-0.104553 -0.0191438 -0.152351)
(0.0240603 0.0915463 0.0349476)
(0.0359739 0.0932441 -0.0109205)
(-0.0405847 0.108994 -0.0483586)
(-0.121619 0.0682677 -0.189084)
(-0.0632524 0.112985 -0.138676)
(0.00412663 0.0879126 -0.253983)
(-0.041081 0.0457532 -0.17723)
(-0.022069 0.0560475 -0.172493)
(0.0177802 0.244758 -0.613955)
(-0.00930445 0.168638 -0.556276)
(-0.0136903 0.0497093 -0.577488)
(0.0164624 -0.0994133 -0.68748)
(0.0201447 -0.00703891 -0.781247)
(0.0291466 0.0757225 -0.679247)
(0.0149509 0.199495 -0.687849)
(-0.00400966 -0.0136484 -0.277351)
(0.00988677 -0.0541636 -0.341693)
(-0.0145927 0.105287 -0.367649)
(0.0621244 0.125701 -0.508783)
(-0.0568086 -0.00658806 -0.434026)
(0.0294106 0.169643 -0.508018)
(0.0347358 0.206243 -0.448623)
(-0.0095375 0.0439088 -0.477377)
(0.0967534 0.190974 -0.547113)
(-0.00129589 0.04732 -0.291814)
(-0.0589653 -0.0105244 -0.275937)
(0.0455772 0.139436 -0.415848)
(0.0384903 0.136543 -0.888564)
(0.0931683 0.013094 -0.903451)
(0.039084 -0.0382684 -0.778144)
(-0.0724305 0.236315 -0.931425)
(-0.104285 0.0302052 -1.01976)
(0.028273 -0.0662554 -0.891915)
(-0.0339118 0.00942292 -1.01149)
(-0.0973883 0.148609 -0.965952)
(-0.115581 -0.0157563 -1.00805)
(-0.10936 0.0403035 -0.570194)
(-0.0341908 0.0995845 -0.569135)
(-0.104675 -0.0276538 -0.544391)
(0.00404002 0.153098 -0.597198)
(0.028022 0.0656651 -0.672164)
(0.0187797 0.00939719 -0.713499)
(-0.00411538 0.160265 -0.667968)
(0.00781133 0.0440309 -0.524037)
(0.00167057 0.124924 -0.504368)
(0.0637763 0.0782139 -0.57965)
(-0.0289993 -0.0155101 -1.03358)
(-0.0112239 0.0142988 -0.965691)
(0.00713122 0.0325087 -0.853921)
(-0.0348602 -0.0444607 -0.922405)
(-0.0484823 0.0103287 -0.922551)
(-0.0715966 0.0467921 -0.963042)
(-0.00929188 -0.0414871 -0.865899)
(-0.0507887 0.154825 -0.700975)
(-0.0583617 0.227259 -0.704032)
(0.0109186 0.0462214 -0.654817)
(-0.0158429 0.037899 -0.922801)
(-0.0865977 0.155468 -0.948134)
(-0.0554897 0.20199 -0.901152)
(-0.056919 0.098553 -0.854595)
(0.011196 0.417234 -0.717514)
(0.0092689 0.421101 -0.552882)
(0.000978376 0.469829 -0.650882)
(-0.0416644 0.279093 -0.65203)
(-0.0325366 0.328943 -0.572087)
(-0.0333413 0.401741 -0.680239)
(-0.0156022 0.315283 -0.728845)
(-0.0277572 0.340291 -0.750102)
(-0.0365458 0.415072 -0.767512)
(0.022297 0.20861 -0.752121)
(0.0270134 0.242398 -0.974518)
(-0.0298877 0.181919 -0.968796)
(-0.0137089 0.438671 -0.903331)
(-0.0376769 0.311203 -0.906386)
(0.000619383 1.24535 -0.482406)
(0.00228815 0.975082 -0.505064)
(-0.0332484 0.781585 -0.459647)
(0.170149 1.27775 -0.413404)
(0.170499 0.96673 -0.26192)
(-0.0438859 1.08003 0.0261881)
(-0.0142152 0.823613 -0.24892)
(0.00782033 0.772942 -0.541533)
(-0.0012633 0.78147 -0.616548)
(0.0219942 0.766061 -0.600878)
(0.0104885 0.919702 -0.55298)
(0.00224989 0.868147 -0.607376)
(0.0479575 0.898682 -0.645712)
(0.053471 0.981702 -0.62112)
(-0.0155384 0.552817 -0.412249)
(-0.0138827 0.539876 -0.427951)
(-0.000318299 0.615875 -0.35836)
(-0.0166553 0.567001 -0.324932)
(-0.00899386 0.616717 -0.297076)
(0.0739507 0.811429 0.0192152)
(-0.0259478 0.622672 -0.179914)
(-0.00939869 0.503079 -0.498106)
(-0.00099781 0.558851 -0.456031)
(0.0153245 0.526557 -0.477444)
(-0.040597 0.621315 -0.358471)
(0.0550268 0.645964 -0.243853)
(0.0176317 0.565988 -0.292488)
(0.0529891 0.627341 -0.315237)
(0.0480186 0.571634 -0.407667)
(-0.00923591 0.533609 -0.453468)
(0.0326815 0.668757 -0.536453)
(0.0651092 0.645945 -0.718934)
(-0.0209759 0.61214 -0.5119)
(-0.0261096 0.503004 -0.546871)
(-0.0415254 0.502056 -0.550178)
(0.0111952 0.567625 -0.637436)
(-0.0397003 0.514943 -0.640893)
(0.315537 0.907795 -1.02308)
(-0.0404775 0.67938 -0.83853)
(0.055832 -1.39314 0.132607)
(-0.0182078 -1.41791 0.114349)
(-0.0032318 -1.28198 0.263601)
(0.0396375 -1.39599 0.0942391)
(-0.0650884 -1.49114 0.0425289)
(0.00215105 -1.2669 0.211887)
(-0.023314 -1.3312 0.219452)
(0.0241072 -1.23766 2.4754)
(-0.0438624 -0.513495 2.71814)
(0.0112118 -0.675843 2.48963)
(0.150405 -0.975909 2.56292)
(0.134688 -0.710109 2.65393)
(0.177151 -0.900892 2.69647)
(0.144579 -1.30653 2.74307)
(-0.0871823 -1.69046 2.52565)
(-0.0595295 -1.9058 2.6904)
(-0.00950376 -1.42564 2.21664)
(-0.078214 -2.01788 2.64487)
(-0.0269304 -2.27843 2.79635)
(-0.0681354 -2.18095 2.36392)
(-0.00839963 -1.84668 2.27577)
(0.146956 -1.77974 2.30278)
(0.0207145 -1.77886 2.56703)
(0.0094405 -0.768109 2.15476)
(0.100093 -1.00785 2.37636)
(0.146758 -0.990942 2.51683)
(0.00177573 4.77914 2.78222)
(-0.00879516 4.05367 2.82599)
(-0.0404738 4.46536 2.74415)
(-0.0255529 5.25306 3.43143)
(0.0506175 4.99485 3.58612)
(0.00213533 4.37576 3.13425)
(-0.0203657 4.67314 3.05586)
(0.0617822 5.66437 3.27308)
(-0.00122278 5.83706 3.12555)
(0.0225285 5.48547 3.40845)
(0.0463902 6.00247 3.38579)
(0.00690025 5.80797 3.60252)
(0.0346354 5.82282 3.68236)
(0.0702894 5.94079 3.51679)
(0.0732121 2.6516 1.0806)
(-0.0888493 2.5115 0.993393)
(-0.0228466 3.1619 1.15924)
(-0.365049 2.48583 0.898562)
(-0.191901 2.81321 0.962118)
(-0.105496 3.34558 1.25082)
(-0.0615384 3.44645 1.4962)
(0.232492 2.26129 0.0960645)
(0.139429 3.03816 0.134713)
(0.208386 3.10511 0.211769)
(-0.212697 3.85948 -0.186723)
(0.0977427 3.53948 -0.0756704)
(0.130864 3.29469 0.0973206)
(0.275998 3.37797 0.122414)
(-0.0347371 3.8945 0.62792)
(-0.13644 3.95898 0.973141)
(-0.18986 4.05931 0.819723)
(-0.150947 3.14486 0.823621)
(0.112313 3.19134 0.462388)
(-0.319459 3.36383 1.05664)
(-0.357002 3.70007 0.873777)
(0.112017 4.52927 0.265166)
(0.0709725 3.52261 -0.0341201)
(-0.0664763 4.49207 0.504846)
(0.0583675 4.38983 -0.221187)
(-0.0158518 4.03261 0.11619)
(-0.175989 4.1814 0.63046)
(-0.207459 4.2485 0.134673)
(0.0239818 4.73436 0.359459)
(0.00600668 4.04621 0.223412)
(0.0540092 4.34788 0.122235)
(-0.240396 4.48658 0.571923)
(-0.342921 4.49872 0.954635)
(-0.232651 4.21597 0.791749)
(0.0723287 3.50067 0.0476654)
(0.201853 5.13765 -0.107982)
(-0.041233 5.38931 0.186619)
(-0.0948493 5.35373 0.488187)
(-0.166427 5.09731 0.465515)
(0.198274 5.54168 -0.141805)
(0.0050238 4.86101 0.209434)
(-0.00529479 5.27111 0.259741)
(-0.320851 5.32896 0.185488)
(0.038436 5.42691 -0.171186)
(-0.314044 5.07526 0.218895)
(0.034773 6.14468 -0.332009)
(0.0108009 6.07366 -0.601845)
(0.0968739 6.09721 -0.252191)
(0.028561 5.85946 -0.827612)
(0.113149 5.76684 -0.89295)
(0.120417 5.94548 -0.484339)
(0.0628494 5.92269 -0.582448)
(-0.0815126 4.40502 -1.29952)
(-0.103206 4.41901 -1.36638)
(-0.0021104 4.72224 -1.38693)
(0.00683016 4.9838 -1.18396)
(-0.0592242 4.99104 -1.2941)
(-0.163305 4.77319 -1.19939)
(-0.0550365 4.51414 -1.12916)
(-0.0131252 3.9422 -2.21101)
(0.0184689 4.5051 -1.94077)
(-0.0147167 4.14312 -2.07655)
(-0.0408673 4.27841 -2.25727)
(-0.0288088 4.61969 -2.09373)
(0.0263588 4.90928 -2.07387)
(-0.082774 4.3455 -2.06431)
(-0.0191789 3.17884 -1.36955)
(0.0299641 3.54743 -1.44146)
(-0.0329543 3.73141 -1.72821)
(-0.0452265 4.06051 -2.59209)
(-0.0359162 3.39301 -2.56461)
(-0.0153124 3.74477 -2.62158)
(-0.0327369 3.45712 -2.60633)
(0.0574461 3.29976 -2.73639)
(0.0177484 3.67968 -2.68518)
(-0.00953907 3.82582 -2.53446)
(-0.015726 2.83533 -1.93358)
(0.0818683 3.1241 -2.03354)
(0.0172472 2.73649 -2.17794)
(-0.0312415 3.13223 -2.34866)
(0.0191121 2.69635 -2.40615)
(0.00912081 2.75843 -2.60901)
(0.0925866 1.93187 -2.54867)