/*--------------------------------*- C++ -*----------------------------------*\
| =========                 |                                                 |
| \\      /  F ield         | OpenFOAM: The Open Source CFD Toolbox           |
|  \\    /   O peration     | Version:  v2012                                 |
|   \\  /    A nd           | Website:  www.openfoam.com                      |
|    \\/     M anipulation  |                                                 |
\*---------------------------------------------------------------------------*/
FoamFile
{
    version     2.0;
    format      ascii;
    class       volScalarField;
    location    "0.2";
    object      alpha.water;
}
// * * * * * * * * * * * * * * * * * * * * * * * * * * * * * * * * * * * * * //

dimensions      [0 0 0 0 0 0 0];


internalField   nonuniform List<scalar> 
24700
(
1
1
1
1
1
1
1
1
1
1
1
1
1
1
1
1
1
1
1
1
1
1
1
1
1
1
1
1
1
8.64972e-08
1.07704e-07
5.65714e-08
7.25676e-08
2.20028e-07
5.62209e-08
1.65769e-07
5.16126e-06
4.34857e-06
2.35858e-06
2.35828e-06
2.55449e-06
3.23168e-06
3.26301e-06
7.80322e-05
5.13539e-05
7.77026e-05
3.82162e-05
1.36998e-05
2.19014e-05
7.86066e-05
0.0002006
0.000146615
0.000217239
0.000412269
0.000146054
0.000458022
0.000459742
0.0017097
0.00149422
0.00131208
0.00520411
0.00629239
0.00145474
0.00357862
9.79801e-09
2.65811e-08
5.31406e-09
1.79121e-08
3.73494e-08
7.52324e-08
5.16682e-09
2.46899e-06
2.33814e-06
2.1305e-06
1.90415e-06
5.05442e-07
4.74062e-07
2.46984e-06
0.508343
0.0770955
0.966284
0.491165
0.0549774
0.749346
0.931564
2.0051e-06
2.0051e-06
3.72683e-07
1.42724e-06
1.80375e-06
1.97318e-06
6.07479e-07
2.11512e-14
4.13274e-14
1.17149e-14
4.8465e-15
4.97286e-15
1.13799e-14
9.77476e-15
9.21115e-12
6.4941e-12
9.99316e-12
3.10286e-11
8.62999e-12
9.57486e-12
2.00401e-11
1.73937e-07
1.21181e-07
4.27772e-08
4.49667e-08
3.45351e-08
9.96113e-08
7.66101e-08
1.51117e-26
1.02693e-26
2.70467e-26
4.8304e-26
2.34858e-25
8.3404e-26
2.50569e-26
6.09982e-27
4.86472e-27
2.59638e-27
5.30142e-28
3.17013e-28
1.23071e-27
2.21068e-27
1.017e-26
7.34966e-28
2.47924e-27
8.707e-27
2.15617e-27
1.37224e-27
1.372e-28
6.7483e-28
1.3664e-21
1.92493e-22
3.22e-22
6.17884e-23
8.20957e-23
3.27048e-22
1.51553e-22
7.7374e-14
2.59239e-14
2.04915e-14
3.68574e-13
1.62757e-13
6.44758e-14
6.48691e-14
0.000116723
0.000144505
0.000151829
4.30827e-05
8.08527e-05
4.18052e-05
0.000114807
0.00152297
0.000456057
0.000590895
0.00100414
0.00130758
0.00154175
0.00157118
0.0136886
0.0119589
0.00465675
0.0135859
0.0136568
0.0136536
0.013635
0.00306504
0.00501764
0.00366401
0.0032394
0.00376588
0.0088132
0.00196144
0.000530251
0.000458704
0.000419645
0.000531849
0.000531556
0.000531861
0.000530834
0.000120099
0.000120179
0.000120099
0.000178176
0.000189294
0.000120112
0.000181896
3.17716e-05
2.58734e-05
1.36147e-05
2.49005e-05
1.39109e-05
2.88127e-05
2.02111e-05
0.000261249
0.000141134
0.000139603
0.000289452
0.00040699
0.000116938
0.000114982
0.927821
0.863443
0.976657
0.858118
0.941757
0.959379
0.937993
4.56144e-05
0.000120618
6.76628e-05
4.56058e-05
4.85013e-05
0.000101815
4.72231e-05
0.000120063
0.000120063
0.000129866
0.000120063
0.000122594
0.000214945
0.00022253
0.00126083
0.00145285
0.00117972
0.00324541
0.00161206
0.00269759
0.000987389
0.0157647
0.011138
0.0161721
0.0105439
0.00387346
0.00358377
0.00886311
0.000157827
0.000135111
0.000372693
0.000648233
0.000321645
0.000121775
0.000961674
0.00465425
0.0062495
0.00326783
0.0062495
0.00493605
0.00160792
0.990586
0.990011
0.96422
0.994417
0.993917
0.992354
0.299335
0.126448
0.0667034
0.0566132
0.0294543
0.0187329
0.055466
0.00557778
0.00446221
0.00507761
0.00727464
0.00638578
0.00445803
0.00570798
0.00329475
0.00212352
0.00214243
0.00530902
0.00263838
0.0022136
0.00908322
0.00134686
0.000940477
0.000822492
0.00070561
0.000437989
0.000338325
0.00033973
0.0318166
0.0996007
0.0917593
0.307493
0.254268
0.10475
0.136125
0.0337337
0.301085
0.170474
0.0448858
0.0340044
0.0765123
0.116079
0.00209475
0.000962591
0.00188948
0.00116563
0.000986503
0.00126432
0.00209596
0.000799672
0.000795246
0.000959876
0.00892252
0.00441652
0.00246088
0.00392279
1.89646e-05
3.30485e-05
2.64072e-05
1.50298e-05
8.67977e-06
2.77676e-05
1.14084e-05
6.03152e-06
3.51329e-06
5.45899e-06
1.62423e-05
1.28407e-05
1.06087e-05
1.03183e-05
1.33583e-14
9.242e-15
4.29619e-14
2.05128e-13
8.42629e-14
2.83926e-14
3.11199e-14
3.24364e-13
1.48002e-13
1.81826e-13
5.78083e-13
1.43495e-12
3.21599e-13
5.5629e-13
4.59532e-15
1.12395e-14
4.25346e-15
2.01287e-14
5.70681e-14
9.24893e-15
1.49076e-14
4.34482e-20
1.07901e-20
6.40395e-21
2.46157e-21
4.27642e-21
5.81633e-21
1.63374e-20
2.7007e-23
1.83912e-23
6.13946e-23
1.12264e-22
4.52189e-22
4.53743e-23
1.15349e-22
4.13686e-24
9.27662e-25
1.01253e-24
7.33798e-24
1.61696e-24
2.23193e-24
1.7269e-23
1.98223e-21
1.22431e-21
8.76453e-21
5.63767e-22
3.76184e-22
8.32816e-22
2.2714e-21
1.91906e-23
1.44595e-22
3.2589e-23
7.8099e-24
5.8258e-24
3.26688e-23
1.47424e-23
9.40288e-22
7.06681e-21
1.85162e-21
3.09079e-22
4.0904e-22
1.63519e-21
8.59221e-22
7.05419e-14
2.53123e-13
1.2621e-13
3.08213e-14
3.17628e-14
6.63578e-14
5.73794e-14
1.29654e-10
4.36903e-11
1.69197e-10
1.74724e-10
1.11025e-10
7.1485e-11
1.89809e-10
0.985089
0.856816
0.731438
0.977962
0.985423
0.985372
0.95839
0.00019855
0.000342063
0.000200986
0.000275151
0.00051481
0.000469071
0.00022276
3.05417e-05
4.04642e-05
3.54232e-05
2.54812e-05
2.99412e-05
1.38005e-05
1.50742e-05
0.0021753
0.0026993
0.00216685
0.00338897
0.00338757
0.00339993
0.00238589
0.000661022
0.000661022
0.000661066
0.00227724
0.000917935
0.00186088
0.000801758
0.000661052
0.000781663
0.00314307
0.00135548
0.00269799
0.00297668
0.00126066
0.00297393
0.00236365
0.00237998
0.00100465
0.00234634
0.0013259
0.00132809
0.00297168
0.000784234
0.000785435
0.00210647
0.00445602
0.00136857
0.00107858
0.00126159
0.00108353
0.000914129
0.105563
0.336612
0.183975
0.0881967
0.381513
0.349281
0.366347
6.40608e-05
4.9782e-05
6.42889e-05
1.26618e-05
3.34701e-05
2.59683e-05
2.60292e-05
4.11258e-06
4.57389e-06
1.1101e-05
4.10553e-06
1.41405e-05
1.074e-05
9.75864e-06
9.15917e-07
9.12259e-07
1.02261e-06
1.53088e-06
9.40853e-07
9.16002e-07
1.27789e-06
5.57779e-08
5.10731e-08
5.08634e-08
1.02228e-07
2.04138e-07
7.16886e-08
1.19516e-07
2.05646e-10
9.22446e-11
7.90656e-11
7.34924e-10
3.80198e-10
2.13156e-10
2.40093e-10
3.6612e-11
3.05283e-11
7.80487e-11
2.59114e-10
1.29819e-10
7.32486e-11
6.9719e-11
3.91654e-15
7.67135e-15
6.42287e-15
4.28393e-14
1.38784e-14
9.25641e-15
2.41148e-14
4.24583e-19
5.00014e-19
2.58008e-19
3.09374e-18
8.38303e-19
1.50267e-18
6.6074e-19
1.84272e-16
1.16867e-16
2.25917e-16
1.66245e-16
1.98261e-16
1.10448e-16
1.80928e-16
1.63074e-14
9.44992e-15
2.25032e-14
1.70239e-14
2.03411e-14
9.33668e-15
1.68684e-14
1.97928e-05
1.90617e-05
4.7228e-06
1.08912e-05
1.97928e-05
9.84598e-06
2.19787e-06
4.03743e-06
4.06223e-06
4.06223e-06
4.0706e-06
4.0706e-06
4.06414e-06
6.96081e-06
6.82089e-06
5.57562e-06
5.47724e-06
3.25554e-05
1.58992e-05
7.36324e-06
1.18461e-05
2.92732e-05
3.18344e-05
2.88489e-05
2.96853e-05
2.81535e-05
2.78826e-05
3.08572e-05
0.00231989
0.000597577
0.00136875
0.00059812
0.000597577
0.00234266
0.00297883
0.000337276
0.000432268
0.000337532
0.000347955
0.000337247
0.0003372
0.000337247
0.0192284
0.00656447
0.00648571
0.0137898
0.0243902
0.0095958
0.00668574
0.0995893
0.477024
0.0637259
0.0710058
0.164479
0.35822
0.0369197
0.0402179
0.077131
0.0433553
0.0381933
0.12537
0.085965
0.0346555
0.00148822
0.00234965
0.00152227
0.0167128
0.01006
0.00532322
0.0028736
0.926974
0.856338
0.949594
0.939569
0.83537
0.945029
0.946248
4.05608e-05
2.91632e-05
8.76026e-05
8.63029e-05
8.35193e-05
3.73982e-05
5.1209e-05
7.5055e-05
4.64922e-05
2.50574e-05
3.66999e-05
2.50202e-05
3.37321e-05
4.94099e-05
4.44391e-10
3.0088e-10
9.15565e-10
2.89306e-09
1.58985e-09
6.80595e-10
8.34443e-10
1.22477e-11
5.64786e-11
2.33385e-11
7.63859e-12
1.22279e-11
3.11569e-11
1.52426e-11
2.43002e-11
1.88705e-11
1.22147e-11
8.76254e-11
4.32294e-11
4.86921e-14
3.69802e-14
6.43021e-14
3.0529e-13
1.01565e-13
9.15032e-14
1.88473e-13
3.60001e-13
8.23655e-14
6.10695e-13
1.58445e-12
1.43158e-13
2.68277e-15
4.66685e-15
4.43458e-15
1.37698e-14
6.15973e-15
1.47126e-12
8.95735e-13
1.20434e-12
1.03746e-12
4.90496e-13
4.55154e-13
1.04424e-12
3.4444e-07
1.89627e-07
4.54355e-07
1.2765e-06
1.26029e-06
1.2753e-07
8.46761e-07
1.03686e-05
1.68337e-05
1.13489e-05
1.0662e-05
1.03671e-05
1.34289e-05
1.065e-05
1.91636e-06
4.79478e-06
3.2299e-06
4.58551e-07
3.34348e-06
3.84032e-06
5.25737e-07
3.64191e-05
3.23152e-05
4.15683e-05
5.91376e-05
5.73746e-05
6.1945e-05
3.83676e-05
7.44443e-05
0.000102622
0.0001281
0.000128524
0.000128051
0.000128979
8.50619e-05
0.000104072
0.000107965
8.6622e-05
0.000193993
0.000194164
0.000180098
7.56605e-05
3.61422e-05
1.21391e-05
4.6059e-05
1.64012e-05
4.3674e-05
1.19616e-05
2.46167e-05
4.00882e-06
5.58508e-06
2.73616e-06
2.18331e-06
2.17829e-06
2.90071e-06
2.04289e-06
2.57594e-06
2.41398e-06
2.02107e-06
2.03585e-06
4.23407e-06
0.00028584
0.000104565
0.000104343
0.000476638
0.000292048
0.000156842
0.000752453
0.000101595
0.000101595
0.000101024
0.000101024
9.95693e-05
0.000102906
0.000101024
0.00399374
0.00586032
0.00178413
0.00089028
0.00122884
0.000836174
0.000999413
0.574294
0.731838
0.962171
0.810019
0.978344
0.923824
0.98274
0.000417503
0.00040877
0.00040877
0.000468833
0.000491365
0.000408774
0.00061694
0.00259441
0.00261367
0.00259441
0.00429686
0.00911336
0.00268429
0.00480597
0.00393683
0.00829416
0.0148693
0.00726844
0.00372248
0.00387624
0.0076921
9.70076e-05
0.000179145
0.000116882
0.000233344
0.000233344
0.000233344
0.000204606
5.3608e-05
4.71158e-05
2.33154e-05
5.74943e-05
0.00017808
9.1258e-05
2.88628e-05
2.6744e-09
9.36978e-09
4.45445e-09
2.63748e-09
4.2322e-09
9.52677e-09
4.40099e-09
6.09718e-09
7.57554e-09
3.92338e-09
1.83752e-08
1.65876e-08
2.24498e-11
9.37376e-12
1.05785e-11
3.76062e-11
7.64336e-11
2.22955e-11
2.02955e-11
2.36035e-15
1.2625e-14
4.26778e-15
9.78418e-16
1.58737e-15
4.62908e-15
1.91824e-15
5.04384e-17
2.83617e-16
5.79023e-17
2.26041e-17
4.51063e-17
1.35353e-16
3.98453e-17
2.3177e-12
1.46953e-12
6.27796e-12
1.16968e-12
1.11026e-11
6.39902e-12
1.99588e-10
3.67067e-10
1.11725e-10
1.03717e-10
8.5027e-11
7.48364e-11
6.39383e-11
5.79297e-10
1.19126e-09
8.25103e-10
0.988412
0.992588
0.968706
0.991395
0.968023
0.992571
0.978245
1.47669e-05
1.47098e-05
2.48552e-05
1.3197e-05
2.48552e-05
1.46301e-05
1.53125e-05
6.98118e-08
1.41119e-07
1.99361e-07
3.00011e-08
8.71719e-08
8.83086e-08
3.13517e-08
8.6531e-10
1.22962e-09
9.78909e-10
1.11601e-09
1.08022e-09
9.5773e-10
7.23683e-10
2.39413e-05
4.54259e-05
2.39803e-05
4.72332e-05
3.64181e-05
4.28479e-05
2.25164e-05
3.82653e-06
3.81289e-06
3.8477e-06
8.75815e-06
7.60553e-06
7.868e-06
4.02029e-06
0.000258143
0.000258377
0.000200915
0.000258107
0.000258177
0.000258508
0.000258629
1.8813e-05
1.88089e-05
3.77818e-05
2.63083e-05
3.85342e-05
1.83895e-05
2.9746e-05
9.23959e-05
5.52722e-05
2.37383e-05
2.33354e-05
6.50656e-05
3.545e-05
0.000107174
0.628497
0.880729
0.975797
0.968539
0.825898
0.937587
0.988114
0.993428
0.980758
0.995259
0.995161
0.995431
0.988217
0.988327
0.959044
0.927269
0.94568
0.880132
0.910825
0.843946
0.851443
0.952019
0.991293
0.980733
0.000777011
0.000410755
0.000985624
0.000594405
0.000450306
0.000409439
0.000957901
0.889506
0.8587
0.921971
0.921971
0.916646
0.861658
0.909814
0.83887
0.846642
0.850888
0.215026
0.0355525
0.101132
0.621398
0.00466605
0.00873642
0.0089321
0.00174209
0.00580633
0.00440059
0.00412323
0.000291747
0.000299368
0.000335044
0.00044898
0.000332537
0.00016148
0.00048321
7.96246e-08
3.98444e-08
7.99983e-08
9.93345e-08
1.03376e-07
2.3441e-07
1.68828e-07
3.90461e-08
4.00826e-08
4.68866e-08
3.48551e-15
6.19532e-15
7.20758e-15
3.26358e-14
7.81306e-15
1.58297e-14
5.56738e-15
1.40785e-09
1.59254e-09
6.95384e-10
4.35116e-18
7.7944e-10
5.70246e-17
7.19618e-10
6.53493e-10
3.86282e-10
1.30609e-25
1.87287e-19
7.03142e-19
1.78346e-10
1.51403e-10
4.18225e-09
9.75715e-09
8.87775e-10
7.07765e-10
3.28488e-28
1.70374e-09
1.2032e-08
4.25527e-06
1.17599e-06
3.86825e-07
1.77624e-06
1.18664e-07
1.26915e-06
5.30753e-06
6.97814e-09
2.90339e-07
1.10997e-08
1.11769e-08
6.17913e-09
6.15278e-09
7.65823e-09
8.24636e-09
9.78066e-09
9.64927e-07
5.35561e-07
1.73988e-07
1.41368e-07
1.46925e-07
2.35007e-07
3.96025e-07
2.28237e-05
1.94399e-05
7.13866e-06
7.04061e-06
7.22644e-06
1.85654e-05
1.15738e-05
4.89946e-05
7.04554e-05
2.75626e-05
2.75935e-05
2.75737e-05
3.06976e-05
5.11992e-05
3.20243e-06
4.41698e-06
6.60758e-06
1.70913e-06
2.16908e-06
1.37198e-06
2.90046e-06
0.00131499
0.0018512
0.00125562
0.00192482
0.00171354
0.00434664
0.000679714
0.00460363
0.00429693
0.00463044
0.0027143
0.00105869
0.00619311
0.00111952
0.0407103
0.082786
0.039472
0.102748
0.0366372
0.0874916
0.0347777
0.962573
0.96599
0.927558
0.853684
0.8536
0.853684
0.852658
0.853638
0.843102
0.597367
0.699531
0.579929
0.848952
0.842017
0.872278
4.66128e-05
2.51516e-05
4.66455e-05
1.51714e-05
1.67186e-05
1.50699e-05
2.30682e-05
1.93033e-05
4.96667e-06
1.93993e-05
1.36123e-05
3.96004e-06
3.94488e-06
1.03815e-05
0.000693788
0.000550376
0.000690323
0.000537341
0.00118059
0.000509582
0.00143922
9.88021e-05
5.32785e-05
5.40357e-05
0.000117924
0.000107319
8.64985e-05
0.000166642
0.000271582
0.000271581
0.000271582
4.08624e-05
0.00018309
9.6428e-05
0.000126474
0.000510399
0.000510407
0.000506688
0.000510389
0.000510415
0.000510416
0.000510415
0.000134321
0.000135773
0.000127807
0.000128316
0.000310776
0.000112803
0.000285699
0.00024916
0.000164917
0.000159599
0.000159793
0.000257444
0.000260358
0.000259775
3.4427e-05
5.15561e-05
2.54388e-05
9.62395e-05
8.65418e-05
8.16115e-05
5.71295e-05
2.14891e-05
9.7378e-06
8.86835e-06
8.84134e-06
1.10876e-05
1.3969e-05
2.51065e-05
5.01622e-05
6.22466e-05
8.08138e-05
8.19387e-05
5.01226e-05
4.31267e-05
0.000181708
1.03608e-05
6.59478e-06
6.60592e-06
9.14573e-06
1.67883e-05
8.72289e-06
1.63146e-05
2.02722e-05
2.02448e-05
2.34424e-05
3.32805e-05
6.57249e-05
5.09681e-05
3.75499e-05
0.000173231
0.000547489
0.000709804
0.000153374
9.26844e-05
0.000241173
0.000317719
3.81781e-07
8.99743e-07
5.66915e-07
9.29266e-07
1.81286e-07
1.52333e-06
4.4551e-07
5.54556e-07
5.42693e-08
7.47137e-07
4.20457e-10
1.26012e-10
2.37667e-10
2.10612e-10
1.43588e-10
2.42412e-10
4.92679e-10
4.12306e-06
5.34952e-06
1.04308e-05
4.14283e-06
4.17154e-06
3.10739e-06
8.74182e-06
2.23433e-05
2.45075e-05
3.46663e-05
2.26156e-05
1.84062e-05
1.6977e-05
1.66453e-05
3.94762e-05
4.31579e-05
0.000149124
9.7391e-05
0.000149551
3.88519e-05
3.8844e-05
1.76096e-05
1.1274e-05
4.52886e-06
1.48392e-05
1.24153e-05
5.57091e-06
2.68997e-06
0.000996017
0.00175283
0.000793301
0.00148977
0.00347683
0.00220034
0.0019152
0.000327806
0.000326078
0.000551179
0.000509263
0.000334283
0.00111767
0.00070093
7.9517e-05
0.00102741
0.000405652
0.00102286
0.000542896
7.92422e-05
0.000502893
2.05673e-05
9.92314e-05
5.8207e-05
0.000100044
5.72157e-05
5.28546e-05
2.04375e-05
6.17153e-05
0.000111588
5.45339e-05
5.49089e-05
5.45339e-05
0.000128476
6.7334e-05
0.000698288
0.00209644
0.000437197
8.99288e-05
0.000161443
0.00125242
0.000227247
5.56015e-05
2.66586e-05
2.69596e-05
0.000104045
7.65929e-05
8.00018e-05
8.13131e-05
1.06314e-11
1.48427e-11
1.88461e-11
1.41849e-11
1.05936e-11
3.14802e-11
1.75598e-11
2.65314e-12
4.89159e-12
3.33144e-12
3.01306e-12
5.33407e-12
4.93755e-12
3.87888e-12
2.75802e-05
3.14269e-06
8.47089e-06
1.94494e-06
4.29673e-06
6.52973e-06
9.6398e-06
3.32165e-07
1.34817e-07
8.36721e-08
6.40883e-08
8.31898e-08
2.00898e-07
1.40831e-07
0.000130252
0.000130252
0.000130131
7.13217e-05
0.000117777
0.000130232
7.10822e-05
8.74932e-05
8.8164e-05
5.56903e-05
8.84235e-05
8.8164e-05
8.8164e-05
5.83628e-05
0.000138085
0.000351352
0.000183197
0.000149892
5.99752e-05
0.000294216
6.54034e-05
0.000805672
0.00054319
0.0031633
0.00128562
0.00205365
0.00201327
0.00180235
0.00114415
0.00226516
0.00110865
0.00239428
0.00137032
0.00385283
0.000766058
0.000672537
0.000286758
0.000262109
0.000322301
0.000256379
0.000679425
0.000613279
0.000454688
0.000636647
0.00150102
0.000447764
0.00047852
0.000659144
0.00153656
0.00168472
0.00100802
0.00166984
0.0016993
0.000500837
0.000407257
0.000885039
0.908429
0.695946
0.727921
0.917953
0.708184
0.925845
0.874186
0.918226
0.925795
0.879239
0.92566
0.925941
0.883978
0.882582
0.234762
0.56113
0.925805
0.92595
0.0148572
0.0156517
0.0162922
0.0276967
0.0917972
0.0846705
0.0700999
0.000787478
0.000784473
0.000787478
0.000790246
0.000790577
0.000788283
0.000792009
0.0014533
0.00217752
0.00133432
0.00131616
0.00275842
0.00212905
0.00339237
0.000412834
0.000847369
0.00046575
0.000413007
0.000412834
0.000916414
0.000402127
0.00296228
0.0023131
0.00226712
0.00342895
0.00343445
0.00343734
0.00343734
1.04061e-06
1.04061e-06
1.04061e-06
2.25307e-06
1.04079e-06
1.66408e-06
3.6405e-06
1.04079e-06
1.21061e-06
4.07155e-06
8.6289e-05
8.855e-05
5.35995e-05
5.36112e-05
5.35995e-05
8.71267e-05
2.97198e-05
0.984127
0.984607
0.972974
0.741854
0.917007
0.978142
0.918992
0.00125522
0.00328058
0.000239527
0.000849712
0.000239391
0.0050464
0.00225122
2.85244e-05
5.54487e-05
0.00014266
2.55685e-05
2.32435e-05
0.000122093
0.00024408
2.06747e-08
1.87468e-08
1.87468e-08
1.87468e-08
2.55937e-08
1.87469e-08
3.80769e-08
4.33402e-09
3.78645e-09
2.59737e-09
2.50151e-09
2.18954e-09
2.88581e-09
2.9789e-09
8.27129e-12
1.27359e-11
1.88314e-11
2.37635e-09
6.87499e-10
1.00672e-08
8.28998e-10
2.43148e-08
2.51302e-08
4.52094e-07
3.42483e-08
2.07008e-07
1.5145e-09
7.58872e-08
5.82229e-09
2.62701e-07
5.17189e-14
2.67918e-09
4.23563e-09
1.74068e-08
6.88653e-08
6.87267e-07
2.51998e-05
2.00529e-05
3.36818e-05
3.45016e-05
2.23922e-07
6.3229e-06
1.49606e-05
3.84051e-05
7.72369e-06
6.89783e-05
2.43982e-05
6.90358e-05
4.02888e-06
6.42799e-05
1.92892e-05
1.01346e-05
9.30803e-06
7.26231e-06
1.429e-05
6.16539e-06
3.75737e-05
4.00298e-07
1.01236e-06
6.2029e-08
1.86854e-07
3.02672e-07
1.36499e-07
6.10907e-08
3.6077e-08
1.02352e-07
6.88972e-07
3.58989e-07
1.36116e-07
3.36673e-05
5.85549e-05
2.18309e-05
2.79835e-05
2.17274e-05
2.79238e-05
1.69898e-05
0.00010835
6.56488e-05
0.000156957
7.07787e-05
6.48592e-05
9.13808e-05
0.000105465
2.21551e-05
2.2649e-05
1.97933e-05
3.1014e-05
1.97933e-05
1.66078e-05
3.15496e-05
0.00620516
0.00147377
0.0022461
0.00641448
0.00348253
0.00170498
0.00353595
0.899821
0.897925
0.899821
0.836273
0.898917
0.899657
0.00407714
0.00222769
0.00222769
0.00346719
0.00222769
0.00425406
0.00592299
0.00881288
0.00667689
0.00667689
0.00690243
0.00946913
0.00777216
0.0141961
3.1891e-07
6.14065e-07
3.13603e-07
3.28142e-07
4.58521e-07
1.53374e-07
2.989e-07
7.39443e-07
1.89313e-06
4.41866e-07
0.000122964
0.000105684
0.000127045
0.000102359
9.84151e-05
0.000127045
0.000130054
1.38082e-06
3.9073e-06
2.70319e-06
5.35118e-06
5.61642e-06
3.51956e-06
2.22042e-06
0.000199981
0.000335947
9.81104e-05
0.000101321
9.07543e-05
0.000211847
0.00020427
0.878488
0.933024
0.874862
0.93272
0.964954
0.95077
0.943226
4.07915e-06
2.22366e-06
3.26789e-06
2.69466e-06
1.3533e-06
1.22827e-06
1.72616e-06
3.79269e-06
1.83915e-06
7.46881e-07
2.78933e-06
3.79423e-06
1.73167e-06
1.09157e-06
1.52283e-07
3.85069e-07
2.42333e-07
5.00047e-08
9.55715e-08
1.07223e-07
9.95847e-08
1.6301e-08
1.3224e-08
1.31417e-08
3.5061e-08
2.98863e-08
1.68665e-08
1.65011e-08
1.38838e-09
1.31435e-09
1.15064e-09
1.11396e-09
9.74907e-10
1.16794e-09
1.17826e-09
3.79048e-08
2.27402e-07
5.18464e-08
3.62058e-09
9.41532e-09
2.31788e-07
5.34444e-09
3.86523e-06
4.85726e-06
9.50154e-06
6.22359e-06
3.86019e-06
3.86523e-06
8.80208e-06
0.000107969
9.37699e-05
7.59644e-05
0.000109175
7.55148e-05
0.0001143
7.34032e-05
6.67837e-07
8.97427e-07
6.74664e-07
3.15138e-06
1.73024e-06
1.9369e-06
1.68627e-06
6.91936e-07
3.90361e-07
9.60881e-07
4.1834e-07
1.05777e-06
1.40492e-06
1.9532e-06
2.16589e-08
2.16742e-08
2.17872e-08
1.41452e-07
1.1699e-07
1.8048e-08
2.66296e-08
1.4101e-07
4.7377e-07
8.64533e-07
3.19956e-06
1.40164e-05
6.93092e-06
2.91817e-06
2.25299e-06
4.0756e-06
3.45437e-06
8.79543e-05
8.7811e-05
8.66141e-05
6.32115e-05
6.29469e-05
8.5148e-05
6.27431e-05
2.65578e-05
3.66348e-05
2.49433e-05
0.000113026
6.17601e-05
4.2717e-05
9.68902e-05
4.27759e-05
1.79004e-05
2.19663e-05
1.77873e-05
2.36778e-05
2.59093e-05
1.75918e-05
0.000229605
0.000517788
0.000274967
0.000238996
0.000325446
0.000545279
0.000545284
0.000110755
7.41121e-05
7.60502e-05
7.70814e-05
0.000113348
0.000148371
3.8439e-05
0.00110637
0.00186591
0.00107974
0.00688702
0.0106502
0.00425553
0.00225493
0.911679
0.827399
0.920121
0.0373887
0.242102
0.108476
0.77243
0.99622
0.993241
0.997985
0.998293
0.997579
0.995541
0.997455
0.999577
0.999574
0.999577
0.999577
0.999378
0.995149
0.998227
0.997596
0.99884
0.996751
0.997781
0.998721
0.997984
0.998013
0.967354
0.994519
0.98545
0.991722
0.995748
0.948038
0.862566
0.441787
0.221319
0.0978337
0.742902
0.750698
0.319168
0.564912
0.360555
0.496738
0.50957
0.555472
0.330481
0.0102717
0.00691145
0.00741039
0.00505341
0.00923167
0.00516067
0.00233011
0.00023941
0.000135137
0.000135137
0.000147035
0.000319714
0.000201413
0.000565047
0.003497
0.00248592
0.00256698
0.000484626
0.000449962
0.000755267
0.000383563
0.00365047
0.000944106
0.00131653
0.00176625
0.000913053
0.00101888
0.0020898
2.58266e-05
2.58259e-05
2.58266e-05
2.58273e-05
2.58283e-05
2.5826e-05
2.58273e-05
0.00020125
8.07196e-05
3.82076e-05
3.77856e-05
4.81157e-05
5.83216e-05
0.000140148
3.21081e-05
5.52737e-05
3.27252e-05
7.3698e-05
4.54129e-05
4.25805e-05
4.6852e-05
0.0388588
0.0162063
0.0177637
0.175866
0.34233
0.0236144
0.0351984
1.42352e-06
1.73908e-06
9.24473e-07
4.79747e-06
3.361e-06
2.17304e-06
7.98694e-07
4.56725e-12
8.18044e-12
6.18958e-12
4.73534e-12
7.68219e-12
7.68677e-12
5.7659e-12
1.47523e-06
2.16767e-06
4.16522e-06
3.15567e-06
2.6015e-06
1.54064e-06
7.63576e-07
2.15776e-06
6.42466e-06
1.19349e-06
3.31144e-06
2.0398e-06
0.000307787
0.000402191
0.00027874
0.000403647
0.000400618
0.000341724
0.000283051
0.000443017
0.000437825
0.000449799
0.000465722
0.000466164
0.000379408
0.000466164
0.00099094
0.00099094
0.000997754
0.00152137
0.0010773
0.00111727
0.000812341
0.000635179
0.00393664
0.00397934
0.00396091
0.00396091
0.00175191
0.00115055
0.999577
0.999114
0.999064
2.59328e-09
4.99346e-09
1.65695e-09
2.05679e-09
1.62402e-09
2.59027e-09
3.81163e-09
3.71152e-10
4.68485e-10
4.14544e-10
5.91184e-10
8.33068e-10
1.10919e-09
7.17335e-10
3.07918e-09
5.309e-09
8.39763e-09
3.01904e-10
3.89149e-10
3.49602e-10
4.64142e-06
9.25081e-06
3.73976e-06
9.43476e-06
4.25036e-06
4.11254e-06
7.67433e-06
5.56814e-06
5.45419e-06
5.42624e-05
6.30739e-05
5.43075e-05
7.61608e-05
9.84866e-05
9.17433e-05
0.000105912
5.03391e-05
4.18003e-05
0.000176898
8.90139e-05
0.000188752
0.000154352
5.4365e-05
0.995441
0.998577
0.998713
0.994464
0.979678
0.995997
0.999036
0.979536
0.999064
0.99902
0.998224
0.995558
0.998557
0.971933
0.993422
0.999307
0.99824
0.988848
0.996897
0.999624
0.996945
0.999494
0.995799
0.983783
0.0027242
0.00207434
0.00255096
0.0012454
0.0021332
0.00081927
0.00165192
0.00392596
0.00396391
0.00753524
0.00460729
0.00402831
0.00328962
0.00845848
0.0416844
0.041558
0.0388101
0.0416498
0.0418677
0.0402119
0.041944
0.00108518
0.00108516
0.00103161
0.00300254
0.0012229
0.00062935
0.00100829
0.00812781
0.00305428
0.00102797
0.000528389
0.000502682
0.00244136
0.0025991
0.000740692
0.000743592
0.000740692
0.000177696
0.000206275
0.000424401
0.000186368
3.18422e-05
3.18455e-05
5.70998e-05
3.20229e-05
3.14738e-05
3.18388e-05
3.24769e-05
1.42787e-07
3.91765e-08
3.30622e-07
2.25584e-07
1.86508e-07
4.73443e-08
1.05332e-07
9.62007e-06
1.20564e-06
3.73662e-06
8.44414e-06
4.8783e-06
1.26731e-06
3.69579e-06
2.59652e-07
4.22244e-07
1.08016e-07
8.98935e-08
1.21784e-07
2.14988e-07
1.37526e-07
4.58426e-08
3.83578e-08
1.32921e-07
8.53256e-08
4.69935e-08
1.24128e-06
5.55537e-07
5.57306e-07
1.23621e-06
5.59168e-07
2.72195e-06
1.15426e-06
2.27547e-06
2.36476e-05
6.15397e-06
4.46839e-05
2.71653e-06
3.68164e-06
8.83139e-06
5.91059e-06
5.74484e-06
1.68185e-06
2.54075e-06
1.75394e-06
3.31352e-06
2.27444e-06
3.30055e-06
0.941628
0.864569
0.843338
0.949409
0.928724
0.945487
0.94937
0.0148168
0.0182775
0.0301396
0.0301637
0.0298649
0.0279259
0.0302566
0.000270328
0.00279051
0.00320099
0.00219478
0.00140918
0.00412106
4.64148e-05
0.00129432
0.00250602
0.00123688
0.00125794
0.00216408
0.00123688
0.00123664
0.999833
0.999592
0.999968
0.999469
0.997407
0.999716
0.998804
0.99683
0.997886
0.991848
0.994186
0.999004
0.986825
0.973237
0.99932
0.999312
0.993906
0.00088814
0.000404712
0.000817426
0.000473795
0.00191633
0.00040512
0.00288221
0.000476419
0.00133691
0.00105867
0.000416209
0.000416032
0.000780873
0.00064004
2.5308e-07
8.14748e-07
6.5675e-07
2.89726e-07
1.30842e-07
3.53461e-07
3.76031e-07
1.30842e-07
2.31037e-07
1.86358e-07
2.17158e-06
8.58158e-07
8.5839e-07
4.61754e-06
1.20071e-05
2.06728e-05
1.68511e-06
2.31486e-06
7.50528e-06
5.0931e-06
1.83073e-06
0.000270727
0.00044687
0.000220757
0.183853
0.0246885
0.0846872
0.652616
0.117755
0.0263188
0.158889
0.975337
0.981967
0.989967
0.946173
0.988416
0.972582
0.995857
0.998838
0.999598
0.997645
0.99779
0.998549
0.996774
0.993236
0.979199
0.995135
0.993273
0.998167
0.999643
0.985761
0.999266
0.00825124
0.00825187
0.00934304
0.00825151
0.00825187
0.00825124
0.00934297
0.0220545
0.0612492
0.0321436
0.0214516
0.0476535
0.0879993
0.0273921
0.0390603
0.0465128
0.0460387
0.0465128
0.0239308
0.00333854
0.0223516
0.00105651
0.000283019
0.000451029
0.000286069
0.000280123
0.000510024
0.000451749
8.88469e-06
4.04818e-06
8.17034e-06
4.51425e-06
4.06339e-06
4.04367e-06
4.04818e-06
0.000102588
2.35885e-05
5.23981e-05
4.01913e-05
2.33704e-05
5.68516e-05
2.80328e-05
1.28155e-08
6.38785e-09
1.21666e-08
6.48251e-08
2.54596e-08
1.42797e-08
3.07412e-08
1.69035e-05
1.6818e-05
2.02534e-05
3.82775e-05
3.8278e-05
3.82775e-05
2.84465e-05
5.65382e-06
2.32464e-06
1.36004e-06
1.3794e-06
1.5813e-06
1.37242e-06
3.49387e-06
5.98826e-08
6.01437e-08
1.29164e-07
6.46568e-08
1.00454e-07
1.26228e-07
2.00297e-07
1.80911e-05
7.65554e-06
1.65942e-05
1.80871e-05
1.23021e-05
1.01845e-05
3.20256e-05
5.38469e-06
1.20911e-05
7.05899e-06
7.68837e-06
1.42682e-05
2.85557e-05
1.15293e-05
8.75749e-08
4.35094e-07
1.71888e-07
5.35485e-09
5.89527e-09
9.05254e-09
1.25224e-08
3.5864e-08
1.04145e-08
5.595e-09
5.15489e-09
2.10857e-08
1.2336e-08
1.50467e-08
4.51752e-09
3.42767e-08
7.86762e-08
2.4523e-08
8.32389e-09
1.4208e-07
6.62055e-08
2.61713e-08
5.57815e-09
6.79287e-09
1.12756e-08
1
1
1
1
1
1
1
1
1
0.000562941
0.000507561
0.00108185
0.0313879
0.0108355
9.85686e-05
0.000270538
0.00158799
1.5199e-05
6.06495e-106
2.70174e-05
0.00030679
1
1
1
1
1
1
1
1
1
1
1
1
1
1
1
1
1
1
1
1
1
1
1
1
1
1
1
1
1
1
1
1
1
1
1
1
1
1
1
1
1
0.522306
0.231101
0.972251
0.993319
0.99337
0.927408
0.94946
3.67641e-28
6.71018e-29
3.93997e-29
1.43841e-29
1.41587e-29
7.27047e-29
2.02667e-29
1.31597e-29
4.8404e-29
0.959075
0.987547
0.993896
0.989949
0.993875
0.973872
0.984395
0.987536
0.989734
0.975585
0.993985
0.97751
0.952148
0.977858
0.86327
6.15544e-29
8.94174e-28
1.64842e-28
1.89371e-28
1.98807e-28
9.81174e-28
5.60172e-05
5.60041e-05
5.29306e-05
6.316e-05
6.38999e-05
8.33881e-05
0.000232108
0.000350752
0.000240473
0.000222105
9.05215e-05
8.48733e-05
9.05215e-05
6.38681e-10
7.08899e-10
6.19959e-10
0.000294483
0.000298988
0.000295183
0.00173029
0.0029156
0.00190325
7.29994e-05
6.72194e-05
9.27777e-05
6.21765e-05
5.09001e-08
7.05973e-08
1.70881e-08
3.82584e-10
4.60637e-10
6.07754e-10
5.81215e-10
0.00332131
0.00161857
0.00280451
0.00287433
0.000473446
0.000472214
0.000292094
0.000470313
0.0302664
0.0303763
0.0164348
0.0154583
0.0132733
0.00911584
0.011329
0.0190097
0.0246825
0.0287143
0.000109003
0.000179922
2.38228e-05
7.37565e-05
0.00205834
0.00269337
0.00805035
0.00338102
0.0191918
0.0189342
0.0124509
0.0348642
0.0192814
0.0137417
0.00119874
0.00275786
0.00212691
0.00103669
0.0029648
0.0029283
0.000195113
0.00044721
0.00029341
0.000162322
0.000465675
0.000175474
0.000159305
0.000428679
6.50026e-07
5.6313e-07
8.87423e-07
3.8044e-07
0.0637617
0.0289897
0.0976678
0.0295419
5.29448e-11
1.32763e-10
1.60608e-11
2.24835e-12
1.14839e-12
7.94468e-12
3.5048e-12
0.106882
0.456036
0.0520751
0.0421377
0.000613096
0.00147492
0.00126946
0.00133091
1.79337e-22
5.64938e-22
1.07556e-21
0.000263407
0.000564039
0.0105758
0.00982856
0.00619972
0.0043902
0.908143
0.720666
0.66089
0.907986
5.55196e-05
3.18551e-05
1.10307e-25
9.97329e-26
1.28242e-24
5.87011e-25
0.941369
0.941361
0.927294
0.802019
3.12793e-07
2.4697e-07
1.55759e-06
8.84778e-07
0.0424582
0.0601217
0.0548756
0.137685
9.13926e-07
9.11511e-07
1.12687e-06
1.13467e-06
1.24004e-06
1.97076e-06
1.2399e-06
2.33428e-06
5.6136e-06
1.20241e-05
0.00535572
0.00581023
0.0204801
0.0134153
0.00692062
0.00329252
0.0102069
0.00402476
0.0160435
0.016276
0.0391813
0.0360924
1.18456e-06
1.03017e-06
0.999983
0.999999
2.4097e-07
6.90035e-09
9.29945e-07
3.36481e-07
0.0004462
0.000442564
0.00184828
0.00184825
0.000486848
0.000448684
0.000437922
0.000521317
1.47762e-06
2.54554e-06
2.46293e-20
2.60182e-20
9.04141e-20
1.18039e-19
0.00332944
0.00543603
0.00278754
0.00245796
7.97558e-07
1.58311e-06
2.82999e-06
4.38797e-06
0.000811978
0.000818092
3.1799e-07
8.05743e-07
1.09096e-07
3.23827e-07
0.504787
0.609215
0.914813
0.730017
0.771888
0.92756
0.943802
1.38188e-06
2.35908e-06
5.14116e-07
1.24001e-06
0.000186026
0.000270201
0.000168094
0.99481
0.996515
0.969383
0.935377
0.976442
0.964618
1.26551e-06
1.08509e-05
1.41706e-06
2.81123e-06
8.689e-07
3.61327e-08
1.48001e-07
3.27861e-07
1.38041e-06
4.49621e-07
9.79832e-07
6.04495e-11
5.9029e-11
1.64092e-11
1.80758e-19
9.46518e-20
0.000452746
0.000464486
0.000698202
0.000530874
0.00107326
0.00142476
0.00174853
0.00175504
0.00388688
0.00956832
0.00323019
0.0154384
0.000117176
0.000116146
0.000117365
7.0015e-05
5.441e-05
3.20513e-05
9.30021e-07
5.51672e-07
1.13926e-05
7.82549e-06
0.000391864
0.00118068
6.50898e-07
5.83892e-07
0.949514
0.871742
0.00144688
0.000825193
0.00182004
0.00182485
0.850612
0.949658
0.00365852
0.00565521
0.771457
0.960038
0.00186055
0.000827435
0.00138145