/*--------------------------------*- C++ -*----------------------------------*\
| =========                 |                                                 |
| \\      /  F ield         | OpenFOAM: The Open Source CFD Toolbox           |
|  \\    /   O peration     | Version:  v2012                                 |
|   \\  /    A nd           | Website:  www.openfoam.com                      |
|    \\/     M anipulation  |                                                 |
\*---------------------------------------------------------------------------*/
FoamFile
{
    version     2.0;
    format      ascii;
    class       surfaceScalarField;
    location    "0.2";
    object      alphaPhi0.water;
}
// * * * * * * * * * * * * * * * * * * * * * * * * * * * * * * * * * * * * * //

dimensions      [0 3 -1 0 0 0 0];
oriented        oriented;


internalField   nonuniform List<scalar> 
49400
(
-5.66245e-06
3.4331e-09
5.61434e-06
4.4683e-08
1.30539e-05
3.59653e-06
-2.23129e-05
1.28584e-05
1.98967e-07
-3.42252e-06
1.73259e-05
-8.28902e-06
2.02252e-05
-2.00512e-05
-2.07695e-05
5.09538e-05
-3.45332e-07
8.09178e-06
1.95896e-05
-4.99943e-05
-1.52554e-07
-6.14174e-07
-1.22884e-05
2.33739e-07
1.21442e-05
-8.95412e-08
2.62929e-05
1.15528e-05
-5.01342e-05
2.59125e-05
-1.31252e-05
1.5072e-06
2.37622e-05
-1.32605e-05
4.57325e-08
2.94632e-05
-3.11708e-05
5.68828e-05
-2.68314e-05
4.45747e-07
2.64061e-05
-2.04378e-08
9.19934e-06
1.56122e-05
-5.1643e-05
5.00033e-07
9.14506e-06
4.11655e-05
2.27276e-05
-4.82808e-05
1.7324e-05
5.02476e-05
7.67234e-06
-7.3971e-06
2.24797e-07
-3.71088e-06
2.05283e-05
6.2358e-06
9.09468e-06
1.9849e-05
8.83632e-06
4.83158e-07
-2.00085e-05
4.93731e-05
3.23589e-07
-3.3913e-14
3.1518e-13
-1.22259e-13
-3.80422e-13
6.42158e-13
-5.20558e-13
-5.05526e-13
-2.74263e-13
-1.37069e-12
-3.61171e-13
4.51581e-15
-8.90656e-15
1.59715e-13
-1.77693e-12
-8.53322e-13
1.04763e-14
-3.63754e-12
1.06544e-11
6.51785e-12
4.67041e-12
-2.39077e-11
-8.63714e-13
7.53255e-12
3.07475e-13
4.34935e-12
-8.99481e-13
-1.61032e-12
-1.5111e-12
6.11003e-12
-2.01123e-12
-1.04918e-12
-4.75656e-12
9.15708e-12
-4.28682e-12
1.93288e-10
4.8641e-11
-1.36763e-10
-2.22541e-11
-1.07227e-10
-1.36033e-10
4.75118e-10
-3.43403e-10
3.32435e-10
5.0121e-11
2.02413e-10
-4.00002e-10
5.72242e-11
-4.17495e-11
-1.13868e-10
3.37045e-11
-2.52495e-10
-2.70922e-09
-4.23899e-10
-6.29022e-09
7.60981e-09
1.55941e-09
-2.3888e-09
-6.94212e-10
-4.30186e-09
5.84655e-09
3.86532e-10
6.48719e-09
-9.56472e-09
2.78175e-09
-2.36305e-09
6.47471e-10
-4.11182e-10
-3.29227e-10
-3.69752e-08
-3.045e-08
-1.49216e-08
8.83719e-08
-3.66084e-09
-5.72185e-08
2.93606e-08
-3.43389e-08
3.1568e-09
8.73556e-08
4.16631e-08
-1.71595e-07
1.13204e-07
1.61628e-08
1.64395e-08
-6.24415e-09
1.20273e-07
-3.76418e-14
-6.69718e-15
2.29059e-14
3.03264e-14
8.23997e-15
1.3889e-13
-1.64497e-13
1.54835e-14
-3.86377e-15
-3.98308e-15
-2.44801e-14
7.97876e-14
-2.29777e-13
3.0229e-13
-9.43928e-16
-2.52709e-14
-8.21894e-16
-5.61453e-13
-1.41787e-12
-1.21774e-12
4.36034e-12
6.35406e-14
7.70729e-14
-8.80677e-13
-1.40481e-12
1.96977e-12
-1.05605e-12
3.65146e-12
-3.50113e-13
5.93323e-13
-2.02501e-12
8.97629e-13
-1.00319e-12
4.20811e-12
-2.10178e-06
-1.0631e-05
-5.53636e-06
1.83373e-05
1.11392e-07
-2.14937e-06
-3.07314e-08
-1.32771e-05
2.74938e-06
2.5975e-06
2.62136e-06
-7.20165e-06
2.5761e-06
-2.20506e-13
-1.03008e-05
7.34769e-06
-2.09607e-05
4.11967e-12
-3.48631e-13
-2.93317e-12
1.82449e-12
-6.55315e-13
2.31936e-12
4.06504e-12
2.72197e-14
-6.36848e-13
6.16987e-12
-9.50294e-13
-6.00595e-12
4.42889e-13
1.07348e-11
-7.4496e-13
4.06402e-12
-7.48716e-13
-1.18721e-19
-1.00778e-20
2.66501e-20
5.23064e-20
6.11826e-20
9.34326e-21
-3.00986e-19
-3.86083e-21
1.65976e-20
1.34249e-20
-1.54084e-20
-1.86367e-20
-2.19475e-21
2.19371e-20
2.48025e-20
-6.01126e-20
3.14254e-20
1.81613e-17
7.13552e-18
-6.2284e-17
-6.35333e-18
-1.76087e-17
-2.45389e-17
4.08692e-17
-6.97057e-17
2.49146e-17
4.84428e-17
6.34824e-17
-2.39297e-16
2.47557e-17
-2.92325e-18
-3.46696e-17
1.9513e-17
-7.35821e-17
3.83629e-13
4.15089e-13
4.08555e-13
-1.76809e-12
8.26097e-14
4.69112e-13
-4.89793e-13
1.94449e-13
6.78036e-14
-1.03049e-13
-2.4012e-13
3.44025e-13
-2.61661e-13
8.59789e-14
-1.21987e-13
7.86199e-14
-1.87524e-13
1.28212e-32
-2.56464e-34
-7.7906e-32
1.43766e-33
-6.92129e-32
-1.88667e-32
4.27245e-32
-1.58126e-33
-5.95543e-31
-1.01619e-30
1.98193e-31
9.22938e-33
7.1794e-31
-6.49466e-30
6.54311e-32
1.11622e-31
1.036e-31
1.14351e-33
7.60034e-33
1.85535e-32
2.47211e-33
2.39394e-32
8.96871e-34
-3.17726e-35
-4.21079e-33
1.72202e-35
-2.25248e-33
-1.01799e-33
1.5556e-33
-3.66282e-35
-1.87074e-32
-2.34531e-32
5.05612e-33
5.3293e-36
2.04361e-32
-1.64208e-31
-1.57112e-33
1.12873e-33
-2.17757e-34
4.40736e-33
5.80158e-32
-1.13923e-33
-2.44589e-31
1.40753e-32
-5.466e-32
-6.94071e-34
-3.43038e-33
7.81857e-36
-1.7676e-32
2.53303e-27
3.05163e-27
2.05018e-27
-1.64031e-26
-2.56946e-29
3.55163e-28
1.7042e-29
7.63485e-28
-1.94917e-30
-1.81045e-28
-2.26859e-28
3.42756e-28
-7.82542e-28
2.26579e-29
5.80378e-28
-8.3631e-28
4.01429e-28
1.18256e-19
-1.54061e-20
-5.76142e-19
6.08672e-20
-4.95453e-20
-2.52007e-20
1.12433e-19
-8.03922e-20
-4.22262e-20
1.10178e-18
2.19368e-19
-3.18896e-18
2.2576e-19
3.88807e-19
-1.04538e-19
1.68136e-19
-9.33671e-20
3.70673e-10
-1.08731e-10
-5.48586e-10
4.06588e-10
-5.39412e-10
-2.90518e-10
1.43615e-09
-5.53862e-11
-2.40334e-10
-1.14305e-10
1.75494e-10
-5.85444e-11
4.24163e-10
-5.98327e-10
-1.60547e-10
7.21568e-11
-2.04248e-10
-3.4872e-09
3.88755e-09
1.6722e-08
-1.99078e-08
2.25402e-09
1.18248e-08
-1.7119e-08
1.14228e-08
5.99494e-09
-1.07754e-08
-1.82736e-08
5.7603e-08
-2.29778e-08
4.25316e-08
4.34629e-09
-7.4705e-09
9.5893e-09
2.07372e-07
-5.35792e-08
-2.48962e-07
1.16261e-07
-2.3275e-07
-2.38547e-08
3.7749e-07
-1.29597e-07
-1.3985e-07
3.97657e-07
-3.39253e-08
-5.90167e-07
1.52404e-07
3.71947e-07
-2.56282e-07
3.93977e-07
-4.09689e-07
-5.98696e-08
-3.44968e-08
2.42874e-08
4.58054e-08
-5.82311e-09
1.71021e-07
-2.4612e-07
5.5907e-08
-1.15005e-07
1.12476e-08
-5.22703e-08
5.00075e-08
-1.44141e-07
1.86018e-07
9.45728e-09
-1.00872e-08
5.88453e-09
-2.53344e-09
-4.20045e-10
1.92324e-09
1.04005e-09
1.64617e-09
1.45212e-09
-6.52858e-09
-3.07465e-10
1.3429e-09
2.09892e-09
-2.19052e-09
-2.01019e-10
-1.20402e-09
4.66107e-09
1.37152e-09
-2.10042e-09
2.09981e-09
-1.29011e-10
-6.50895e-10
-7.2395e-10
1.46707e-09
-4.84556e-10
-6.96533e-10
1.01467e-09
-6.58779e-10
-5.42914e-10
1.12096e-10
1.06407e-09
-3.45571e-09
1.35156e-09
-3.93854e-09
1.13224e-10
2.216e-10
1.0848e-09
-3.09461e-10
2.23883e-11
3.07519e-10
-1.21951e-10
1.6952e-10
2.92063e-10
-7.30877e-10
1.15333e-11
1.22555e-10
8.0522e-11
-1.99944e-10
3.66086e-11
-3.82621e-11
2.1023e-10
8.65156e-11
2.50084e-11
3.28933e-10
9.09113e-10
7.58873e-10
8.95077e-10
-2.32331e-09
-1.04907e-10
1.11029e-09
1.40706e-10
8.41323e-10
-4.05954e-11
-1.58764e-09
-9.33278e-10
4.03224e-09
-1.53813e-09
5.66712e-10
5.41499e-10
-1.13789e-09
5.33562e-10
-1.14237e-05
-1.48794e-05
-8.93378e-06
3.56076e-05
-1.32051e-07
-4.13185e-08
-1.07982e-05
-1.42697e-05
-7.3929e-07
-1.31925e-05
1.34674e-05
-2.12436e-08
8.61627e-06
-3.23817e-05
1.07551e-05
-1.62278e-05
1.5452e-05
-1.34462e-10
4.71107e-11
9.87786e-11
-2.02742e-11
2.31753e-10
1.09966e-10
-8.51412e-10
9.18957e-11
7.45673e-11
-1.02218e-10
-4.15647e-11
2.38104e-10
-9.2702e-11
-7.64316e-11
9.86743e-11
-2.32004e-10
1.07822e-10
-4.44134e-10
1.66433e-10
-1.51582e-09
1.75907e-09
7.43611e-10
-3.96555e-10
-8.52722e-10
-1.35445e-09
2.34554e-09
-7.16771e-10
1.27831e-09
-9.92639e-10
1.29307e-09
-3.12359e-09
-8.30451e-11
2.81315e-12
-2.80754e-10
-2.18608e-09
-1.23124e-08
-1.90237e-08
1.982e-08
-1.17208e-08
-2.13149e-08
1.90951e-08
-3.78897e-08
-8.47041e-09
2.69967e-08
2.69113e-08
-1.0956e-07
1.87026e-08
-1.6322e-08
1.43966e-08
-2.11195e-08
7.80393e-09
-2.55606e-07
1.2501e-07
2.16093e-07
-5.27446e-08
5.83586e-07
3.48463e-08
-5.94297e-07
2.12536e-07
4.94731e-07
-2.16456e-07
-8.1915e-09
7.32004e-07
-6.63897e-08
-1.01408e-07
1.5865e-07
-1.51284e-07
6.14876e-07
-6.44232e-11
-7.40867e-10
1.25652e-10
8.03791e-10
-3.50926e-10
6.00455e-10
-2.7323e-10
1.30876e-09
-2.02915e-09
5.74848e-10
-1.96064e-09
1.32203e-09
-6.70297e-10
2.17663e-09
-1.99494e-10
1.16751e-10
-3.33164e-10
-2.45173e-08
-2.93202e-08
-1.77916e-08
7.50722e-08
-3.42134e-10
-4.61304e-09
-1.52438e-08
-2.44219e-09
-2.34076e-08
-1.61377e-08
-1.94872e-09
3.4846e-09
-3.7132e-08
-2.35999e-09
-5.7723e-07
-5.04372e-07
4.88086e-07
5.92957e-07
9.98559e-07
6.72664e-07
-2.25084e-06
8.40877e-07
-3.53507e-07
1.0353e-07
1.06344e-06
1.65753e-06
-9.55322e-07
3.56198e-06
-4.97952e-08
3.22669e-07
-1.63697e-07
-1.55617e-07
1.06127e-07
-4.94044e-09
-1.82977e-07
1.36536e-07
1.94901e-07
-6.44019e-08
-7.92306e-08
1.74398e-07
5.78323e-09
1.91861e-08
4.36182e-08
-3.58283e-08
-2.52725e-07
-1.16344e-08
2.26253e-10
-2.74477e-09
3.10585e-08
-5.57246e-09
-7.92851e-09
4.04147e-10
-2.9793e-09
2.0186e-09
5.48306e-09
5.1909e-09
-1.69652e-08
1.00223e-08
1.07813e-08
-1.4536e-08
2.78432e-08
5.14563e-09
1.0325e-09
1.57271e-08
-1.66265e-08
-3.04362e-10
3.24021e-10
8.38795e-09
5.7552e-09
-3.23494e-09
5.32292e-09
-2.05352e-08
1.13337e-08
-7.74357e-09
2.62785e-08
-1.95678e-09
1.79822e-09
-6.11308e-09
1.17892e-10
-8.60615e-10
-1.27596e-11
1.3234e-09
-3.85777e-09
-6.84832e-11
5.34784e-09
-1.44083e-09
-7.46104e-10
5.29461e-10
1.67691e-10
-1.91625e-09
6.75323e-11
5.34678e-10
-1.11448e-09
1.07758e-09
-2.52775e-09
1.26632e-06
3.80648e-08
-1.57475e-06
-1.27997e-08
-2.23437e-06
-6.32348e-07
2.67802e-06
-4.38086e-06
7.37376e-07
5.89443e-06
1.27613e-06
-1.15213e-05
1.41865e-06
1.38225e-06
-1.55378e-06
1.56003e-06
-2.53573e-06
-9.08571e-07
1.15567e-06
2.07607e-07
-2.79415e-07
3.76535e-06
-2.77815e-06
-1.90181e-06
-1.64569e-06
4.69047e-06
-1.05589e-06
1.76909e-06
3.06795e-07
6.3592e-07
-1.86838e-06
1.8558e-06
-2.38489e-06
1.93496e-06
4.0294e-08
4.57319e-08
2.07189e-08
-1.07903e-07
8.41445e-09
-1.01566e-08
2.07439e-08
1.40294e-08
2.23648e-08
3.48828e-08
-3.34654e-08
-2.76754e-08
-8.1978e-09
4.84671e-08
-3.20045e-08
2.67992e-08
-5.66545e-08
-1.12776e-09
-7.90512e-09
3.88564e-10
1.02e-08
-1.23986e-08
1.37163e-08
-1.12271e-09
1.65389e-08
-3.66715e-08
8.30701e-08
-7.87029e-08
-9.70994e-09
-1.80593e-08
1.08785e-07
-5.65596e-08
5.14615e-08
-1.12827e-07
-4.69981e-11
-1.83329e-11
-1.91467e-11
6.79946e-11
8.86545e-12
-5.03628e-11
-9.79274e-11
-4.22789e-11
2.53503e-12
1.79651e-11
1.92572e-11
-8.88533e-11
1.66765e-11
-1.2777e-12
3.29561e-11
-8.36625e-11
2.07849e-11
-2.07596e-11
-2.67078e-11
-8.73221e-12
5.73017e-11
1.98882e-12
-1.86528e-11
-7.91179e-13
-3.19425e-11
9.20439e-12
8.144e-11
1.28324e-11
-1.19748e-10
3.82163e-11
5.44036e-11
4.71513e-11
-4.87903e-11
7.92717e-11
-2.83646e-20
-7.6542e-20
-2.18772e-20
7.41881e-20
5.55799e-21
-5.48498e-20
-1.73519e-20
-3.71257e-19
2.70517e-20
6.06987e-19
1.23469e-19
-1.80324e-18
1.51227e-19
1.51171e-19
6.86121e-20
-7.53436e-20
1.09177e-19
7.35021e-19
-5.37034e-20
1.05753e-19
-3.29551e-18
-6.04359e-19
-4.92481e-19
1.05394e-18
-1.51182e-18
-6.03574e-20
-4.42132e-18
1.39561e-18
5.74088e-19
1.83722e-18
-1.56603e-17
-1.31014e-18
1.04134e-18
-2.91491e-18
8.14614e-22
1.08082e-20
-3.16964e-20
-1.56934e-22
2.35339e-20
2.31078e-21
-1.21108e-19
-1.22763e-20
2.4556e-20
-1.71488e-19
5.14547e-20
1.31698e-20
1.07183e-19
-7.3151e-19
-2.1851e-20
2.49233e-20
-2.04125e-21
1.12083e-25
8.75976e-26
8.23838e-26
-6.14478e-25
7.0959e-28
2.92791e-26
-7.66897e-28
1.28367e-26
4.9575e-28
-9.13348e-27
-8.39693e-27
1.37453e-26
-3.71541e-26
9.22903e-28
-2.72245e-26
1.70782e-26
-6.65234e-26
5.34091e-29
1.55517e-30
-2.17875e-28
-6.15654e-30
-1.22442e-28
-4.59893e-29
9.16891e-29
4.92463e-30
-9.12052e-28
-1.38916e-27
3.19752e-28
3.41384e-29
9.0835e-28
-7.63412e-27
-2.01817e-28
1.62633e-28
-2.92258e-28
-5.65137e-32
9.72065e-30
-4.34626e-29
9.42969e-31
1.72283e-30
-1.3733e-29
-7.53458e-32
-4.4687e-30
6.28692e-30
1.28717e-29
9.97877e-30
2.98275e-30
-3.28639e-31
-1.71992e-29
1.87139e-30
-1.54303e-28
2.06623e-28
-1.95432e-26
4.90029e-27
-5.62468e-29
-1.63837e-26
1.20842e-28
2.2954e-27
1.73573e-26
-1.23067e-25
1.00969e-27
-4.42479e-27
1.44201e-28
-1.22016e-27
1.93017e-27
-2.20479e-27
1.64705e-27
-6.53867e-28
-2.67266e-28
-2.10846e-30
1.39557e-30
3.53174e-29
3.22595e-28
2.16528e-28
-1.80008e-27
7.68786e-29
-6.50794e-31
1.73692e-29
-7.82453e-29
1.90437e-30
-2.17907e-29
3.22891e-29
5.82707e-29
-8.2184e-29
3.92829e-29
-1.22367e-26
2.81636e-28
1.62202e-27
-1.19834e-28
1.92762e-26
7.22889e-27
-8.39246e-26
3.79506e-27
1.81022e-27
-9.61973e-28
-7.19637e-28
1.51892e-27
-2.98638e-27
-8.59765e-28
3.29402e-27
-5.72338e-27
2.77228e-27
-3.74337e-19
6.0451e-20
9.96473e-20
-2.5113e-20
7.25807e-19
5.74784e-20
-1.86639e-18
1.58732e-19
3.11326e-19
-8.7542e-20
-1.29298e-20
1.3543e-19
-8.99155e-20
-1.31182e-19
1.43926e-19
-3.39361e-19
1.83688e-19
-4.64097e-17
-2.33867e-16
1.47946e-16
1.69147e-16
-9.65467e-17
1.26367e-16
-4.12984e-17
4.70421e-16
-7.63038e-16
6.00494e-17
-4.43489e-16
5.6691e-16
-1.51313e-16
4.15054e-16
-9.09504e-17
9.08338e-17
-2.90125e-17
1.14499e-05
-7.92026e-08
-1.12298e-05
-1.37416e-07
-1.08314e-05
-9.33665e-06
3.13143e-05
-1.27301e-05
-3.4563e-07
1.29081e-05
9.04346e-06
-3.31411e-05
1.33172e-05
-5.45776e-07
-7.74924e-06
1.17308e-05
-1.12026e-05
-1.65746e-09
-1.4795e-09
5.24876e-10
2.13078e-09
1.12405e-09
-6.62574e-10
-2.39208e-09
1.45905e-09
-2.66127e-09
-6.99902e-09
1.205e-09
7.10484e-09
9.68565e-10
-9.58236e-09
3.32111e-09
-3.86488e-09
4.96376e-09
-3.73249e-10
-6.27353e-11
-3.05233e-10
7.84812e-10
2.84567e-10
-1.96066e-10
-2.4939e-10
-3.56229e-10
6.16389e-10
4.26798e-11
3.57495e-10
-5.3658e-10
4.23521e-10
-6.25734e-10
1.03416e-10
-8.05478e-11
2.45616e-10
-1.28369e-09
-2.08279e-10
3.88422e-09
-3.09672e-09
5.26937e-09
6.22856e-09
-1.38826e-08
-1.0538e-09
5.02276e-09
2.80341e-09
-6.4027e-09
2.93669e-09
-3.80974e-09
1.20641e-08
1.37474e-09
-1.2444e-09
1.53606e-09
1.00541e-09
2.28341e-09
2.08163e-09
-5.45828e-09
-2.17761e-10
-8.06898e-10
1.96096e-09
4.90191e-09
-2.94151e-09
1.23636e-09
3.13505e-10
-4.05276e-09
-7.35784e-10
3.12183e-09
1.31242e-10
6.67351e-10
-1.54855e-09
-2.07575e-09
3.06144e-09
-3.34265e-09
6.08956e-09
7.24106e-11
-4.59441e-10
-3.90236e-09
-7.77562e-09
7.43122e-09
-4.68124e-09
-2.13527e-09
1.27955e-09
4.43995e-09
-1.96527e-09
5.66894e-10
-2.67607e-09
1.96617e-10
3.94358e-09
-1.23871e-09
5.25143e-10
-2.00349e-09
6.53212e-09
2.71608e-09
-5.29454e-09
-4.73127e-10
1.21037e-10
2.52244e-09
3.72282e-09
2.90526e-09
-1.5267e-09
-5.20992e-09
-9.60632e-09
1.57002e-08
-4.95453e-09
-3.85188e-09
-4.56165e-09
-3.85677e-09
4.74494e-10
-1.03238e-09
3.60512e-09
6.49138e-09
-1.54112e-09
-1.13797e-08
1.57987e-09
4.09998e-09
2.36305e-09
-7.98393e-10
-4.97893e-10
-9.40069e-10
6.54114e-09
2.44039e-09
-5.37055e-09
1.52891e-10
-9.99758e-07
2.17357e-06
4.76105e-07
-2.75188e-06
6.2167e-06
-2.97349e-06
-3.8219e-06
-7.84972e-07
1.25171e-05
-3.42249e-06
2.79855e-06
7.89169e-07
3.70864e-07
-1.33793e-05
8.3306e-06
-1.06395e-05
9.13471e-06
2.53968e-10
8.82929e-11
-7.51806e-11
-5.26427e-11
-1.32971e-10
-2.2252e-10
5.94455e-10
-3.24646e-10
4.25065e-10
9.11576e-11
8.41876e-11
-2.38917e-10
1.82857e-10
-3.99145e-11
-1.12132e-10
1.34232e-10
-2.36963e-10
2.85723e-11
3.08389e-12
-1.62384e-11
-5.4359e-12
-3.43803e-11
-3.04644e-11
9.71939e-11
-4.73513e-11
2.9158e-11
4.70388e-11
4.79244e-11
-1.04272e-10
8.64949e-11
-3.72545e-11
-3.37199e-11
9.31399e-11
-1.2521e-11
4.01807e-13
-6.80935e-13
-6.66771e-13
2.15091e-12
-1.27696e-12
1.01708e-12
1.3915e-12
-1.52957e-13
-1.95533e-12
4.24015e-12
-3.98074e-13
-5.29526e-12
2.1364e-13
6.81019e-12
-2.99143e-12
4.78174e-12
-3.39593e-12
3.4656e-14
-7.34294e-14
-2.03202e-13
1.26828e-13
-1.24423e-13
-1.10337e-13
1.71996e-13
-7.3383e-14
-2.93657e-13
-1.00672e-13
1.97457e-13
-3.8318e-13
3.83852e-13
-1.21658e-12
-3.91041e-15
1.00147e-14
1.86836e-14
3.53738e-16
-6.96029e-17
-1.27714e-15
1.94206e-16
-2.6569e-16
-9.4434e-17
5.05662e-16
-3.68414e-16
-1.55512e-16
2.14581e-15
2.29843e-16
-5.02575e-15
5.14611e-16
9.6647e-16
-5.06637e-16
6.47411e-16
-9.26047e-16
-1.0617e-16
-1.85078e-16
-8.99528e-17
2.60845e-16
1.12719e-17
-2.08067e-16
-1.56507e-17
-6.18999e-16
3.15985e-17
9.18923e-16
3.31595e-16
-2.61382e-15
3.56945e-16
1.58398e-16
2.2084e-16
-2.73046e-16
3.12412e-16
-1.402e-20
-1.5143e-20
-1.25758e-20
2.17127e-20
-1.2207e-21
-4.38192e-20
1.37772e-21
-1.02743e-19
-2.07331e-21
2.17691e-19
2.06344e-19
-1.01281e-18
6.57946e-20
2.65638e-21
-2.22414e-20
3.98442e-20
5.00931e-20
-4.46062e-26
1.08054e-24
-4.06482e-24
1.05862e-25
1.01755e-24
-6.35346e-24
-5.91796e-26
-7.37836e-25
1.46978e-24
9.24133e-24
4.7545e-24
-3.89595e-23
2.5999e-24
-1.69152e-26
4.782e-24
-1.12338e-23
3.41407e-24
-2.04155e-22
-3.35616e-22
-1.71407e-22
7.70229e-22
1.62638e-23
-1.64505e-22
-1.53711e-23
-2.47268e-22
3.1848e-23
3.46659e-22
1.87769e-22
-7.17215e-22
3.43968e-22
9.7401e-23
1.26082e-22
-6.62819e-23
3.49029e-22
-1.96855e-20
-3.1642e-20
-1.88525e-20
7.51261e-20
1.97546e-21
-1.47582e-20
-3.52994e-21
-2.38129e-20
4.5396e-21
2.79278e-20
1.1803e-20
-5.73393e-20
2.57446e-20
1.17286e-20
9.54477e-21
-9.7787e-21
1.97412e-20
-7.5354e-12
-2.46963e-12
1.04569e-11
7.74336e-12
-1.05244e-11
1.81696e-11
-5.44402e-12
3.53002e-12
-1.22259e-11
3.96685e-12
-4.85307e-12
1.38267e-11
-7.96828e-12
2.31268e-11
-5.71502e-12
2.03027e-11
-5.38314e-12
2.5689e-11
-2.63072e-11
7.0577e-11
-7.33054e-11
-4.54398e-11
3.77313e-11
3.18091e-11
9.48096e-11
-1.67501e-10
-1.48402e-11
-5.74342e-11
1.11907e-10
-1.09536e-10
1.28582e-10
-4.30239e-11
5.8072e-11
-4.11427e-11
-1.08974e-10
-3.70192e-11
1.02894e-10
5.51309e-11
1.55433e-11
2.87671e-11
-1.3663e-10
-1.01055e-10
9.96274e-11
4.49169e-10
-1.24149e-10
-3.52153e-10
-8.8105e-11
6.5742e-10
9.09089e-11
-1.71798e-10
1.35975e-10
-2.14093e-10
-2.8623e-10
-2.67112e-10
8.29216e-10
-1.21479e-10
-3.54612e-10
3.10564e-10
-9.09627e-11
-2.07609e-10
-2.16496e-10
4.8056e-10
-3.09408e-10
3.33046e-10
-6.80992e-10
6.73026e-11
-4.13859e-11
3.31455e-10
8.8693e-10
3.75667e-09
-6.47832e-09
1.86764e-09
2.58328e-09
-1.4812e-09
5.32006e-10
-2.50998e-09
1.49946e-08
4.3992e-09
1.42103e-09
-6.78307e-09
4.85246e-09
5.74918e-10
-5.53727e-09
1.44994e-08
-6.42014e-09
-1.90569e-09
-1.08507e-09
-7.61393e-10
3.70911e-09
6.66435e-10
-1.33491e-09
-5.13881e-10
4.43823e-10
-9.41791e-10
-9.921e-10
1.27947e-09
-8.236e-12
8.55616e-10
-2.82934e-09
6.7314e-10
-1.1732e-09
1.16522e-09
-1.02579e-08
1.96524e-09
1.78836e-08
-1.1127e-08
-9.34491e-09
3.73688e-09
-1.09477e-09
3.96025e-09
-6.53958e-09
-3.03211e-08
5.80564e-09
4.03919e-08
-1.61809e-08
2.9769e-09
-4.73236e-09
-9.21643e-09
6.51238e-09
-3.35668e-07
-1.09669e-07
1.21058e-07
2.65737e-07
-1.92309e-07
8.79096e-08
-3.53494e-07
1.02163e-08
-3.01023e-07
3.14911e-07
-1.45832e-07
4.44397e-08
-7.31691e-08
7.39963e-07
-4.95758e-08
1.15066e-07
-1.50351e-07
-4.50051e-07
2.685e-07
3.91624e-07
-7.36006e-07
5.07374e-07
-9.63366e-08
-1.35192e-06
1.41497e-07
3.24298e-07
-1.56023e-06
5.41709e-08
1.64042e-06
-3.20723e-07
-2.87856e-06
5.6129e-07
-1.65121e-06
5.06488e-07
-2.6436e-08
-3.41733e-11
2.90449e-08
-1.23377e-09
2.24221e-08
4.15043e-08
-8.86787e-08
-4.6594e-09
2.92639e-08
1.71035e-07
-1.58972e-07
-1.99875e-09
-5.80488e-08
2.72537e-07
6.02623e-08
-1.67747e-07
3.63388e-08
2.35934e-07
-1.79182e-05
1.83351e-05
-6.73364e-07
-1.44305e-05
1.44719e-05
1.44194e-07
1.09241e-05
-4.32872e-05
-1.7539e-05
-1.08997e-05
4.28705e-05
-1.76676e-05
3.0383e-07
-1.4877e-05
2.231e-05
-2.157e-05
-3.55376e-10
-1.978e-10
1.81705e-10
2.91733e-10
1.67762e-10
-1.86201e-11
-5.52512e-10
-2.66508e-10
4.48714e-10
6.82645e-10
-2.18806e-10
-5.93694e-10
-2.19983e-11
1.28939e-09
3.40785e-10
-5.83426e-10
4.09048e-10
1.77798e-10
1.15326e-10
-4.48566e-11
-3.17726e-10
-5.42097e-11
2.44217e-11
1.55764e-10
-4.1925e-11
5.28291e-11
5.8544e-11
-2.24651e-11
-1.2305e-10
1.41632e-11
6.58178e-11
-7.45616e-11
8.19811e-11
-1.77284e-10
-1.03508e-15
-1.87149e-15
-3.16078e-16
2.50568e-15
2.57331e-16
-1.17267e-15
-6.27239e-16
-5.4291e-15
9.69647e-16
9.98122e-15
1.53843e-15
-2.20042e-14
2.79875e-15
4.82085e-15
1.77008e-15
-1.92524e-15
3.36955e-15
-1.37769e-16
-1.61756e-18
2.7162e-17
3.71144e-18
1.37187e-16
9.00582e-17
-5.62599e-16
5.25777e-17
2.61539e-18
-5.17721e-17
-5.15449e-17
7.51079e-17
-1.3561e-16
5.16738e-18
6.26713e-17
-2.06032e-16
1.34736e-17
4.22325e-18
9.73732e-17
-3.56083e-16
5.92893e-17
-1.48444e-16
8.82435e-18
9.82416e-17
4.3488e-16
-2.24111e-15
-3.15543e-16
1.30634e-19
1.23112e-20
-8.46392e-19
-1.65801e-20
-1.49925e-19
-8.4216e-20
2.19469e-19
-4.54571e-19
2.14212e-20
1.91711e-18
1.74142e-18
-8.01097e-18
6.20415e-19
7.94985e-22
-5.2335e-19
7.28825e-19
9.70582e-20
1.31876e-18
1.29283e-19
-5.84512e-18
-3.86332e-19
-6.74298e-18
2.47783e-18
3.4051e-19
-1.91974e-17
1.33479e-18
-3.19395e-20
-9.7197e-21
-2.58877e-20
3.55156e-20
-2.88632e-22
-9.92029e-20
1.9861e-21
1.5214e-19
-3.67746e-19
7.63187e-20
-1.1287e-18
2.21632e-19
1.8666e-18
-7.8104e-20
1.24839e-18
6.03908e-19
-2.62078e-18
1.31717e-18
5.42951e-19
-8.88216e-19
-1.13446e-18
4.32247e-18
-6.42214e-19
-9.91631e-20
3.2882e-19
-2.24165e-19
7.61798e-19
-8.18255e-14
-4.53925e-14
1.1092e-13
5.39196e-13
4.18411e-13
2.7963e-13
-5.68794e-13
1.59026e-12
-7.41003e-13
1.81879e-12
-2.12521e-13
2.04695e-12
-1.16412e-12
6.7583e-12
2.95904e-13
-2.88913e-13
1.51443e-12
-1.29045e-11
-4.34138e-12
7.68227e-12
4.59072e-12
1.54599e-12
6.24115e-12
-1.53864e-11
1.03496e-11
-7.31707e-12
-1.92782e-12
-1.29425e-11
2.28241e-11
-1.98437e-11
1.8984e-11
3.67566e-12
-1.8546e-11
1.2982e-12
1.13424e-12
3.85133e-12
-1.25949e-13
-3.97931e-12
2.09084e-12
-2.15613e-13
2.99584e-12
1.30206e-12
1.29831e-12
-2.3745e-13
-8.74607e-13
2.49829e-13
8.50465e-12
-1.04112e-12
5.83123e-12
-1.0262e-12
-7.49956e-11
-4.30501e-11
-1.06213e-10
1.29555e-10
4.64345e-11
-1.64706e-10
-5.68724e-11
-2.19509e-10
1.12768e-10
1.94488e-10
2.25809e-10
-5.21042e-10
1.06823e-10
-8.4604e-11
1.44756e-10
-1.38153e-10
9.9385e-11
4.65006e-10
5.32686e-10
1.98781e-10
-7.20516e-10
-3.42333e-11
3.80284e-10
7.51118e-11
6.55979e-10
-1.00955e-10
-5.33461e-10
-4.41888e-10
1.37307e-09
-6.23172e-10
1.8243e-10
-4.03766e-10
6.31858e-10
-4.30823e-10
6.45869e-10
-7.84164e-11
-4.12159e-10
2.80185e-10
-9.47047e-10
-4.25815e-11
1.97326e-09
-2.05415e-10
-5.48537e-10
9.0635e-10
3.29864e-11
-1.31371e-09
4.71217e-10
7.59801e-10
-5.59849e-10
1.16199e-09
-6.88636e-10
-1.90291e-10
-2.12552e-11
2.15626e-10
1.97736e-10
6.94713e-11
4.47984e-11
-2.89801e-10
2.07131e-12
2.45323e-10
1.93569e-10
-9.98728e-11
-1.17978e-11
-6.36766e-11
7.2474e-10
1.01846e-10
-1.45319e-10
3.5833e-10
-1.72664e-12
-1.45598e-11
3.68074e-13
1.12442e-11
-2.08911e-11
1.70805e-11
1.16106e-12
8.6105e-12
-4.40435e-11
8.2096e-12
-7.731e-12
-7.67078e-13
-4.74605e-12
2.35285e-11
-7.89786e-12
2.42777e-11
-1.11303e-11
2.38751e-11
-1.42709e-11
4.95314e-13
-2.93328e-11
1.09792e-10
2.68226e-11
-6.23744e-11
1.89595e-11
1.10527e-12
5.06879e-11
3.36808e-10
6.42971e-10
1.25448e-09
-1.91517e-09
9.53293e-11
4.83202e-10
-1.74545e-10
2.62957e-10
5.86155e-10
5.11114e-10
-1.64316e-09
1.48594e-09
-8.67464e-10
2.15112e-09
-5.67072e-10
2.15556e-10
-9.37654e-10
2.96623e-10
-3.35572e-10
-5.85113e-10
7.79076e-10
-5.47406e-10
-4.68752e-10
1.45157e-09
-1.12226e-10
-4.37854e-10
-3.18382e-10
8.15577e-10
-4.15978e-10
5.13303e-10
-1.05829e-09
-4.25943e-10
7.18361e-10
-3.70082e-10
9.3419e-09
2.96502e-09
-3.92789e-09
-4.68992e-10
8.22217e-10
8.63086e-10
1.22283e-08
2.07242e-09
5.58026e-11
-3.49753e-09
1.07309e-09
1.97035e-09
1.09458e-09
-1.35956e-09
-1.86774e-09
2.32637e-09
-3.14997e-09
2.55715e-06
-2.17339e-06
6.27336e-07
-3.20963e-06
-7.74589e-06
-7.47191e-08
5.00668e-06
-2.05522e-06
-8.40045e-06
-4.36436e-06
1.2549e-06
2.28412e-06
-3.43661e-07
-7.19283e-06
-4.37901e-06
4.37314e-06
-6.80728e-06
1.24664e-09
1.29827e-10
-2.09578e-09
7.63574e-10
-1.59016e-09
7.71488e-10
2.04058e-09
2.4281e-10
-1.74105e-09
6.44242e-10
-2.33167e-10
1.90868e-10
1.8261e-09
-2.30992e-09
-3.05738e-11
5.52896e-10
1.04038e-10
-4.49977e-08
-5.60077e-08
-3.4432e-08
1.29384e-07
-4.72861e-09
-2.52713e-08
-2.07085e-08
-5.92294e-08
-1.07021e-08
1.34614e-07
2.40445e-08
-2.16217e-07
1.53046e-07
-3.71299e-08
4.95672e-08
-5.14117e-08
1.63767e-07
8.35113e-08
3.90132e-09
-8.14005e-08
-1.85533e-09
-1.42503e-07
-8.55819e-08
3.16128e-07
-1.86111e-07
5.44193e-08
6.96066e-08
1.6476e-07
-3.14612e-07
7.9383e-08
-8.8915e-09
-4.97198e-08
4.45239e-08
-6.96954e-08
5.69259e-10
-1.48562e-10
-9.91616e-10
4.14063e-10
-8.577e-10
-9.51988e-10
1.86696e-09
-5.34193e-11
-9.12406e-10
-1.36164e-09
1.39379e-09
-6.33939e-11
1.26758e-09
-3.51877e-09
-6.15421e-10
1.07187e-09
-6.56343e-10
1.65674e-10
-1.08159e-11
-7.40102e-11
2.63197e-11
-1.43805e-10
-3.50703e-11
4.4942e-10
-3.74993e-11
-2.61964e-11
2.76976e-10
3.23603e-11
-3.83358e-10
2.75071e-10
3.21934e-10
-1.07896e-10
5.59726e-10
-9.89373e-11
-2.36584e-14
-5.46791e-16
9.44145e-15
2.27561e-15
2.21942e-14
2.51017e-14
-9.37439e-14
1.24676e-14
4.30272e-16
-1.39068e-14
-1.45176e-14
2.69588e-14
-3.42913e-14
4.21739e-15
1.6824e-14
-4.85981e-14
5.54035e-15
2.53685e-15
2.7244e-14
-7.46593e-14
1.68702e-14
-4.91917e-14
8.85464e-15
3.32073e-14
1.46068e-13
-4.65731e-13
-7.91885e-14
-3.43503e-18
5.31004e-17
8.98619e-18
-1.82933e-16
3.25158e-17
-6.33691e-17
-7.45704e-18
-2.62191e-17
7.534e-17
-2.72068e-16
1.03602e-16
4.55172e-17
9.82077e-17
-7.83231e-16
6.71834e-17
-8.91879e-17
9.09265e-17
-2.56068e-20
-2.19849e-21
4.73155e-21
1.27177e-21
1.81055e-20
2.69383e-20
-1.34146e-19
9.79645e-21
-1.37102e-20
-2.83471e-21
-5.19216e-21
6.35691e-21
-1.372e-20
2.72532e-21
1.98039e-21
-4.35351e-21
3.17026e-23
-5.24623e-22
-2.89371e-23
9.12651e-23
2.72406e-23
4.3381e-22
6.11578e-22
-2.93987e-21
1.44586e-22
-1.53099e-23
-6.8652e-23
-8.60031e-23
1.24093e-22
-3.5302e-22
7.33525e-23
1.09512e-22
-2.65878e-22
4.5732e-23
-2.39302e-20
6.55722e-18
-3.25998e-18
-2.78844e-19
6.28696e-18
-4.78166e-18
-3.56671e-20
-4.67878e-17
-3.57225e-17
1.68268e-18
-8.90781e-18
-2.67958e-17
-5.12515e-18
-5.63592e-17
-4.39324e-16
-2.31909e-16
-2.07337e-17
7.22297e-16
3.86459e-17
-1.08397e-16
-3.08259e-16
6.22896e-18
-1.22564e-16
1.77612e-16
-1.64715e-16
-1.16928e-16
-2.8951e-16
4.65e-16
-2.31331e-16
-5.25636e-16
-4.20065e-15
-4.26577e-15
-2.63432e-15
-1.44404e-15
-6.63445e-15
-1.22558e-05
-9.98773e-06
-1.03533e-05
3.26035e-05
-3.43663e-07
-1.28571e-05
9.46728e-07
-9.8134e-06
-5.28929e-07
9.55881e-06
7.55963e-06
-2.69436e-05
1.02957e-05
-1.25959e-06
5.43439e-06
-1.07308e-05
5.37902e-06
1.59588e-13
2.0633e-15
-2.64251e-11
2.79522e-11
-3.20015e-11
-9.9978e-12
4.37654e-11
-6.6873e-12
-1.92026e-11
1.53044e-11
8.40355e-13
-1.72932e-11
-5.13945e-12
4.8524e-12
7.54522e-13
-8.90059e-12
-2.99572e-11
7.49901e-14
-1.05408e-13
-9.1505e-15
8.04236e-14
-2.89996e-13
5.70041e-14
3.7715e-13
-2.54189e-15
-3.5575e-13
7.87532e-14
-1.68624e-14
-5.55967e-14
3.38922e-15
1.93332e-13
-5.90048e-14
1.60408e-13
-4.62461e-14
7.05729e-16
-1.56379e-16
1.64736e-15
-3.80094e-15
-1.04477e-15
1.02191e-15
1.2898e-15
1.97653e-15
-4.00683e-15
1.93907e-16
-1.81255e-15
3.08237e-15
-1.42117e-15
3.45444e-15
-1.9347e-16
4.08137e-16
-2.75015e-16
-9.19742e-11
-4.7446e-11
4.91883e-12
9.23308e-11
6.3763e-11
-5.26034e-11
-1.45665e-10
-9.9789e-11
4.48724e-11
2.41265e-10
1.20192e-11
-3.3867e-10
3.93809e-11
1.43336e-10
7.23486e-11
-1.73475e-10
7.3027e-11
4.54501e-12
2.5294e-11
-3.59639e-12
-3.25738e-11
2.13556e-11
-2.88508e-11
7.88543e-12
-1.30764e-11
5.63618e-11
-5.04391e-11
4.74883e-11
-1.18513e-11
3.86813e-11
-1.36706e-10
2.45525e-11
-2.94852e-11
5.62214e-11
1.5167e-09
8.50577e-10
-1.4871e-10
-2.19193e-09
-3.03075e-10
6.70739e-10
1.17355e-09
6.59475e-10
-3.78645e-10
-1.05026e-09
-1.40791e-10
1.87283e-09
-4.88248e-10
-9.16094e-10
-1.13536e-09
1.6847e-09
-1.75483e-09
2.15866e-10
2.14116e-10
1.05991e-10
-5.69647e-10
-2.15105e-11
1.27257e-10
7.69173e-11
7.70136e-11
-2.64524e-11
-1.27715e-10
-7.08479e-11
2.16927e-10
-1.78953e-10
-3.91842e-11
-2.36807e-10
2.70666e-10
-3.82848e-10
-2.02065e-10
-4.91361e-11
3.86157e-11
2.9004e-10
6.2706e-12
-2.93522e-11
-2.33236e-11
-6.87182e-12
-2.32274e-12
5.84125e-11
4.93998e-12
-7.50853e-11
7.55947e-11
6.11872e-11
1.11348e-10
-1.16725e-10
2.70879e-10
8.85136e-07
-3.00461e-06
-2.14611e-06
2.44405e-06
-4.28037e-06
1.20607e-06
3.12998e-06
-3.9957e-07
-6.85168e-06
6.95227e-06
-2.19307e-06
-7.14131e-06
-1.71293e-07
5.6883e-06
-3.99003e-06
4.09551e-06
-6.60287e-06
-5.72882e-06
6.98436e-07
4.93492e-06
1.34826e-07
1.13554e-05
4.64689e-06
-2.15318e-05
1.0263e-05
1.90412e-06
-1.51931e-05
-1.6347e-05
4.19179e-05
-2.00209e-05
6.80374e-06
-3.14969e-06
-8.16706e-06
-1.84027e-05
6.40567e-06
2.82879e-08
-7.33343e-06
9.69581e-07
-9.83627e-06
-3.85531e-06
2.01924e-05
-1.13671e-05
1.5337e-06
5.65533e-06
-2.62311e-05
1.33706e-05
-2.42724e-05
2.6409e-05
2.65986e-05
-6.30268e-05
6.33891e-06
8.81901e-06
2.2753e-05
-5.17469e-05
1.00718e-06
5.84689e-06
-2.29146e-09
1.77801e-09
1.12732e-09
-2.85478e-10
4.93821e-09
4.71423e-10
-6.70582e-09
7.34626e-09
3.21651e-09
-3.45741e-10
-2.22105e-09
6.73537e-09
-2.30412e-09
2.12292e-09
2.06573e-09
-3.26011e-09
1.11233e-08
-1.15506e-05
-1.24182e-05
-7.70016e-06
3.14549e-05
2.52845e-08
-1.19859e-05
3.92514e-08
-1.23155e-05
-5.42339e-08
1.64759e-05
1.23253e-05
-4.1099e-05
1.70648e-05
-4.19248e-07
8.75159e-06
-8.89374e-06
1.78572e-05
1.3115e-05
1.60315e-05
5.72276e-06
-3.48861e-05
4.38055e-07
1.27658e-05
-6.16216e-08
1.56919e-05
8.0017e-07
-2.01863e-06
-3.88313e-06
1.86835e-05
-2.04642e-06
-3.20778e-08
5.36285e-06
-1.67824e-06
1.68645e-05
1.09674e-07
1.55502e-07
2.11665e-08
-2.86852e-07
2.22125e-09
-1.61488e-09
9.77641e-08
1.28768e-07
2.24011e-08
5.66916e-08
-5.07224e-08
-7.7957e-09
-2.6777e-08
1.80628e-07
-6.6131e-08
1.69226e-07
-9.27848e-08
4.13267e-10
6.84458e-10
-7.01949e-10
-8.6049e-10
2.80523e-10
-8.25884e-10
6.74785e-10
-1.06051e-09
1.35568e-09
-5.45441e-10
1.50428e-09
-1.7544e-09
8.96626e-10
-2.61619e-09
-1.08908e-10
3.12692e-11
-1.68858e-10
-1.17988e-13
-4.20613e-13
-9.86084e-14
4.58708e-13
-7.71931e-15
-1.70301e-13
8.83225e-15
-9.26043e-13
8.83152e-16
-2.50522e-13
-6.05108e-13
5.46665e-13
-9.85509e-13
3.78642e-13
1.9931e-12
-5.28305e-12
3.02149e-13
1.2041e-13
2.25668e-14
-1.58598e-13
9.63188e-14
-1.12387e-20
-1.43061e-20
-1.37214e-20
2.18316e-20
-4.48196e-21
-4.9357e-20
1.19308e-20
-6.63866e-20