/*--------------------------------*- C++ -*----------------------------------*\
| =========                 |                                                 |
| \\      /  F ield         | OpenFOAM: The Open Source CFD Toolbox           |
|  \\    /   O peration     | Version:  v2012                                 |
|   \\  /    A nd           | Website:  www.openfoam.com                      |
|    \\/     M anipulation  |                                                 |
\*---------------------------------------------------------------------------*/
FoamFile
{
    version     2.0;
    format      ascii;
    class       surfaceScalarField;
    location    "0.2";
    object      phi;
}
// * * * * * * * * * * * * * * * * * * * * * * * * * * * * * * * * * * * * * //

dimensions      [0 3 -1 0 0 0 0];
oriented        oriented;


internalField   nonuniform List<scalar> 
49400
(
-5.66244e-06
3.49928e-09
5.61433e-06
4.4603e-08
1.30539e-05
3.59656e-06
-2.23129e-05
1.28584e-05
1.99003e-07
-3.42247e-06
1.73257e-05
-8.28894e-06
2.02253e-05
-2.00512e-05
-2.07695e-05
5.09536e-05
-3.45203e-07
8.09172e-06
1.95897e-05
-4.99943e-05
-1.52613e-07
-6.14118e-07
-1.22884e-05
2.33789e-07
1.21442e-05
-8.9561e-08
2.62929e-05
1.15528e-05
-5.01342e-05
2.59126e-05
-1.31252e-05
1.50714e-06
2.37622e-05
-1.32605e-05
4.57613e-08
2.94631e-05
-3.11708e-05
5.68828e-05
-2.68314e-05
4.45526e-07
2.64061e-05
-2.02206e-08
9.19917e-06
1.56123e-05
-5.16428e-05
4.99797e-07
9.1449e-06
4.11654e-05
2.27277e-05
-4.82809e-05
1.73239e-05
5.02476e-05
7.67235e-06
-7.39707e-06
2.24523e-07
-3.7107e-06
2.05279e-05
6.23573e-06
9.09489e-06
1.9849e-05
8.83646e-06
4.82957e-07
-2.00085e-05
4.93729e-05
3.23408e-07
-5.28338e-07
6.19868e-06
-2.24712e-06
-3.42323e-06
9.57527e-06
-3.54853e-06
-6.55508e-06
-7.35966e-06
-1.09254e-05
-2.25248e-06
7.2855e-08
-6.74916e-08
1.00492e-06
-6.80592e-06
-7.49374e-06
2.06936e-07
-1.74142e-05
1.57513e-06
1.4067e-06
1.16062e-06
-4.14245e-06
-2.85786e-07
1.82994e-06
3.09704e-08
1.59013e-06
-4.69216e-07
-2.13757e-06
-1.16667e-06
4.89437e-06
-1.82732e-06
-7.79469e-07
-9.07252e-07
1.57053e-06
-1.57395e-06
3.26046e-06
6.36052e-07
-2.7295e-06
-1.16701e-06
-3.63051e-06
-3.85402e-06
1.0745e-05
-5.18703e-06
2.19258e-06
1.64085e-06
3.10469e-06
-7.47503e-06
4.05919e-06
-3.58536e-06
-1.929e-06
2.13416e-06
-4.01135e-06
-1.04241e-05
-3.75046e-06
-1.46387e-05
2.88133e-05
5.22464e-06
-8.08957e-06
-7.55917e-06
-1.22874e-05
1.37616e-05
1.15158e-06
1.47445e-05
-2.39856e-05
1.0319e-05
-1.67266e-05
9.61661e-07
-8.55926e-07
-1.00682e-06
-1.22487e-05
-1.20716e-05
-6.80843e-06
3.11287e-05
-7.74539e-06
-1.48898e-05
1.03865e-05
-2.25276e-05
2.7106e-06
9.65407e-06
1.06165e-05
-3.51604e-05
1.93377e-05
7.02892e-07
6.18277e-06
-1.80938e-05
1.8712e-05
-1.83409e-06
-1.5295e-06
1.69983e-06
1.66376e-06
3.4214e-07
3.25598e-06
-5.4322e-06
2.97349e-06
-4.16085e-06
-1.5332e-07
-3.39062e-06
5.24377e-06
-3.50813e-06
5.01857e-06
-1.05032e-07
-1.47123e-07
-5.22163e-07
-6.85497e-07
-6.54951e-07
-4.87108e-07
1.82756e-06
1.26506e-07
6.94435e-08
-8.81446e-07
-1.60815e-06
1.07971e-06
-1.11441e-06
1.35987e-06
-1.76011e-07
1.20629e-06
-3.20215e-06
1.00383e-06
-1.40569e-06
1.87659e-06
-7.39561e-06
-1.21403e-05
-8.81515e-06
2.83511e-05
5.39035e-07
-6.56611e-06
-1.36854e-06
-1.44115e-05
2.8102e-06
7.63639e-06
3.81613e-06
-1.80186e-05
8.99709e-06
-2.72924e-06
-1.21823e-05
1.23642e-05
-2.27776e-05
2.05162e-06
-9.36818e-07
-2.02111e-06
9.06307e-07
-1.53744e-06
1.22954e-06
2.35951e-06
6.70318e-08
-2.54128e-06
2.73116e-06
-8.67042e-07
-3.88523e-06
4.16404e-07
3.22107e-06
-7.9707e-07
2.44302e-06
-1.59708e-06
-2.87172e-06
-8.61167e-07
1.25697e-06
2.47592e-06
1.47845e-06
2.23399e-07
-4.57357e-06
-7.97568e-07
1.41485e-06
2.76921e-06
-1.35096e-06
-2.21582e-06
-2.21991e-07
4.40605e-06
2.17858e-06
-3.30614e-06
3.21356e-06
1.97113e-06
7.76808e-07
-2.00899e-06
-7.38945e-07
-1.7591e-06
-2.56625e-06
6.29648e-06
-3.48473e-06
2.50244e-06
1.55969e-06
2.05001e-06
-5.61869e-06
2.87283e-06
-2.05209e-06
-1.73034e-06
2.03691e-06
-3.16505e-06
1.98775e-06
2.89042e-06
3.21064e-06
-8.08881e-06
9.99327e-07
3.47996e-06
-2.49154e-06
2.82737e-06
1.06237e-06
-2.31776e-06
-3.99727e-06
9.1424e-06
-4.56029e-06
3.30491e-06
-9.47284e-07
4.29976e-07
-2.29693e-06
8.48501e-07
-9.55659e-09
-9.34032e-07
9.50878e-08
-2.559e-06
-7.52883e-07
4.16038e-06
-3.25767e-08
-2.53598e-06
-4.32753e-06
4.10307e-06
1.9188e-07
3.05731e-06
-9.92082e-06
7.84642e-07
1.33864e-06
4.13483e-06
1.87575e-07
1.24615e-06
3.81387e-06
5.08533e-07
9.2204e-06
1.69185e-06
-2.58131e-08
-1.69871e-06
3.26714e-08
-1.83045e-06
-1.3854e-06
4.9077e-06
-1.65602e-08
-1.8397e-06
-2.30647e-06
2.28756e-06
2.35151e-09
2.00974e-06
-6.15591e-06
-6.33709e-07
1.53587e-06
-3.22685e-07
5.06169e-07
6.6641e-06
-1.68838e-06
-5.48189e-06
6.52897e-06
-4.48693e-06
-5.05948e-06
-5.08421e-06
5.74047e-08
-7.09527e-06
1.854e-06
2.23346e-06
1.50071e-06
-5.58817e-06
-7.98944e-08
1.84527e-06
8.86253e-08
2.37134e-06
-2.17776e-07
-2.20545e-06
-1.49702e-06
5.54774e-06
-2.39304e-06
2.76213e-07
1.77478e-06
-2.66711e-06
2.6491e-06
1.52671e-06
-7.52998e-07
-1.56152e-06
7.87808e-07
-2.41768e-06
-3.88473e-07
4.33286e-06
-1.23704e-06
-1.93364e-06
2.98915e-06
5.91843e-07
-5.14251e-06
1.38418e-06
2.39277e-06
-1.61183e-06
2.60754e-06
-2.25702e-06
4.06993e-06
-7.10333e-07
-5.24027e-06
1.88068e-06
-3.56072e-06
-3.77043e-06
1.14011e-05
-1.28025e-06
-2.99081e-06
-1.7167e-06
3.95816e-06
-3.52171e-06
3.02456e-06
-7.73206e-06
-2.07071e-06
2.25844e-06
-4.28642e-06
-4.42094e-06
3.85441e-06
1.27826e-05
-1.2216e-05
1.04856e-05
1.41588e-05
-2.90653e-05
9.45192e-06
4.88809e-06
-5.86617e-06
-1.18902e-05
2.72083e-05
-1.77911e-05
1.6813e-05
5.01653e-06
-8.64879e-06
5.90887e-06
1.69065e-05
-1.00196e-05
-1.65423e-05
9.65546e-06
-3.55348e-05
-1.72062e-06
5.41619e-05
-1.20231e-05
-3.35313e-05
2.90087e-05
-1.48981e-06
-4.40612e-05
1.11101e-05
2.75541e-05
-2.27452e-05
3.21347e-05
-3.62581e-05
-1.12439e-05
-1.08003e-05
9.52079e-06
1.25234e-05
-8.49329e-07
2.49667e-05
-3.53613e-05
2.22582e-05
-3.39078e-05
2.02267e-06
-1.98228e-05
2.73209e-05
-2.49931e-05
3.95391e-05
1.45061e-06
-1.47696e-06
3.8861e-06
-5.06265e-06
-1.00139e-06
3.9376e-06
2.12644e-06
3.64569e-06
2.97764e-06
-1.1686e-05
-5.7386e-07
3.21817e-06
3.96688e-06
-4.16464e-06
-3.76103e-07
-2.2354e-06
9.42044e-06
2.75717e-06
-3.94417e-06
4.45937e-06
-9.39489e-07
-4.29454e-06
-5.45831e-06
1.06923e-05
-3.33161e-06
-5.83333e-06
8.22545e-06
-4.26386e-06
-3.36229e-06
4.61539e-07
8.11353e-06
-1.28389e-05
8.34889e-06
-1.12496e-05
5.17981e-07
1.76223e-06
3.40856e-06
-9.03871e-06
7.60027e-07
1.11155e-05
-2.83682e-06
7.20663e-06
1.00808e-05
-2.63261e-05
6.07276e-07
7.35939e-06
6.62407e-06
-7.06565e-06
1.04885e-06
-5.38333e-06
1.93668e-05
2.63866e-06
3.76495e-07
8.37083e-06
5.2057e-06
5.27016e-06
4.27205e-06
-1.47479e-05
-9.53122e-07
5.53671e-06
6.22109e-07
6.62681e-06
-2.30977e-06
-6.78385e-06
-4.33428e-06
1.66548e-05
-6.87221e-06
7.10471e-07
4.75855e-06
-7.35871e-06
7.05108e-06
-1.23056e-05
-1.5451e-05
-9.18483e-06
3.69414e-05
-1.43042e-07
-3.64996e-08
-1.2126e-05
-1.48075e-05
-7.86482e-07
-1.50789e-05
1.50346e-05
7.82381e-09
8.93479e-06
-3.61397e-05
1.15666e-05
-1.74393e-05
1.74163e-05
-1.42953e-06
6.58275e-07
1.46875e-06
-6.97499e-07
2.07665e-06
1.00806e-06
-4.51424e-06
2.1619e-06
5.73028e-07
-2.13833e-06
-8.9851e-07
4.50559e-06
-1.62061e-06
-1.21521e-06
1.64255e-06
-2.2551e-06
2.90593e-06
-3.67543e-06
1.9882e-06
-8.24185e-06
9.92909e-06
6.20119e-06
-3.26421e-06
-6.61242e-06
-1.04298e-05
1.86192e-05
-5.68018e-06
9.75219e-06
-7.33621e-06
7.09636e-06
-1.9389e-05
-7.28568e-07
5.09869e-08
-1.87406e-06
-2.4763e-06
-9.16282e-06
-1.50028e-05
2.6642e-05
-7.69203e-06
-1.45776e-05
1.97934e-05
-1.13693e-05
-5.48555e-06
1.28354e-05
1.00845e-05
-3.42892e-05
1.74077e-05
-1.00579e-05
8.1091e-06
-1.26022e-05
1.0514e-05
-1.68016e-05
1.00732e-05
1.60513e-05
-9.32286e-06
3.51588e-05
3.95877e-06
-5.59191e-05
1.48323e-05
3.03997e-05
-2.9494e-05
-1.05361e-06
4.65989e-05
-1.51649e-05
-2.3652e-05
2.48651e-05
-3.60713e-05
3.86438e-05
-8.36224e-07
-2.91708e-06
4.07084e-07
3.34623e-06
-1.27236e-06
4.7386e-06
-4.30246e-06
2.04111e-06
-6.23056e-06
1.49532e-06
-2.52661e-06
1.43837e-06
-3.69629e-06
8.53783e-06
-2.42897e-07
1.28521e-06
-7.28394e-07
-3.9229e-06
-4.60089e-06
-3.23429e-06
1.17581e-05
-1.01295e-07
-7.34337e-07
-3.08727e-06
-1.19446e-06
-3.50772e-06
-2.99715e-06
-9.71471e-07
1.05201e-06
-7.13643e-06
-1.11392e-06
-5.81715e-07
-5.13961e-07
4.93987e-07
6.01689e-07
1.02252e-06
6.80207e-07
-2.28445e-06
8.69569e-07
-3.61007e-07
1.03967e-07
1.07023e-06
1.67253e-06
-9.66871e-07
3.61232e-06
-2.0091e-07
1.90455e-06
-1.45122e-06
-2.52412e-07
1.67233e-06
-1.23918e-07
-1.74932e-06
1.21268e-06
2.36419e-06
-1.27904e-06
-2.30282e-06
4.79455e-06
1.89526e-07
8.9562e-07
1.61208e-06
-1.54647e-06
-2.14197e-06
-2.3939e-06
1.85165e-07
-6.42482e-07
2.85121e-06
-7.01928e-07
-1.7868e-06
9.48337e-08
-7.71757e-07
2.54994e-07
4.62559e-07
9.53253e-07
-2.18757e-06
1.61317e-06
1.52289e-06
-2.35644e-06
2.49358e-06
2.39158e-06
4.07695e-07
2.71947e-06
-5.51874e-06
-1.6285e-07
8.94522e-08
2.46497e-06
3.75021e-06
-3.50536e-06
1.47008e-06
-3.10164e-06
1.72101e-06
-2.62725e-06
6.56231e-06
-2.65011e-07
1.38797e-06
-6.47177e-07
3.05804e-08
-1.12028e-06
4.70218e-08
1.04268e-06
-2.81215e-06
-1.51307e-07
2.99404e-06
-2.41571e-06
-1.51672e-06
1.14622e-06
2.2528e-07
-1.32448e-06
7.8313e-08
2.11058e-06
-3.26156e-06
3.18856e-06
-5.45198e-06
2.34804e-05
3.238e-06
-1.54996e-05
-1.12188e-05
-1.54651e-05
-8.19253e-06
4.7138e-05
-1.5519e-05
3.29189e-06
2.10449e-05
4.5877e-06
-4.11516e-05
1.45565e-05
9.78034e-06
-1.78048e-05
2.41687e-05
-2.87166e-05
-3.73479e-06
1.61249e-05
3.74355e-06
-1.61337e-05
2.09019e-05
-1.61828e-05
-8.4539e-06
-8.04703e-06
4.50739e-05
-2.42342e-05
1.8422e-05
9.55575e-06
9.6852e-06
-5.00531e-05
1.5662e-05
-2.21596e-05
2.6037e-05
1.99688e-05
2.69265e-05
1.05696e-05
-5.74649e-05
7.92166e-06
-8.84349e-06
2.08907e-05
1.69869e-05
1.78612e-05
4.13485e-05
-2.53944e-05
-2.47976e-05
-8.00029e-06
7.02395e-05
-2.37404e-05
3.2727e-05
-3.85651e-05
-1.81587e-06
-1.00423e-05
3.92797e-07
1.14653e-05
-1.44933e-05
1.58656e-05
-3.18818e-06
9.07907e-06
-3.36147e-05
1.50288e-05
-1.37419e-05
-8.94094e-07
-4.20253e-06
3.06967e-05
-1.83221e-05
2.99853e-05
-2.2985e-05
-2.6332e-06
-1.97666e-06
-1.10536e-06
5.71522e-06
4.68515e-07
-1.81922e-06
-1.28249e-06
-1.65264e-06
1.44496e-07
1.73074e-06
7.91163e-07
-4.17454e-06
2.10884e-06
-2.3361e-07
1.84597e-06
-2.87403e-06
2.84946e-06
-4.13237e-06
-2.9054e-06
-1.10789e-06
8.14566e-06
1.05287e-06
-2.51746e-06
-2.66778e-06
-2.79085e-06
9.38319e-07
4.10772e-06
9.99358e-07
-7.89793e-06
2.76935e-06
2.2767e-06
2.84455e-06
-4.36265e-06
4.506e-06
-3.0709e-06
-1.78107e-06
-7.00551e-07
5.55252e-06
6.03152e-07
-1.92987e-06
-1.74418e-06
-1.80929e-06
6.31371e-07
2.96063e-06
5.99418e-07
-5.36934e-06
1.79265e-06
1.79935e-06
2.41747e-06
-3.74792e-06
3.50956e-06
2.26711e-06
-2.96567e-07
3.27366e-07
-2.29791e-06
-3.32697e-06
-1.53072e-06
7.1248e-06
-2.71855e-06
-9.04986e-07
-3.08456e-06
2.41492e-06
9.97005e-07
1.28013e-06
-6.6626e-06
-2.35764e-06
3.24185e-06
-3.79607e-06
1.77867e-07
2.35387e-06
-2.12725e-06
-4.04487e-07
2.09483e-06
2.06326e-07
-2.12329e-06
-1.32741e-06
5.7761e-06
-3.00761e-06
2.55722e-06
6.56715e-07
1.87858e-06
-7.00948e-06
-1.46725e-06
2.69707e-06
-1.71592e-06
2.58051e-06
2.01676e-06
1.89696e-06
-6.49423e-06
6.59512e-08
2.71452e-06
-1.99955e-07
2.00504e-06
7.76785e-08
-2.13605e-06
-1.44427e-06
5.58537e-06
-2.27484e-06
2.16467e-07
-1.66663e-06
2.93687e-06
-2.04451e-06
1.97818e-06
5.76093e-08
-1.88935e-06
-1.46431e-07
-1.99488e-06
-1.01367e-06
4.98672e-06
8.03123e-08
-2.01758e-06
-3.07314e-06
2.84886e-06
3.04589e-07
2.00911e-06
-7.09983e-06
-1.75022e-06
3.58542e-06
-1.63046e-06
-6.11684e-08
2.35011e-06
-2.51737e-06
2.28432e-07
1.85765e-06
-1.87197e-06
-4.6842e-08
-2.00268e-06
6.21043e-06
1.75444e-06
1.3603e-06
1.84509e-06
-1.3749e-07
-9.96119e-07
8.38535e-07
-2.15318e-06
1.0449e-07
-2.22975e-06
2.4725e-06
-3.47236e-07
-1.8695e-06
9.89982e-08
1.87499e-06
1.98095e-06
-6.0802e-06
1.79075e-06
-1.94834e-06
2.56592e-07
-1.46551e-06
5.13125e-06
-9.70439e-07
1.97743e-06
-9.3783e-07
-1.84854e-06
-6.49109e-08
7.2896e-08
1.84056e-06
2.23096e-06
1.49788e-06
-5.57738e-06
2.35942e-06
-1.93368e-07
2.22409e-06
-2.39552e-06
2.44326e-07
-1.47838e-06
5.54302e-06
1.78373e-06
-2.68137e-06
2.66478e-06
-1.73119e-06
3.00227e-07
1.72459e-06
-2.93625e-07
2.72815e-06
1.02189e-06
-5.48122e-06
2.04827e-06
9.80103e-07
-2.3521e-06
-8.36492e-07
4.91318e-06
-1.82543e-06
-8.20293e-07
2.01444e-06
-2.81799e-06
3.22622e-06
-1.47694e-06
8.57822e-07
1.41065e-06
-7.91529e-07
2.86647e-06
2.24366e-07
-4.56778e-06
1.25467e-06
2.46962e-06
-2.75526e-06
-2.22917e-07
4.38882e-06
-1.35202e-06
-2.19476e-06
2.16798e-06
-3.29564e-06
3.19973e-06
-1.05268e-06
-1.38384e-06
1.12784e-06
1.30869e-06
-5.67579e-07
2.89069e-06
-3.37579e-06
2.753e-06
-4.70442e-06
3.42831e-07
-2.3513e-06
3.13631e-06
-2.09995e-06
3.75147e-06
-4.80175e-07
1.27091e-06
-7.84769e-08
1.16993e-05
-1.04971e-07
-1.14526e-05
-1.41769e-07
-1.39464e-05
-9.67492e-06
3.53206e-05
-1.36559e-05
-3.95461e-07
1.31271e-05
9.46819e-06
-3.40479e-05
1.35441e-05
-5.58708e-07
-8.04585e-06
1.1915e-05
-1.22335e-05
-1.04986e-05
-5.71752e-06
1.32501e-06
1.48911e-05
4.35125e-06
-3.57341e-06
-1.12764e-05
4.92034e-06
-6.28662e-06
-1.52374e-05
4.25102e-06
1.59067e-05
2.14102e-06
-2.3665e-05
7.59924e-06
-9.03163e-06
1.31753e-05
-9.30388e-06
-2.96458e-06
-1.21973e-05
2.44658e-05
7.06075e-06
-8.17862e-06
-8.18601e-06
-1.49437e-05
1.90399e-05
1.09979e-06
1.58018e-05
-2.50802e-05
2.07617e-05
-2.78479e-05
6.02971e-06
-5.17166e-06
1.4594e-05
-1.24866e-06
-9.77371e-08
2.80059e-06
-1.45419e-06
2.01492e-06
1.99518e-06
-5.25876e-06
-3.19418e-07
2.2366e-06
1.07919e-06
-2.04481e-06
6.46204e-07
-1.23999e-06
4.55577e-06
4.78884e-07
-5.28513e-07
2.03949e-06
1.85627e-06
3.39068e-06
1.70043e-06
-6.94738e-06
-3.94368e-07
-3.75163e-07
2.6258e-06
7.3852e-06
-4.38889e-06
7.29139e-07
1.80702e-07
-1.285e-06
-6.5748e-07
4.01242e-06
9.44652e-08
5.90214e-07
-5.03977e-07
-2.49673e-06
1.93372e-06
-2.20261e-06
7.09108e-06
8.80288e-08
-3.46564e-07
-1.44242e-06
-3.88799e-06
7.55385e-06
-3.39669e-06
-1.40496e-06
4.87128e-07
1.61913e-06
-7.01294e-07
2.52903e-07
-1.89354e-06
2.35676e-07
1.9762e-06
-1.23617e-06
5.72426e-07
-5.08666e-07
1.55537e-06
1.90048e-06
-2.02935e-06
-2.931e-07
3.00039e-07
1.17443e-06
1.48102e-06
1.14623e-06
-1.08704e-06
-1.54021e-06
-4.28256e-06
6.93801e-06
-4.3725e-06
-4.04879e-06
-4.83579e-06
-1.21178e-06
4.08939e-07
-6.49613e-07
1.45246e-06
1.98136e-06
-8.86737e-07
-2.3064e-06
6.31548e-07
1.75875e-06
1.5009e-06
-6.36873e-07
-2.32483e-07
-6.86619e-07
3.94627e-06
1.50808e-06
-3.03169e-06
1.71846e-07
-4.54534e-06
1.15129e-05
3.74251e-06
-1.07101e-05
2.03051e-05
-9.39878e-06
-1.54516e-05
-3.45767e-06
3.52757e-05
-1.81134e-05
9.37909e-06
1.24768e-05
1.07787e-06
-2.99014e-05
1.49785e-05
-2.32994e-05
2.08999e-05
4.73771e-06
1.38558e-06
-4.84167e-06
-1.28163e-06
-5.12113e-06
-5.00219e-06
1.4861e-05
-7.39889e-06
3.66334e-06
5.50189e-06
5.80474e-06
-1.61483e-05
7.13718e-06
-2.91691e-06
-5.08751e-06
7.2225e-06
-6.68166e-06
5.01102e-06
5.32412e-07
-5.11569e-06
-4.27739e-07
-4.37881e-06
-4.15322e-06
1.3543e-05
-5.21461e-06
1.36821e-06
6.48258e-06
5.90304e-06
-1.75013e-05
6.59023e-06
-5.35393e-07
-2.30775e-06
4.74476e-06
-1.61932e-06
3.23318e-07
-1.28407e-06
-6.38675e-07
1.59943e-06
-1.82701e-06
9.0132e-07
1.24901e-06
-2.3023e-07
-2.88085e-06
2.67437e-06
-3.39515e-07
-2.97353e-06
1.66304e-07
4.10749e-06
-1.7693e-06
2.83692e-06
-2.33904e-06
6.63925e-07
-1.02447e-06
-2.60472e-06
2.96527e-06
-1.76765e-06
-2.66062e-06
5.09219e-06
-1.08093e-06
-1.71119e-06
-6.14142e-07
3.04033e-06
-3.50711e-06
2.85047e-06
-5.1758e-06
-2.68217e-08
4.06534e-07
2.18928e-07
1.71835e-06
-8.91422e-07
-1.76457e-06
9.37647e-07
-3.3815e-06
-4.42251e-07
5.5421e-06
-1.55251e-06
-2.72041e-06
3.014e-06
3.14482e-07
-5.09306e-06
1.37285e-06
2.5788e-06
-2.16472e-06
3.09532e-06
-3.40275e-06
-3.48449e-06
-2.37193e-06
-1.29103e-06
7.14746e-06
3.72254e-07
-2.85005e-06
-1.00669e-06
-2.40519e-06
4.05509e-07
3.58819e-06
1.28488e-06
-7.27826e-06
2.76325e-06
1.23045e-06
3.03018e-06
-4.59535e-06
4.50239e-06
-1.82903e-06
-2.35985e-06
-1.35969e-06
5.54857e-06
-1.9013e-07
-1.81869e-06
1.79785e-07
-2.40062e-06
-1.49365e-07
5.0862e-06
4.82075e-06
-1.23076e-05
4.74483e-06
1.92012e-07
-9.23083e-07
4.30823e-06
2.07898e-06
-8.95337e-08
2.54574e-06
-2.70652e-06
2.5031e-07
2.03585e-06
-2.05451e-06
-7.08722e-08
-1.11734e-06
5.69894e-06
2.98808e-06
1.5379e-06
-6.5805e-06
3.10285e-06
-1.85635e-07
3.18362e-06
-4.35224e-06
5.16912e-06
-1.74675e-06
-1.48528e-06
-9.46793e-07
4.17882e-06
1.39264e-07
-1.48888e-06
-3.97128e-07
-1.48702e-06
1.41003e-07
2.08468e-06
1.12886e-06
-4.70056e-06
1.73426e-06
4.91422e-07
1.14151e-06
-1.50153e-06
1.92898e-06
-2.08223e-06
-1.40558e-06
-1.11694e-06
4.60475e-06
2.08891e-07
-1.57955e-06
-7.11579e-07
-1.39811e-06
2.01423e-07
1.63958e-06
6.92627e-07
-3.73032e-06
1.26486e-06
5.76139e-07
1.02179e-06
-1.90871e-06
1.16972e-06
-3.90326e-07
-5.2276e-07
5.23381e-07
3.89705e-07
-1.1785e-06
1.14781e-06
-3.5963e-07
8.33383e-07
-2.53465e-06
5.74298e-07
-1.1427e-06
1.09179e-06
-5.0622e-07
1.47022e-06
-1.53891e-06
2.1805e-06
-1.84823e-06
6.48137e-06
-5.85763e-06
1.6836e-05
-1.74597e-05
-1.002e-05
8.94279e-06
7.55858e-06
1.54719e-05
-3.13495e-05
-3.47972e-06
-1.40395e-05
2.6462e-05
-1.78254e-05
2.19043e-05
-6.5043e-06
9.30078e-06
-8.85782e-06
-1.53846e-05
-3.9645e-06
9.12028e-06
1.02289e-05
1.01345e-05
3.80198e-06
-2.93211e-05
-3.65337e-06
9.82335e-06
1.76137e-05
-1.04463e-05
-1.08208e-05
-4.30416e-06
3.17412e-05
1.15653e-05
-1.82097e-05
1.63815e-05
-4.92591e-06
-8.5422e-06
-9.57551e-06
2.30436e-05
-3.59724e-06
-1.10947e-05
9.76605e-06
-3.52265e-06
-8.61679e-06
-5.98922e-06
1.28458e-05
-1.03792e-05
1.24209e-05
-2.7027e-05
2.20091e-06
-8.74683e-07
5.47116e-06
4.27777e-07
1.96754e-06
-3.18399e-06
7.88676e-07
3.11216e-06
-3.32817e-06
6.4378e-07
-1.77197e-06
6.85168e-06
4.51954e-06
1.19082e-06
-9.03853e-06
4.56103e-06
6.02293e-07
-1.93601e-06
4.72506e-06
-3.92918e-06
-4.38658e-06
-3.10249e-06
-2.32741e-06
9.81648e-06
1.53275e-06
-3.95802e-06
-1.96132e-06
1.26778e-06
-2.83751e-06
-2.327e-06
3.63146e-06
-3.66715e-08
2.34968e-06
-7.5142e-06
1.83408e-06
-3.44242e-06
3.13812e-06
-7.77319e-07
1.39562e-07
9.93609e-07
-3.55852e-07
-1.10711e-06
4.01759e-07
-7.19668e-08
6.47686e-07
-1.61524e-06
-1.22886e-06
6.84913e-07
1.53756e-06
-1.68147e-06
9.67554e-08
-5.49e-07
-7.30709e-07
7.83599e-07
-1.18668e-06
-1.26784e-06
1.07473e-06
1.37978e-06
-8.40137e-07
1.99533e-07
-5.46071e-07
2.46424e-07
-2.3544e-06
2.01778e-06
-2.36931e-06
1.42626e-06
-4.17397e-07
3.81496e-06
-3.86847e-07
1.68983e-07
-2.50973e-06
-6.77978e-06
5.51885e-06
7.28641e-06
-6.02548e-06
1.43566e-05
-1.60197e-06
-1.95345e-05
4.29305e-06
1.55824e-05
-1.56896e-05
2.07005e-06
2.09059e-05
-3.6362e-06
-1.80788e-05
1.12248e-05
-1.6463e-05
1.75879e-05
-1.55978e-05
-2.94824e-08
1.63618e-05
-7.34584e-07
1.34229e-05
1.02576e-05
-3.92783e-05
-3.26857e-07
1.37203e-05
1.81284e-05
-1.81381e-05
-3.17146e-07
-1.08173e-05
4.2666e-05
1.39089e-05
-2.17893e-05
1.94534e-05
2.61572e-07
-1.8938e-05
1.94516e-05
-7.75172e-07
-1.5275e-05
1.53613e-05
1.7526e-07
1.1525e-05
-4.5738e-05
-1.90993e-05
-1.16522e-05
4.61127e-05
-1.94461e-05
5.22114e-07
-1.56075e-05
2.34069e-05
-2.35286e-05
-9.7555e-06
-2.4053e-06
3.83135e-06
8.32945e-06
5.18789e-06
-5.37074e-07
-1.44063e-05
-2.87418e-06
5.65678e-06
1.00938e-05
-2.96414e-06
-1.00039e-05
-2.24179e-07
1.59748e-05
7.27337e-06
-1.07746e-05
1.08805e-05
4.10107e-06
1.75543e-06
-7.53238e-07
-5.10327e-06
-1.6794e-06
8.68264e-07
4.91221e-06
-1.61526e-06
1.69129e-06
3.9328e-06
-9.15145e-07
-4.63292e-06
5.44321e-07
5.07977e-06
-2.8632e-06
4.27578e-06
-4.53158e-06
-3.44308e-06
-2.00324e-06
-3.85007e-07
5.83133e-06
9.29231e-07
-1.77329e-06
-2.59902e-06
-2.05016e-06
9.76152e-07
3.91768e-06
5.49721e-07
-6.51757e-06
1.8498e-06
3.04403e-06
2.72945e-06
-3.95302e-06
4.19425e-06
-2.44844e-06
-6.94736e-08
2.2155e-06
3.02414e-07
2.4391e-06
1.59446e-06
-6.48201e-06
2.25737e-06
1.12254e-07
-4.2446e-06
-3.38846e-06
9.84857e-06
-4.36551e-06
4.23319e-07
2.01635e-06
-4.78739e-06
8.85266e-07
1.73733e-07
4.01343e-06
-4.07491e-06
3.15637e-06
-3.44646e-06
4.63821e-07
8.05507e-06
4.9727e-06
-1.55296e-05
-3.26115e-06
2.68555e-06
2.53017e-07
-2.77535e-06
-1.63223e-07
-2.33381e-06
-9.21174e-07
5.94054e-06
-2.41419e-06
3.33397e-07
6.28599e-06
5.70961e-06
-1.47709e-05
6.11433e-06
8.42799e-09
-2.77951e-06
7.97267e-06
5.15907e-07
3.66645e-06
3.59722e-07
-3.69278e-06
-2.70058e-06
-4.26074e-06
4.06118e-06
5.59281e-07
-7.43761e-06
9.33328e-06
-6.84813e-06
-2.19345e-06
-4.20658e-06
1.32482e-05
-6.53162e-08
-7.20992e-06
4.27105e-07
1.10574e-05
-1.39591e-05
1.23994e-05
-1.25943e-06
1.4981e-07
1.26829e-06
-1.58679e-07
1.39188e-06
6.73768e-07
-3.32507e-06
1.09308e-06
4.48604e-07
-1.80952e-06
-1.08662e-06
4.16444e-06
-1.41018e-06
-5.58022e-07
7.21485e-07
-1.4579e-06
7.27946e-07
-9.7865e-07
-2.55894e-07
3.16476e-07
9.18068e-07
1.12891e-06
1.34147e-06
-3.44904e-06
2.0237e-06
-1.15068e-06
8.51385e-07
-1.66742e-06
1.13251e-06
-1.09699e-06
2.86645e-06
1.25714e-06
-1.58309e-06
2.18385e-06
-7.85855e-07
-3.86716e-07
7.39351e-07
4.33221e-07
2.69826e-07
7.83756e-07
-1.83944e-06
1.02306e-06
-1.13995e-06
-3.55217e-07
-1.18938e-06
2.28394e-06
-1.53245e-06
1.61045e-06
3.40806e-07
-1.0895e-06
1.74496e-07
5.89136e-07
1.09443e-06
-1.46277e-07
-1.53729e-06
4.38137e-07
-4.71974e-07
6.22973e-07
3.92616e-07
1.59454e-06
-3.91545e-07
-1.67497e-06
7.20123e-08
2.1455e-06
-9.98259e-07
1.46289e-06
-1.53608e-06
-2.33333e-06
-1.45193e-06
-2.70284e-06
6.48811e-06
1.43046e-06
-2.7757e-06
-9.88091e-07
-3.95126e-06
3.92979e-06
3.15602e-06
4.20826e-06
-1.014e-05
5.02515e-06
-2.85722e-06
2.5893e-06
-2.3323e-06
4.91161e-06
3.68461e-06
4.02735e-06
2.96371e-06
-1.06757e-05
-4.58272e-07
3.55772e-06
5.85159e-07
4.66407e-06
-1.09499e-06
-4.14422e-06
-3.46051e-06
1.11624e-05
-5.17075e-06
1.61169e-06
-3.56798e-06
4.77155e-06
-5.77502e-06
3.21047e-06
-1.6073e-06
-3.12863e-06
1.52545e-06
-5.58514e-06
-3.75951e-07
9.17156e-06
-2.52461e-06
-4.66782e-06
4.77634e-06
2.78654e-07
-8.18362e-06
2.09604e-06
4.20575e-06
-4.05243e-06
5.77252e-06
-6.29839e-06
-8.58904e-06
-4.02913e-07
6.03333e-06
2.95863e-06
5.76767e-06
3.83753e-06
-1.81942e-05
1.3871e-08
5.35089e-06
6.92026e-06
-6.32801e-06
-5.78376e-07
-3.94575e-06
1.62169e-05
5.41701e-06
-7.9075e-06
7.50459e-06
-3.82975e-07
-3.17467e-06
2.04643e-07
3.35301e-06
-4.37151e-06
3.89817e-06
9.03651e-08
3.55623e-06
-1.11024e-05
4.01841e-06
-3.61516e-06
-1.98605e-07
-1.78864e-06
9.16006e-06
-3.39986e-06
5.50938e-06
-3.45879e-06
6.34225e-06
-6.64872e-06
1.07862e-07
-7.03347e-06
2.25358e-05
8.22782e-06
-1.83353e-05
7.85965e-06
4.76025e-07
6.33557e-06
1.53986e-06
3.04293e-06
2.5822e-06
-7.16499e-06
1.63605e-06
4.47983e-06
-4.57602e-06
1.29553e-06
3.38346e-06
2.03287e-06
-2.87872e-06
2.14138e-06
-3.67441e-06
9.09074e-06
-9.33768e-07
1.73919e-06
-1.23029e-06
2.40869e-06
-2.26508e-06
-7.11184e-06
6.96823e-06
-3.51454e-06
-5.1471e-06
1.10703e-05
-1.89204e-06
-3.88758e-06
-2.74408e-06
5.65865e-06
-4.80662e-06
4.74374e-06
-1.13754e-05
-3.10267e-06
3.61423e-06
-5.47078e-06
1.45553e-06
8.64679e-07
-2.03156e-06
-2.88643e-07
1.75288e-07
1.91968e-07
1.08827e-06
1.01746e-06
2.25081e-08
-3.404e-06
1.04292e-06
3.37854e-06
8.16219e-07
-4.19771e-06
-2.17516e-06
3.41005e-06
-3.3905e-06
4.50031e-06
-2.30933e-06
1.1303e-06
-3.32128e-06
-8.84374e-06
-7.87217e-08
1.34228e-05
-2.10268e-06
-9.05039e-06
-4.71042e-06
1.59808e-06
4.24264e-06
-3.87383e-07
-7.64432e-06
-4.59431e-06
6.11366e-06
-7.08437e-06
2.06302e-06
3.56818e-07
-3.36907e-06
9.49235e-07
-3.55719e-06
1.89948e-06
3.72073e-06
5.79732e-07
-3.7801e-06
8.09212e-07
-8.77229e-07
6.4775e-07
3.58466e-06
-6.55555e-06
-5.7108e-08
1.07936e-06
1.58476e-07
-1.53579e-05
-1.52239e-05
-9.73341e-06
4.03152e-05
-1.34997e-06
-9.36591e-06
-4.64204e-06
-1.52364e-05
-1.33742e-06
1.72511e-05
9.27484e-06
-4.17623e-05
1.69138e-05
-1.00017e-06
9.89442e-06
-9.98548e-06
1.70748e-05
1.52709e-05
6.19401e-07
-1.525e-05
-6.40285e-07
-1.63402e-05
-1.26213e-05
4.42324e-05
-1.77548e-05
2.03396e-06
1.72357e-05
1.43781e-05
-4.68638e-05
1.92367e-05
-2.64124e-06
-9.91866e-06
1.6534e-05
-1.32953e-05
4.03697e-06
-9.67304e-07
-7.5942e-06
4.52453e-06
-4.39524e-06
-4.73056e-06
1.31628e-05
-3.29725e-07
-5.03282e-06
-5.76746e-06
6.81903e-06
-1.3813e-06
7.11622e-06
-1.79165e-05
-2.84502e-06
4.93349e-06
-3.323e-06
1.72936e-06
-4.5762e-07
-1.57048e-06
2.98736e-07
-3.15397e-06
-5.53612e-07
5.43694e-06
-1.23749e-06
-2.3741e-06
2.94483e-06
7.48088e-07
-5.26339e-06
1.71989e-06
1.52367e-06
-2.25502e-06
3.4213e-06
-2.74442e-06
-3.07575e-06
-1.62195e-07
2.69494e-06
5.43008e-07
3.01662e-06
2.03618e-06
-8.12855e-06
2.76505e-06
8.93715e-08
-4.60567e-06
-3.80024e-06
1.11008e-05
-4.78804e-06
7.25379e-07
2.27946e-06
-5.03132e-06
1.24428e-06
2.46071e-07
4.63547e-06
-4.79217e-06
3.47277e-06
-3.88723e-06
6.60536e-07
9.35251e-06
6.21956e-06
-1.91403e-05
-2.699e-06
-3.68647e-07
2.3665e-06
4.01628e-07
-2.39948e-06
3.47425e-06
-2.84596e-06
-9.96937e-07
-1.29165e-06
7.13239e-06
-3.57517e-06
2.75958e-06
1.21722e-06
1.28585e-06
-7.2605e-06
3.02043e-06
-4.58054e-06
4.48837e-06
-2.02866e-06
-5.1695e-07
2.00486e-06
5.40755e-07
1.43253e-06
2.13625e-06
-5.59744e-06
2.29696e-06
-1.38138e-06
-1.78368e-06
-2.70939e-06
6.49793e-06
-2.96587e-06
1.72295e-06
4.26162e-07
-1.25579e-06
1.37391e-08
-1.84934e-06
-5.00852e-07
1.80889e-06
5.41292e-07
1.52791e-06
2.15757e-06
-5.53482e-06
2.49765e-06
-1.47059e-06
-1.5199e-06
-2.15951e-06
5.48831e-06
-2.60868e-06
1.63007e-06
8.07931e-07
-1.25903e-06
1.14606e-06
-1.63979e-08
2.82857e-06
-2.78721e-06
-2.49582e-08
4.27681e-06
-4.08751e-06
-2.05692e-07
-4.22157e-06
-5.58139e-06
1.43758e-06
-8.3123e-06
-4.17695e-06
-6.9578e-08
-8.32076e-06
-1.2091e-06
-1.99419e-06
-2.37535e-07
3.44083e-06
1.08413e-07
-1.0459e-06
-2.71618e-07
5.57815e-08
-1.94156e-06
1.67424e-06
-2.57573e-06
-1.44417e-07
-3.60617e-06
5.04288e-06
-3.61997e-06
-8.13726e-06
-3.599e-06
-5.07596e-06
-2.96627e-06
-9.04351e-07
-8.18665e-06
-1.23566e-05
-1.01763e-05
-1.04724e-05
3.30052e-05
-3.53407e-07
-1.29564e-05
9.53216e-07
-9.99322e-06
-5.36452e-07
9.72954e-06
7.62268e-06
-2.73454e-05
1.06187e-05
-1.42562e-06
5.4813e-06
-1.0815e-05
5.62766e-06
3.16925e-08
1.94382e-08
-1.50169e-06
1.45056e-06
-1.27875e-06
-8.14871e-07
2.12531e-06
-4.94804e-07
-7.64502e-07
7.76143e-07
3.00186e-08
-1.30097e-06
-2.72022e-07
2.83663e-07
4.45218e-08
-8.29373e-07
-1.72919e-06
5.81498e-07
-7.28881e-07
-5.31396e-07
6.78778e-07
-1.66929e-06
5.68181e-07
1.68261e-06
-4.74845e-08
-2.35069e-06
1.44509e-06
-5.42952e-07
-1.43353e-06
3.07926e-08
2.09307e-06
-1.19543e-06
1.79441e-06
-1.78587e-06
8.17027e-07
-1.52908e-07
1.90081e-06
-2.56493e-06
-1.06367e-06
8.33935e-07
1.04677e-06
2.01469e-06
-3.23127e-06
1.67779e-07
-1.85685e-06
2.523e-06
-1.96652e-06
3.18106e-06
-2.71371e-07
4.29208e-07
-3.37085e-07
-4.08855e-06
-1.90386e-06
2.4108e-07
5.75132e-06
1.47746e-06
-1.85755e-06
-3.70845e-06
-2.19173e-06
1.76533e-06
5.57002e-06
1.85276e-07
-7.94703e-06
1.47222e-06
5.86313e-06
3.48424e-06
-5.15651e-06
5.19754e-06
9.13745e-07
4.68878e-06
-4.87564e-07
-5.11496e-06
4.74215e-06
-6.36472e-06
2.53631e-06
-3.83578e-06
1.32667e-05
-6.68626e-06
7.06162e-06
-8.62921e-07
5.37181e-06
-1.7173e-05
4.85801e-06
-5.85092e-06
8.08385e-06
6.48121e-06
3.33611e-06
-5.66801e-07
-9.25053e-06
-1.50231e-06
2.69056e-06
5.29297e-06
3.29788e-06
-1.46408e-06
-4.95688e-06
-5.29938e-07
8.7847e-06
-1.91109e-06
-4.50987e-06
-4.44142e-06
6.60203e-06
-6.91931e-06
9.91598e-06
6.67285e-06
3.608e-06
-2.01968e-05
-7.8688e-07
7.73211e-06
2.97075e-06
6.35248e-06
-4.66516e-07
-8.75853e-06
-3.42154e-06
1.85326e-05
-7.66014e-06
-1.56491e-06
-8.42022e-06
1.27308e-05
-1.24724e-05
-1.99618e-06
-1.04462e-06
3.27254e-07
2.71355e-06
2.0227e-07
-5.62823e-07
-1.63563e-06
-8.11019e-07
-3.13304e-08
1.66523e-06
1.26583e-07
-2.60283e-06
6.329e-07
1.001e-06
1.62463e-06
-2.06087e-06
2.58479e-06
1.44483e-06
-3.11944e-06
-2.25879e-06
3.9334e-06
-4.59956e-06
1.434e-06
4.61038e-06
-4.32771e-07
-7.28622e-06
7.66683e-06
-2.23113e-06
-7.69449e-06
-1.82852e-07
1.17831e-05
-4.14155e-06
5.3927e-06
-6.80545e-06
-5.85332e-06
6.97342e-07
5.01471e-06
1.41275e-07
1.16084e-05
4.76733e-06
-2.22291e-05
1.0394e-05
1.91175e-06
-1.53792e-05
-1.65608e-05
4.23341e-05
-2.0282e-05
6.8145e-06
-3.20936e-06
-8.33673e-06
-1.8724e-05
6.91573e-06
2.52641e-08
-7.94475e-06
1.00375e-06
-1.11148e-05
-4.1554e-06
2.21859e-05
-1.28472e-05
1.75768e-06
6.44054e-06
-2.90186e-05
1.46333e-05
-2.55676e-05
2.78527e-05
3.11471e-05
-7.30128e-05
7.33715e-06
9.22879e-06
2.36559e-05
-5.51138e-05
1.03333e-06
5.96524e-06
-3.17857e-06
1.47306e-06
2.08258e-06
-3.77075e-07
6.83681e-06
1.27734e-06
-1.12927e-05
6.5017e-06
1.80817e-06
-4.87695e-07
-3.92445e-06
6.49473e-06
-4.45949e-06
3.59472e-06
3.40319e-06
-6.58534e-06
5.98043e-06
-1.34776e-05
-1.34683e-05
-8.63327e-06
3.55792e-05
2.42803e-08
-1.35588e-05
5.69695e-08
-1.33811e-05
-6.29192e-08
1.79672e-05
1.34959e-05
-4.48443e-05
1.84306e-05
-5.26232e-07
9.70393e-06
-9.76685e-06
1.95012e-05
1.64402e-05
2.01465e-05
1.24425e-05
-4.90293e-05
5.30672e-07
1.67701e-05
-8.60515e-07
1.98023e-05
8.74904e-07
-1.99088e-05
-1.26259e-05
4.93048e-05
-1.94066e-05
-1.36271e-06
1.3861e-05
-2.08252e-05
2.10374e-05
1.54873e-05
1.89052e-05
9.84193e-06
-4.42345e-05
2.16531e-07
-5.90005e-07
1.58608e-05
1.78397e-05
1.28204e-06
2.01532e-05
-1.76215e-05
-3.12162e-06
-1.1466e-05
4.74799e-05
-1.42192e-05
2.05929e-05
-2.19988e-05
1.84414e-06
2.34602e-06
-1.56951e-06
-2.62065e-06
6.44693e-07
-3.79668e-06
4.99613e-06
-3.45285e-06
6.44357e-06
-8.46274e-07
3.15279e-06
-3.87602e-06
4.14026e-06
-7.60718e-06
-2.93641e-07
6.37212e-07
-5.93704e-07
-1.96024e-06
-5.06896e-06
-1.43542e-06
8.46462e-06
-1.09509e-07
-2.06705e-06
2.16326e-07
-5.18545e-06
6.97955e-09
-1.68897e-06
-8.13849e-06
8.39203e-06
-7.21245e-06
3.45643e-06
9.13902e-06
-2.15369e-05
1.00752e-06
3.09279e-06
5.79965e-07
-7.58286e-06
1.38913e-06
-1.81162e-06
-1.98479e-06
-2.46703e-06
6.26344e-06
-6.23789e-07
-3.11979e-06