/*--------------------------------*- C++ -*----------------------------------*\
| =========                 |                                                 |
| \\      /  F ield         | OpenFOAM: The Open Source CFD Toolbox           |
|  \\    /   O peration     | Version:  v2012                                 |
|   \\  /    A nd           | Website:  www.openfoam.com                      |
|    \\/     M anipulation  |                                                 |
\*---------------------------------------------------------------------------*/
FoamFile
{
    version     2.0;
    format      ascii;
    class       volScalarField;
    location    "0.1";
    object      alpha.water;
}
// * * * * * * * * * * * * * * * * * * * * * * * * * * * * * * * * * * * * * //

dimensions      [0 0 0 0 0 0 0];


internalField   nonuniform List<scalar> 
6576
(
1
1
1
1
1
1
1
1
1
1
1
1
1
1
0.999999
1
0.999999
1
1
1
1
1
1
1
1
1
1
1
1
1
1
1
1
1
0.999999
0.999998
0.999998
1
0.999998
1
0.999998
1
1
0.97348
0.815855
0.969397
0.588703
0.98447
0.999995
0.990376
0.999995
0.999995
1.31421e-64
6.94498e-64
1.30038e-64
2.39248e-64
6.92681e-65
1.02464e-65
5.80988e-64
1.54534e-59
8.06064e-60
1.54612e-59
1.06918e-58
8.57569e-59
5.21341e-59
1.38133e-59
1.78314e-47
1.03453e-49
2.47449e-49
3.39061e-50
3.45914e-49
3.13726e-50
3.79751e-51
1.79082e-16
6.28686e-16
1.57936e-15
8.97097e-16
2.99651e-17
1.77977e-15
3.83583e-15
1.32819e-20
5.93498e-22
5.54181e-21
3.16902e-20
2.73904e-19
1.12041e-20
2.55359e-19
9.90049e-06
9.74504e-06
2.74243e-05
8.47329e-05
0.000637461
2.81971e-05
1.61684e-05
0.994533
0.981887
0.988404
0.704503
0.924402
0.995527
0.974784
1
1
1
1
1
1
1
1
1
1
1
1
1
1.9267e-06
-1.61182e-85
1.71314e-07
1.2001e-13
8.04869e-16
5.79079e-08
6.96938e-14
0.185494
0.775099
0.718819
0.938091
0.899212
0.999667
0.9868
0
0
-2.30637e-51
0
1.49584e-26
4.09375e-09
1.15862e-26
6.35385e-31
1.0632e-31
4.4697e-31
3.27187e-30
3.1211e-31
1.27855e-31
2.8382e-31
3.12575e-27
7.80711e-27
8.88977e-27
1.3998e-24
1.28389e-26
5.25674e-26
3.59361e-27
1.38765e-30
1.09739e-30
2.03766e-29
1.09739e-30
9.42366e-31
1.85111e-31
4.88756e-28
2.39232e-24
1.07555e-23
4.22022e-23
6.09178e-25
1.89054e-24
3.79999e-23
3.89644e-22
1.47594e-24
3.32543e-23
4.79248e-26
7.40023e-26
1.46521e-26
2.51108e-24
6.37916e-28
1.78793e-27
3.1523e-27
2.47797e-21
4.11564e-21
2.50448e-21
5.5006e-21
4.1726e-21
7.73222e-21
6.39251e-18
6.29947e-21
5.59942e-21
8.69054e-15
1.25661e-12
7.44571e-12
1.58177e-12
1.31566e-12
5.0752e-12
1.5915e-11
6.41889e-12
5.10979e-12
1.31804e-12
3.90489e-14
3.22533e-13
3.70905e-14
4.60234e-13
3.78269e-15
1.51125e-14
9.11593e-10
6.79806e-11
5.26843e-10
1.94949e-09
2.42957e-09
1.59046e-10
3.9149e-10
4.81692e-13
4.64829e-10
6.82597e-11
6.77098e-14
3.04785e-14
2.81271e-09
5.9053e-09
6.0607e-11
6.59036e-08
1.08624e-06
2.035e-09
2.12914e-06
6.0607e-11
9.74948e-10
7.13362e-17
7.14331e-17
7.18343e-17
3.63086e-16
4.46862e-18
3.56375e-15
7.54894e-15
2.17849e-18
3.73807e-16
2.17849e-18
1.21283e-15
8.92964e-18
2.17849e-18
2.17849e-18
1.55112e-16
4.14392e-16
9.42256e-17
5.65997e-18
2.25656e-15
4.0435e-15
5.29171e-16
5.95634e-21
2.48061e-21
8.9177e-21
6.60658e-22
6.81512e-22
2.9906e-21
1.33455e-21
1.44303e-26
7.758e-26
1.52637e-26
1.44303e-26
1.44303e-26
1.84463e-25
1.75683e-25
4.7517e-27
1.13167e-27
3.91395e-32
8.69609e-32
2.1922e-32
4.91433e-28
1.3459e-31
8.91157e-31
1.48688e-29
2.76895e-49
3.69956e-49
1.86869e-45
1.80839e-49
3.26614e-51
1.29012e-47
1.14284e-47
1
1
1
1
1
1
1
1
1
0.995115
0.990446
0.991099
0.998451
0.998554
0.988557
0.849363
6.78857e-05
0.000185533
0.000303502
0.000463549
0.000502483
0.00055512
0.000449998
0.000529692
0.00125162
0.993463
0.998559
0.997295
0.00850464
0.00714174
0.0150628
0.00716864
0.0139626
0.0150608
0.00886461
4.03873e-39
5.09744e-39
1.8858e-39
6.67932e-39
4.49411e-40
9.38931e-40
2.45322e-39
0.0379103
0.0226132
0.0368196
0.00883378
0.0241479
0.00258646
0.0286671
0.0388389
0.0031364
3.30953e-31
8.30783e-31
1.06064e-31
3.99681e-32
1.75533e-32
3.65111e-31
5.49408e-32
5.44558e-05
0.000581732
0.000170456
0.000582386
0.000523537
0.000300182
0.000355754
0.000216475
0.000129507
5.28446e-05
0.000469955
0.000226613
0.000213444
5.28114e-05
5.30114e-05
0.000856095
0.000337587
0.00494696
0.000757673
0.000339684
0.000345999
0.000270079
0.000285811
0.000296422
0.000443234
1
1
1
1
1
1
1
1
1
1
1
1
1
1
1
1
0.958299
0.582805
0.982852
0.995512
0.993602
0.921752
0.961163
0.000195832
0.00687722
0.0097409
0.036895
0.14329
0.00423079
0.000248055
2.21355e-21
1.16744e-19
7.49774e-21
7.03426e-18
7.86197e-20
8.62431e-20
2.5967e-21
1.55175e-21
3.28978e-24
1.13947e-28
2.39621e-25
3.41171e-28
3.41171e-28
4.7711e-29
4.49926e-27
2.28667e-28
6.26989e-17
2.01209e-18
1.88591e-19
4.15355e-17
6.90776e-20
3.11727e-19
1.00894e-19
2.28723e-19
5.37452e-19
0.000285548
0.000255723
0.000852897
0.000720111
0.000489348
0.000744714
0.00336205
0.00035112
0.000882165
0.000939667
0.000299379
0.00029789
0.000497244
0.000510772
3.39407e-35
1.86966e-30
4.06842e-35
3.39407e-35
3.38232e-35
2.33438e-35
1.71235e-36
1.84214e-36
1.98014e-36
4.04491e-37
4.69151e-37
3.57652e-37
1.39158e-37
1.98246e-37
5.03419e-45
4.29777e-45
2.88149e-45
3.5237e-45
4.17625e-45
2.88149e-45
2.78515e-45
2.47913e-51
5.86385e-55
4.95822e-55
3.43809e-55
3.2938e-55
9.02207e-55
1.71662e-53
3.10655e-55
5.80414e-55
2.61171e-57
6.90374e-58
1.03994e-65
1.29461e-67
9.74777e-66
1.08619e-65
8.39945e-64
1.58262e-72
8.76185e-69
2.91264e-71
2.15543e-72
6.65876e-73
6.85319e-72
8.83681e-72
3.52038e-72
3.52038e-72
1.99192e-69
1.83917e-72
2.14044e-71
1.83917e-72
1.25367e-72
4.3202e-66
1.74529e-64
1.52557e-64
3.50723e-66
4.97609e-65
1.26429e-65
3.46327e-66
2.78e-74
2.78e-74
9.23661e-74
6.02006e-68
3.29595e-70
1.45989e-63
2.12962e-73
4.16886e-65
3.50723e-66
3.50723e-66
1.30552e-66
9.10567e-68
9.77886e-74
3.71857e-59
1.2759e-59
3.71857e-59
8.02364e-60
1.43699e-58
6.79702e-54
1.43699e-58
2.96362e-60
1.88689e-60
2.76506e-60
1.98116e-59
8.02363e-60
4.26466e-60
3.45943e-60
3.49916e-64
2.51024e-56
1.1075e-59
1.6336e-55
2.22865e-53
9.00003e-56
1.58824e-55
1.58824e-55
1.58824e-55
3.22927e-55
4.73047e-54
3.37013e-55
4.17052e-51
4.26108e-55
5.66582e-51
3.38332e-49
1.06901e-53
3.24068e-52
2.35096e-52
1.61022e-50
3.02857e-52
4.18842e-47
3.36568e-47
3.39276e-42
4.18962e-47
4.18853e-47
4.24173e-41
7.0628e-42
3.66999e-42
3.66999e-42
3.66999e-42
3.66999e-42
3.66999e-42
9.26109e-39
1.61693e-38
3.62192e-38
6.47576e-37
8.17289e-35
1.61659e-34
8.80437e-35
5.03291e-31
1.52325e-31
6.24495e-34
7.35801e-35
2.72446e-29
3.05216e-29
5.68442e-29
2.72446e-29
2.72446e-29
7.72503e-29
1.70536e-28
1.20021e-31
4.35225e-32
2.4611e-32
3.17366e-30
1.00061e-29
1.12279e-27
2.44583e-27
9.1887e-26
2.57335e-24
1.69072e-25
1.20537e-25
9.61073e-28
2.36039e-18
3.51494e-18
1.4538e-18
5.4251e-19
5.535e-19
1.58214e-18
5.77117e-19
7.52705e-17
1.59982e-16
7.55864e-17
4.56917e-17
3.26268e-13
7.78186e-17
7.60666e-17
2.66764e-09
2.74435e-11
4.18e-11
3.50438e-09
7.31568e-10
9.89084e-08
2.74682e-08
4.47667e-12
3.98704e-12
3.86859e-12
6.54899e-11
2.26344e-12
5.13609e-12
7.49157e-12
3.33113e-16
1.53503e-15
8.52499e-17
3.76766e-20
3.21921e-18
8.99624e-19
1.05962e-18
1.03814e-15
1.02422e-18
9.70155e-17
5.668e-19
5.92587e-19
6.02688e-21
1.80997e-18
4.96731e-20
1.0851e-19
2.99841e-41
4.2064e-41
4.25277e-43
4.25277e-43
9.80177e-44
6.50582e-42
1.59331e-41
2.4095e-35
3.78031e-35
1.20621e-34
6.0005e-43
6.0005e-43
-4.80644e-38
6.12049e-43
2.53816e-27
3.74587e-27
1.44066e-28
1.30261e-28
5.38949e-28
3.19787e-26
4.14065e-27
1.73454e-17
2.74506e-17
5.39207e-17
2.89853e-17
9.1146e-17
4.18124e-16
7.92084e-17
5.0257e-11
2.59559e-13
7.29385e-15
6.4916e-15
1.33908e-14
1.5066e-11
3.88445e-15
1.22517e-13
1.35819e-14
7.71674e-19
7.99836e-19
1.04165e-17
4.35234e-18
2.55527e-18
2.29654e-18
2.43211e-18
1.43192e-18
2.01815e-18
3.51821e-12
9.27179e-11
2.6489e-12
2.5188e-12
1.18853e-11
1.96372e-12
3.38448e-12
6.91093e-13
2.50214e-12
1.61314e-12
1.97758e-11
2.27293e-11
1.40362e-11
7.33901e-11
1.19235e-11
6.85168e-13
1.31178e-06
0.000149993
7.18384e-07
2.85647e-06
7.22916e-07
5.2507e-07
0.0149919
0.00235884
0.00197739
0.00110144
0.00309074
0.000328227
0.000251718
0.000180347
0.000282897
0.000551981
0.000255939
0.000180476
0.0149919
0.00277212
0.00105137
0.00168201
0.00535308
0.0148674
0.0672662
0.014884
0.00172535
0.000334285
0.000316387
0.0133543
0.000334053
0.112768
0.00272438
0.000313997
0.00632397
0.000323858
0.000334174
0.000504633
0.995512
0.993273
0.977472
0.946616
0.60413
0.943664
0.942519
1
1
1
1
1
1
1
1
1
1
1
1
1
1
1
1
1
1
0.999992
1
1
1
1
1
1
1
1
1
1
1
1
1
1
1
1
1
1
1
1
1
1
1
1
1
1
0.999999
1
1
0.999989
0.999058
1
1
1
0.999931
0.999995
0.975171
0.986486
0.786798
0.991588
0.992161
0.93332
0.991796
0.937193
0.678411
0.978972
0.990556
0.990208
0.829815
0.976113
0.000521042
0.000261982
0.000252944
0.0012612
0.000503648
5.5119e-05
0.000519549
1.21344e-05
1.33905e-06
1.25829e-06
1.041e-05
1.36265e-06
7.3084e-06
5.62945e-05
1.44419e-09
1.24745e-09
5.69984e-08
1.50818e-10
1.26392e-07
7.13697e-08
4.24402e-06
6.76495e-08
7.78408e-07
2.12912e-07
1.31761e-05
3.09023e-05
1.18966e-06
1.3477e-06
6.82656e-08
3.56749e-08
3.53973e-12
1.4568e-10
5.28332e-12
1.54899e-09
1.73448e-11
1.02152e-12
1.02159e-12
1.45099e-12
1.20403e-12
2.18481e-27
1.78163e-25
2.1711e-27
8.66537e-27
2.89718e-23
8.10298e-29
8.10298e-29
1.03004e-23
1.19856e-23
4.32469e-22
4.17814e-24
1.78055e-24
3.77956e-23
4.66684e-24
2.42923e-19
1.54621e-18
1.19304e-19
2.80016e-20
5.56999e-19
5.55356e-20
5.72044e-20
6.55026e-26
6.55026e-26
2.31438e-26
1.40362e-24
5.61206e-27
3.75974e-43
2.85434e-42
6.54334e-44
5.66357e-43
4.68124e-42
6.54334e-44
2.37001e-44
1.25338e-50
9.21931e-51
2.66786e-47
9.21245e-53
5.87666e-51
6.28845e-47
6.22544e-48
1.82987e-63
8.36961e-60
7.06508e-62
1.10175e-63
9.43001e-66
3.4517e-62
5.0308e-62
5.21557e-75
1.48721e-72
1.16622e-72
5.03063e-75
5.21557e-75
5.03063e-75
5.57255e-75
6.7723e-69
2.80095e-61
8.55729e-63
1.49786e-67
2.49595e-72
4.38082e-67
2.76414e-69
7.22346e-75
7.22346e-75
1.15657e-66
7.22346e-75
7.22346e-75
5.09808e-74
7.55415e-75
3.99589e-68
1.51023e-74
7.55415e-75
1.54537e-74
2.22226e-61
1.10242e-68
5.11498e-67
1.23462e-67
1.35845e-67
1.96769e-66
1.55105e-66
1.29461e-67
1.02585e-65
1.9319e-66
1.05084e-72
8.32608e-72
6.16049e-73
1.36965e-58
1.73543e-58
8.32714e-58
1.0372e-58
2.95818e-55
2.36742e-57
1.29607e-60
1.6211e-52
1.33555e-52
5.68174e-52
1.31381e-51
9.96333e-51
6.92359e-53
4.6011e-53
2.43293e-46
5.64794e-47
5.78921e-47
3.6815e-45
3.06046e-45
7.04366e-46
2.97847e-46
3.97533e-47
2.30589e-47
5.56767e-47
1.02068e-43
1.04735e-43
1.04735e-43
8.41925e-44
5.56652e-39
2.81851e-39
3.19896e-44
5.28535e-41
7.28755e-42
1.1584e-35
5.28535e-41
2.03957e-35
9.08584e-35
3.88623e-33
2.24036e-34
2.70379e-34
2.06093e-34
2.06093e-34
2.06093e-34
7.61851e-33
5.65135e-33
1.29181e-28
9.37572e-30
7.61851e-33
1.62622e-27
3.17027e-28
5.82248e-25
6.12578e-25
8.79173e-25
4.95577e-25
8.74603e-25
1.28337e-22
6.88546e-23
1.10947e-26
1.12636e-26
1.1245e-26
6.67087e-22
2.89805e-25
1.06873e-27
3.74866e-27
1.23624e-22
4.37361e-23
2.23564e-25
1.388e-25
3.64283e-25
9.81517e-26
7.968e-26
2.72291e-25
1.08514e-25
2.07139e-16
4.46451e-17
4.38349e-17
3.79373e-15
1.74135e-15
3.30105e-18
2.19415e-18
1.10839e-12
5.07253e-13
3.17095e-12
1.05051e-12
2.69936e-12
2.70103e-12
5.12429e-11
2.81919e-12
2.16912e-09
1.10489e-09
2.12144e-09
2.12986e-09
3.46987e-10
7.66655e-10
3.46987e-10
9.04582e-10
1.20954e-09
1.53753e-09
1.81794e-09
3.81269e-10
3.5296e-10
1.06334e-08
1.88776e-08
3.27066e-09
9.49444e-09
7.15216e-11
1.64155e-09
9.55863e-11
7.6828e-12
2.49896e-09
8.95144e-28
1.04605e-26
8.52506e-24
8.95144e-28
6.66478e-28
1.47499e-26
1.70664e-27
3.11157e-27
2.79181e-26
2.76231e-26
9.92963e-27
2.60169e-27
4.07199e-26
5.09596e-25
3.40512e-29
6.8026e-34
8.03554e-32
6.62541e-35
2.92091e-35
3.61316e-32
8.002e-34
9.98869e-35
3.7236e-32
6.98723e-42
1.46954e-40
1.16061e-46
7.45646e-40
7.8409e-41
1.16061e-46
1.15475e-41
5.56453e-32
1.62674e-32
8.26683e-32
5.77359e-33
1.87773e-32
3.52916e-33
1.30626e-31
4.37455e-26
4.58982e-22
2.57266e-24
3.75097e-26
2.6657e-25
7.96777e-27
7.83734e-29
3.4173e-23
1.59495e-26
1.9892e-26
2.34065e-30
2.34065e-30
2.34065e-30
2.69735e-30
2.61006e-30
1.03478e-26
4.6431e-25
8.01952e-24
4.94577e-24
6.72515e-25
1.24676e-23
3.85551e-23
1.12642e-19
4.09649e-25
1.39623e-23
4.6431e-25
2.55527e-18
1.11606e-14
4.35234e-18
1.40362e-11
9.81444e-08
1.19616e-09
0.00364292
0.00118937
0.00106391
0.000372615
0.000582579
0.00383007
0.000390898
1
1
1
1
1
1
1
0.999991
0.999896
1
1
1
0.999999
1
1
1
1
1
1
1
1
1
1
1
1
1
1
1
1
1
1
1
1
1
1
1
0.850775
0.934644
0.989437
0.993908
0.990251
0.995307
0.964173
0.912835
0.784393
0.983601
0.993044
0.990875
0.945604
0.974775
0.000535371
0.00136099
0.000535371
0.00100579
0.0711153
0.00826957
0.034
0.000199615
0.000645234
0.000202245
0.000516521
0.000205395
0.00246416
0.000568745
1.22155e-14
9.60047e-14
6.57442e-16
6.60308e-20
7.46123e-16
5.78793e-19
5.73843e-15
3.30046e-27
9.27776e-28
1.75055e-26
6.42784e-26
4.98911e-26
7.9231e-27
1.01797e-27
3.38416e-22
2.06332e-22
1.16757e-21
5.07099e-21
8.43362e-21
7.82348e-22
1.55023e-21
1.19284e-16
1.43851e-18
1.39459e-19
8.38361e-18
2.66595e-19
7.86306e-20
5.9745e-19
1.26852e-17
2.05923e-18
3.40041e-17
4.71343e-17
4.46393e-14
2.65892e-17
3.79255e-18
3.17805e-31
6.76784e-32
3.11335e-28
4.08745e-31
4.19946e-34
9.62734e-33
4.76132e-32
8.72482e-43
1.00184e-38
4.89322e-40
1.03888e-43
2.67996e-41
1.75185e-41
8.44169e-43
1.0132e-47
3.5016e-49
1.19758e-49
7.57416e-50
2.68271e-48
1.85336e-49
1.86778e-48
1.78593e-54
8.03661e-54
5.74901e-54
4.12835e-54
1.35214e-52
3.69307e-54
1.78593e-54
2.65062e-61
1.33023e-61
5.45785e-57
8.7512e-64
1.33023e-61
1.1777e-59
1.23284e-59
3.14675e-59
2.26815e-64
6.4006e-59
1.60892e-59
7.80137e-63
1.37048e-59
2.41145e-61
1.52097e-62
2.06321e-61
4.54214e-68
4.63352e-64
3.13859e-67
6.35956e-68
9.25085e-69
2.18831e-67
8.63526e-68
8.88906e-66
7.7751e-64
3.03841e-65
3.45279e-66
1.73173e-64
1.09048e-67
2.78014e-68
2.71922e-73
2.71922e-73
2.71922e-73
5.96062e-72
1.0789e-72
3.28528e-70
4.41817e-68
8.84347e-72
3.80814e-73
5.02048e-73
1.29606e-72
1.78403e-68
3.80814e-73
1.29606e-72
1.0789e-72
5.96062e-72
1.55652e-70
5.9171e-72
3.80814e-73
3.80814e-73
1.07702e-71
1.14999e-69
5.03063e-75
8.79766e-60
1.17531e-59
1.24131e-59
1.42793e-59
1.65353e-60
2.59707e-59
2.46387e-59
9.04387e-54
1.26882e-55
9.44855e-55
2.63745e-53
1.2265e-51
1.37499e-55
5.33424e-58
3.76663e-58
5.64859e-61
2.48272e-58
1.56842e-56
2.48272e-58
3.06352e-52
6.14229e-52
3.57407e-53
4.15768e-52
4.15768e-52
1.04284e-50
7.28889e-49
4.77554e-48
1.09546e-47
5.75445e-51
8.2181e-48
8.15479e-49
2.27286e-49
8.15479e-49
3.05579e-37
1.36685e-38
1.38237e-38
6.33437e-37
1.10463e-36
1.64138e-33
5.70692e-30
7.98631e-37
4.01235e-33
3.37812e-36
1.26918e-38
7.98631e-37
6.56197e-37
6.312e-37
4.24163e-36
2.55837e-36
4.33997e-36
6.56197e-37
2.10433e-32
3.17371e-28
2.37397e-28
4.52699e-28
1.25433e-27
7.91603e-28
1.0493e-27
4.75365e-27
2.42129e-32
1.5813e-32
3.01296e-33
2.49143e-26
3.49131e-26
6.96583e-26
3.27099e-26
4.52505e-26
1.23098e-25
1.29132e-23
3.30867e-28
4.43568e-25
1.3706e-25
7.11967e-22
1.45165e-21
2.0325e-21
7.11967e-22
7.30561e-22
1.42439e-21
7.30556e-22
6.93373e-22
6.93373e-22
6.93373e-22
6.93373e-22
7.8969e-22
6.42576e-18
6.01026e-18
1.45659e-21
1.46992e-21
8.46707e-21
3.94408e-17
3.94408e-17
5.31133e-16
6.56089e-17
3.96203e-17
7.47871e-14
2.85052e-15
2.01317e-16
7.36368e-16
2.03725e-16
3.45081e-16
3.24983e-16
2.40563e-14
1.32556e-13
1.00624e-14
1.00624e-14
1.00624e-14
1.00624e-14
1.01648e-14
1.13042e-14
1.21002e-13
6.68883e-14
1.05781e-13
2.34704e-14
1.74217e-14
2.99556e-13
4.19247e-12
1.1515e-11
0.000502991
0.0031484
0.000765106
0.000428719
0.00154429
0.0024463
0.000475064
3.49781e-06
1.54974e-06
9.11993e-07
4.04837e-05
0.000125
2.63345e-05
1.30753e-06
1.52396e-06
4.57093e-09
7.85335e-08
7.09265e-08
1.05793e-09
1.21593e-06
5.53903e-07
2.94714e-13
2.77992e-14
7.22913e-14
2.74291e-14
2.81371e-14
9.23999e-14
2.73905e-13
5.46046e-14
5.37139e-14
2.48021e-12
2.2612e-11
7.14504e-12
1.41339e-12
1.2873e-12
7.21179e-13
6.4147e-13
2.10142e-15
2.86359e-16
2.22168e-16
1.80528e-16
1.20183e-16
5.61556e-16
1.29636e-16
3.06248e-25
3.26085e-25
2.61849e-25
2.53576e-25
3.29774e-25
2.61849e-25
4.17102e-25
2.94697e-25
5.93201e-24
1.94436e-29
1.2703e-27
3.39909e-26
6.69583e-31
2.23225e-31
1.40352e-30
4.87966e-31
1.53464e-28
3.51354e-29
1.37151e-31
5.87415e-29
7.41627e-31
3.96956e-30
7.75104e-29
1.32627e-31
1.37151e-31
1.24098e-47
2.92339e-47
1.70406e-47
1.86328e-48
2.22878e-48
6.18722e-48
2.22878e-48
5.50009e-49
5.39683e-49
1.72822e-49
9.06206e-48
6.6204e-49
2.71945e-49
1.49472e-47
4.57092e-42
9.33738e-42
3.96483e-41
1.32546e-42
1.82053e-42
7.53626e-42
2.83488e-42
1.43068e-46
4.64571e-46
7.80423e-46
1.143e-44
7.81651e-46
1.39483e-45
1.49258e-45
1.38658e-40
1.25254e-40
4.51224e-40
1.81644e-40
3.78118e-39
1.37615e-40
1.48485e-40
1.26564e-37
1.26565e-37
1.26564e-37
2.48326e-36
4.18374e-34
7.75054e-37
1.84754e-30
2.85643e-40
3.54137e-40
2.61022e-40
3.94917e-41
4.17089e-41
1.04855e-40
4.49751e-40
2.77004e-37
1.35932e-37
3.85945e-33
3.12306e-35
1.16423e-33
1.52191e-34
1.15249e-28
2.53865e-31
1.25142e-32
2.2526e-30
5.39435e-28
6.3465e-30
3.11855e-27
5.67025e-29
4.48682e-26
3.82677e-29
1.56211e-27
1.85495e-27
2.61006e-30
0.00236475
0.001654
0.0869196
2.85396e-06
0.000831807
0.00602677
0.00539384
1
1
1
1
1
1
1
1
1
1
1
1
1
1
1
1
1
1
1
1
0.984065
0.998707
0.990527
0.911929
0.999765
0.999766
0.855123
0.977048
0.988836
0.627353
0.964084
0.998085
0.992153
0.686427
9.28271e-20
7.37197e-21
1.11625e-19
4.52059e-22
7.28808e-21
7.33257e-21
2.14488e-20
1.87814e-21
1.90224e-21
1.88425e-21
2.11111e-21
1.85397e-19
8.88596e-20
1.94783e-18
6.39422e-20
1.62388e-19
6.79029e-28
3.29254e-26
3.84462e-25
7.14962e-26
3.39743e-26
5.85461e-25
3.4177e-26
5.18362e-30
2.98188e-30
5.1833e-30
8.0121e-24
3.93272e-24
7.06268e-30
6.59506e-26
9.36933e-25
8.09333e-28
2.88938e-30
7.73081e-29
4.27757e-32
1.30762e-31
3.75276e-31
6.89215e-32
2.72495e-32
2.8073e-32
1.10198e-32
1.04539e-29
1.83286e-27
3.04622e-29
5.74606e-30
1.89514e-27
1.44362e-30
2.81717e-29
6.8666e-42
2.79636e-44
1.37008e-46
4.58227e-43
7.94408e-42
2.88772e-48
1.37008e-46
1.65589e-48
2.39853e-51
1.39266e-51
3.59479e-48
1.2659e-46
2.05323e-52
8.76639e-52
8.09099e-64
1.65563e-68
9.92791e-69
3.59125e-69
4.10532e-67
1.5262e-68
2.16272e-72
1.13715e-65
6.51349e-67
1.4281e-65
6.51349e-67
1.04347e-65
2.67453e-64
5.46379e-65
2.15621e-72
-1.18096e-72
2.16272e-72
-8.81905e-70
-6.40067e-68
6.51349e-67
1.32595e-62
6.51349e-67
2.83949e-61
8.82033e-63
-4.61557e-73
2.64133e-72
-7.2258e-69
-2.21458e-63
-1.11205e-67
1.31362e-62
1.51962e-61
2.21902e-61
8.14497e-63
3.89805e-64
1.73852e-67
7.94323e-69
2.49999e-68
5.58009e-62
7.24424e-62
-5.77215e-61
1.86015e-60
6.1991e-63
3.65111e-54
4.89479e-56
5.81608e-54
1.53886e-53
1.57592e-51
8.04491e-52
2.46427e-52
4.08813e-55
1.21686e-55
9.93761e-56
6.11442e-54
3.03528e-60
3.23518e-54
7.60837e-54
4.6049e-50
1.06671e-46
3.81065e-51
5.61506e-46
8.00453e-47
2.28805e-51
3.81065e-51
2.21176e-49
5.77769e-51
4.35474e-51
2.62538e-51
2.27301e-54
1.30762e-49
3.02586e-51
5.82778e-38
5.1162e-34
5.86215e-38
5.86215e-38
3.05546e-33
2.31284e-37
3.01269e-37
3.70212e-25
8.96223e-20
2.55065e-19
4.50621e-18
7.47929e-19
4.02564e-18
6.89497e-18
7.33265e-17
6.88593e-17
3.44409e-16
1.52192e-13
5.31923e-14
1.67186e-13
3.46522e-13
2.62295e-14
3.32166e-14
2.90308e-12
1.56725e-13
2.49804e-14
2.08615e-13
1.17865e-12
5.15344e-12
3.90789e-11
6.3964e-12
1.13941e-10
5.66925e-09
8.7041e-09
7.13902e-13
7.03316e-12
1.02991e-12
5.73629e-08
2.46937e-08
3.13234e-08
3.27966e-08
1.04263e-07
5.76673e-08
0
4.43861e-08
6.51736e-09
3.10644e-06
9.25256e-07
9.23127e-07
1.26145e-07
5.83325e-07
1.12884e-06
7.95754e-07
0.160686
0.7204
0.999617
0.999617
0.999667
0.999617
0.999225
2.95211e-07
6.96003e-07
7.97964e-07
1.46305e-08
1.71251e-08
6.33176e-07
1.71251e-08
0.0037531
0.0218126
0.00139066
7.59404e-07
7.10131e-07
0.162709
0.00130731
3.00901e-07
1.4653e-07
1.10739e-07
1.4858e-08
3.99578e-06
6.37901e-07
1.18926e-08
7.47116e-07
4.63937e-06
4.21066e-06
2.48359e-07
2.48202e-07
6.6837e-07
1.14991e-05
1.49678e-12
1.41866e-13
7.37946e-13
2.88264e-11
1.54414e-12
1.17954e-12
4.84653e-11
5.9379e-14
1.64663e-13
5.83981e-16
5.31775e-16
4.1563e-15
1.04559e-13
5.9379e-14
3.21052e-16
4.17514e-17
1.53977e-16
5.0444e-17
5.8271e-17
7.4741e-17
9.27639e-17
2.47854e-17
3.91687e-16
1.38214e-17
4.8002e-19
2.31931e-19
6.90736e-21
1.46691e-21
9.10803e-20
2.26722e-20
1.27845e-26
1.38263e-26
6.58069e-26
4.40992e-25
9.01639e-26
8.22932e-26
8.04376e-26
9.7856e-34
5.27407e-33
3.28051e-34
1.29942e-34
1.19273e-33
3.2805e-34
1.5323e-34
4.55163e-55
1.27942e-54
2.41254e-54
1.85636e-53
2.0331e-53
7.52981e-55
1.41207e-53
7.00019e-55
1.74448e-55
7.08069e-55
4.13348e-55
4.16527e-56
3.79458e-56
4.49244e-56
1.06686e-48
5.29443e-48
8.08206e-50
5.98421e-50
5.27266e-49
4.70043e-50
2.8319e-50
3.71297e-50
8.42621e-52
4.59425e-50
1.31188e-53
1.31188e-53
1.31188e-53
2.06574e-53
1.49108e-53
3.07788e-51
1.25249e-48
2.39873e-50
1.09392e-49
4.22869e-49
5.04035e-50
4.49285e-49
1.20646e-47
2.39873e-50
3.37712e-49
2.39873e-50
7.95321e-46
7.95321e-46
7.95321e-46
7.71547e-45
9.25033e-45
9.86986e-46
1.62097e-45
1.75244e-40
7.96991e-40
9.50848e-40
2.01921e-39
1.82832e-37
1.95177e-40
4.40463e-38
1.1192e-45
1.84458e-43
6.51302e-44
6.12601e-40
5.66559e-39
5.54646e-39
1.03498e-35
4.61801e-35
1.14768e-34
8.62939e-36
6.03728e-36
7.03701e-36
1.19912e-33
7.19873e-07
4.81706e-07
1.68815e-06
9.51113e-08
7.36404e-05
8.95628e-08
0.000219287
0.000361882
0.00126544
0.00195444
0.00107318
0.000699517
0.00095389
0.000484207
0.989163
0.965515
0.978744
0.82904
0.671828
0.933785
0.974089
1
1
0.999264
1
1
0.999998
1
1
1
1
1
1
1
1
1
1
1
1
1
1
1.32371e-48
5.11207e-49
2.01001e-50
4.06928e-47
2.01e-50
1.66012e-50
1.60888e-50
2.18578e-52
1.74205e-55
2.73687e-57
3.92816e-52
2.73687e-57
2.73687e-57
2.72857e-59
3.60627e-62
2.58169e-62
7.81591e-60
-3.51674e-66
1.80208e-62
1.70389e-57
1.80186e-62
7.30021e-70
1.76154e-68
1.76154e-68
7.30021e-70
7.30021e-70
1.29189e-68
7.30021e-70
7.15315e-68
2.91401e-71
3.67723e-69
2.85473e-69
1.4819e-65
2.91354e-71
-2.42451e-70
2.91401e-71
4.03296e-70
2.35281e-71
2.24785e-61
3.00465e-61
1.39597e-58
1.53651e-62
1.58015e-61
1.92416e-61
2.15018e-56
7.88244e-56
2.21231e-55
2.58643e-53
6.20047e-56
5.19786e-58
6.20865e-56
4.44052e-51
9.68246e-48
4.86718e-48
1.79436e-50
1.79436e-50
1.7564e-52
5.60243e-46
1.79436e-50
2.92782e-39
-3.76052e-40
1.82914e-42
1.42354e-40
1.37496e-40
2.3757e-40
1.7868e-42
1.65748e-12
2.73012e-12
8.00511e-14
3.93939e-10
5.10562e-13
3.75891e-13
5.10562e-13
1.69178e-13
1.44625e-15
4.44853e-15
4.80897e-12
5.04942e-12
1.94803e-12
9.87853e-15
3.76595e-10
1.97731e-09
1.29289e-09
1.1867e-08
1.70646e-09
1.46141e-08
5.8214e-08
1.8392e-06
1.41332e-05
2.70312e-05
7.78328e-06
2.00406e-06
0.713293
0.765206
0.996757
0.773029
0.713236
0.232978
0.943632
0.00113286
0.00114725
1.4632e-05
2.40471e-06
0.000380354
0.00157771
0.000133597
1.03829e-05
1.57062e-06
8.17555e-06
1.6188e-06
2.43257e-05
4.0288e-05
1.60988e-06
8.25959e-09
2.35311e-08
3.12501e-11
2.57686e-06
1.07207e-06
5.01399e-07
7.73794e-07
9.87472e-07
4.9387e-07
4.9981e-07
2.5756e-06
-5.45132e-48
6.079e-07
1.60613e-07
1.75486e-07
2.43222e-07
1.22382e-06
4.13531e-06
4.15819e-07
3.09454e-11
1.20208e-10
3.09454e-11
3.07355e-10
1.54942e-09
3.13074e-11
3.09454e-11
6.3199e-12
1.99389e-13
1.89006e-13
4.55684e-12
5.8726e-13
4.59217e-14
5.29462e-14
1.85853e-27
8.90132e-28
1.59843e-27
2.33562e-28
4.02186e-28
2.28696e-28
2.24024e-27
1.1194e-33
4.41635e-33
7.18523e-34
1.25147e-35
1.14954e-32
7.18523e-34
6.48119e-34
7.11261e-38
8.03158e-38
7.58985e-38
6.11536e-41
7.52724e-38
1.10948e-37
3.69193e-38
1.87068e-39
1.05687e-45
1.9033e-42
6.30317e-46
2.43747e-42
8.67474e-46
3.02729e-42
1.05687e-45
1.05687e-45
1.50648e-54
1.95084e-53
5.49065e-55
5.49065e-55
1.50648e-54
5.49065e-55
3.53419e-55
4.51451e-64
1.49637e-63
1.47095e-62
4.89691e-64
3.19401e-66
1.84142e-62
2.59256e-65
8.47677e-62
9.34328e-60
1.77032e-58
2.79179e-65
1.39826e-65
1.94945e-65
1.32499e-66
1.45387e-65
1.12905e-66
1.58697e-66
5.29181e-58
8.57944e-60
2.86142e-59
1.33305e-60
7.7228e-58
1.09076e-60
2.48718e-54
1.28673e-55
4.58379e-52
5.53423e-55
4.35901e-56
5.80959e-56
1.90549e-55
6.94388e-53
1.93068e-53
5.31513e-56
8.45876e-51
1.49108e-53
1.15022e-50
6.61264e-50
1.61696e-50
1.27754e-49
4.79247e-48
2.99553e-49
8.64533e-48
1.23854e-49
4.31085e-36
3.21563e-35
1.3897e-36
1.18322e-36
1.94337e-36
1.78492e-36
2.35779e-36
1.01571e-12
5.68253e-12
4.48141e-13
1.261e-09
2.23996e-11
8.23879e-11
8.23879e-11
5.49512e-11
4.25779e-13
1.19163e-09
2.27417e-08
2.06235e-10
6.3052e-08
7.89973e-08
5.20039e-08
1.1073e-08
1.06804e-08
1.06556e-08
1.06391e-08
8.6582e-09
1.37942e-07
4.38012e-06
2.35716e-07
4.78148e-09
1.80893e-09
0.000171124
3.78813e-09
2.24674e-08
4.04031e-06
0.000923443
1.72418e-09
0.000740037
0.00481172
0.000744866
0.00240062
0.00274451
0.00639584
0.00253633
0.361762
0.0399248
0.0438785
0.0643208
0.0626615
0.0572131
0.0299884
1
1
1
1
1
1
1
1
1
1
1
1
1
1
1
1
1
1
1
1
1
1
1
1
1
1
1.13921e-75
1.13864e-75
1.13921e-75
9.6057e-76
1.13956e-75
3.93976e-73
5.18514e-74
4.19336e-74
4.9433e-70
6.5171e-74
3.08896e-60
1.592e-58
-2.06678e-60
6.24648e-59
2.09252e-60
5.80805e-58
-4.52758e-59
6.51398e-42
9.39736e-41
3.01971e-41
1.2127e-40
2.01561e-40
4.16169e-41
6.02476e-42
1.98945e-43
4.14689e-41
2.45184e-43
1.98945e-43
1.05035e-41
4.0749e-43
1.98216e-43
1.33249e-05
1.0223e-05
1.778e-06
0.000124778
4.76883e-06
1.36648e-07
3.11636e-05
3.85207e-06
1.20024e-06
6.42571e-07
3.49102e-05
5.00605e-06
6.42571e-07
2.62253e-06
0.00176301
0.000839491
0.000196891
0.000510107
0.00046541
0.00160297
0.00176301
0.0014638
0.000502525
0.000754989
8.16273e-05
0.000322379
3.40184e-06
5.25955e-06
9.18359e-06
9.18359e-06
8.48712e-06
0.00114583
0.00525778
9.18414e-06
0.000224222
0.000424238
0.000811825
0.000160943
0.00101092
0.000777553
0.000110042
0.000272305
0.00115908
0.000275148
0.000226967
0.000238704
0.000256722
0.000296476
0.000337932
0.000182857
0.000952311
1.58917e-10
1.52911e-10
1.45117e-10
1.34572e-10
1.23389e-09
1.35765e-10
1.35147e-10
3.09489e-11
3.09489e-11
3.09454e-11
1.86644e-12
9.80218e-16
7.92426e-16
6.69373e-16
1.37197e-11
4.16591e-16
6.69373e-16
6.16201e-11
1.48853e-11
1.22011e-10
6.11957e-22
4.02187e-20
2.50885e-16
6.77329e-20
4.11522e-16
1.60651e-15
5.07652e-23
5.05353e-23
4.59085e-23
2.91446e-23
3.16124e-22
3.12059e-23
4.19875e-23
2.3411e-37
2.31181e-37
6.20979e-40
6.00874e-37
4.56168e-38
6.16101e-40
1.90401e-40
6.96147e-40
8.22223e-40
1.34913e-53
4.30605e-53
8.76561e-49
7.72168e-56
5.42543e-52
1.34913e-53
1.19433e-53
9.39602e-58
6.30168e-59
6.23793e-59
5.37717e-60
6.30168e-59
4.43795e-62
1.76115e-58
7.75124e-72
7.75124e-72
7.75124e-72
7.11257e-66
-5.77299e-69
6.12382e-66
3.05055e-70
8.69218e-70
9.07709e-74
3.7081e-73
9.07709e-74
9.05797e-74
4.35523e-66
9.07709e-74
5.16554e-70
9.07709e-74
9.31477e-74
1.59958e-71
2.46475e-68
1.98303e-71
1.55643e-70
1.41507e-71
7.89247e-72
1.13052e-64
9.99128e-66
2.60803e-62
1.86786e-51
6.39025e-52
4.38106e-51
3.78087e-51
8.13738e-52
6.72716e-51
2.73484e-50
6.77273e-44
5.82832e-44
6.77273e-44
2.518e-42
2.39776e-42
8.89903e-44
3.13866e-42
3.30506e-44
3.30506e-44
2.89148e-45
2.89148e-45
2.19854e-43
2.89148e-45
1.51259e-45
3.79965e-39
1.08093e-39
1.34528e-37
3.3418e-38
3.3418e-38
3.10309e-39
6.25799e-36
3.34016e-32
9.58868e-37
4.52652e-35
9.58868e-37
8.35465e-38
7.18102e-32
1.19986e-33
5.55092e-23
4.40845e-24
1.94364e-23
2.34608e-24
3.13084e-24
4.65573e-24
3.34307e-24
1.78311e-21
8.87321e-22
4.84016e-26
1.16407e-17
8.14255e-26
4.01635e-26
8.14255e-26
8.94078e-22
1.65813e-22
3.18506e-24
3.18506e-24
1.99675e-24
1.1558e-15
1.24993e-19
2.82451e-14
5.07278e-14
3.72787e-18
5.62157e-19
1.76423e-12
2.12588e-08
8.10212e-09
5.75554e-08
9.03289e-09
4.17833e-09
9.80117e-09
7.19014e-09
3.3155e-11
5.3363e-09
7.94755e-11
3.9651e-12
3.58528e-12
3.60081e-12
1.46894e-11
1
1
1
1
1
1
1
1
1
1
1
1
1
1
1
1
1
1
1
1
1
1
1
1
1
1
7.60469e-46
1.6082e-45
1.57832e-45
3.75689e-46
1.25455e-43
8.32146e-45
5.54934e-43
-2.75512e-65
-1.02749e-63
-1.75071e-65
2.64572e-66
0
3.62363e-67
1.69156e-65
7.40459e-72
2.28591e-70
1.42748e-69
6.01855e-70
3.11958e-68
1.59218e-70
6.01855e-70
0
1.99901e-77
-4.60694e-63
4.73234e-71
8.45644e-68
7.40459e-72
1.45891e-61
5.17209e-58
1.12853e-63
7.85041e-62
4.64678e-65
1.45891e-61
1.09166e-63
3.47396e-54
3.47396e-54
3.96712e-56
3.16434e-56
3.04341e-56
1.82191e-57
2.55613e-56
2.95911e-55
1.48226e-55
1.07311e-06
1.2371e-06
1.01636e-06
1.03198e-06
1.01635e-06
1.18546e-06
1.41043e-06
7.77048e-07
2.49518e-07
2.27104e-07
1.46897e-06
8.22124e-07
3.783e-07
8.51585e-07
2.334e-19
2.02673e-19
7.09699e-19
1.01273e-18
2.41305e-17
2.60058e-19
2.44931e-18
4.59075e-23
1.16083e-22
1.3531e-22
3.60238e-27
2.65784e-27
5.19209e-27
2.13021e-27
2.44563e-29
1.55578e-27
2.06408e-27
3.92925e-27
1.05315e-30
8.42651e-31
4.25969e-31
7.73469e-31
2.84847e-26
1.46275e-29
5.00386e-32
1.08612e-29
2.00391e-25
2.67214e-26
4.97302e-25
4.0696e-34
1.6951e-34
1.03124e-34
6.60025e-39
8.4099e-34
9.39013e-35
2.93561e-35
6.25727e-33
9.39013e-35
3.99989e-32
1.48372e-39
2.41494e-39
3.82406e-39
4.88004e-39
2.50891e-39
1.29953e-38
1.0196e-45
1.0196e-45
1.0196e-45
1.90273e-45
1.08853e-45
1.49623e-43
2.1235e-45
2.07625e-59
2.00171e-58
8.70467e-57
2.41706e-54
7.19169e-57
2.00171e-58
7.19169e-57
3.78027e-66
8.81819e-66
9.24303e-67
4.30566e-66
1.50682e-64
3.93951e-66
1.06987e-67
9.42874e-67
1.06987e-67
1.06987e-67
1.54346e-67
1.33964e-67
4.46882e-65
2.04442e-64
1.90953e-71
1.90953e-71
7.62592e-72
1.82043e-48
5.63729e-49
3.08492e-49
2.49048e-48
6.41894e-46
7.64137e-49
2.2438e-48
3.2734e-51
2.6858e-54
1.58017e-55
6.81186e-56
1.58017e-55
2.47231e-51
2.46092e-50
3.24245e-54
2.86927e-54
1.90824e-54
5.70021e-55
7.70693e-55
5.70021e-55
1.22406e-53
9.74313e-52
1.15525e-53
9.74313e-52
1.32464e-50
1.32464e-50
3.1334e-49
1.55836e-47
9.44311e-50
3.52166e-54
3.78337e-52
4.76602e-52
5.48872e-52
2.35075e-48
2.05528e-52
7.36192e-39
9.69081e-39
2.1281e-38
8.7509e-39
9.33129e-38
3.76632e-38
3.59575e-36
3.05936e-40
3.19454e-43
3.19454e-43
5.78091e-39
8.08673e-42
6.57684e-40
5.87529e-39
6.07483e-33
1.17011e-27
3.59534e-31