/*--------------------------------*- C++ -*----------------------------------*\
| =========                 |                                                 |
| \\      /  F ield         | OpenFOAM: The Open Source CFD Toolbox           |
|  \\    /   O peration     | Version:  v2012                                 |
|   \\  /    A nd           | Website:  www.openfoam.com                      |
|    \\/     M anipulation  |                                                 |
\*---------------------------------------------------------------------------*/
FoamFile
{
    version     2.0;
    format      ascii;
    class       surfaceScalarField;
    location    "0.1";
    object      alphaPhi0.water;
}
// * * * * * * * * * * * * * * * * * * * * * * * * * * * * * * * * * * * * * //

dimensions      [0 3 -1 0 0 0 0];
oriented        oriented;


internalField   nonuniform List<scalar> 
13152
(
9.01748e-07
2.02009e-05
-1.46947e-06
-1.96332e-05
1.86161e-05
-1.71544e-05
-5.60019e-07
-3.48831e-06
4.23054e-05
-3.46704e-05
3.53638e-05
-2.16283e-06
2.11966e-05
-7.55003e-05
2.8494e-05
-2.44518e-05
6.03695e-05
-1.61346e-05
-2.95986e-05
-2.83988e-05
7.41321e-05
3.85547e-07
-1.68369e-05
3.16667e-07
-2.98987e-05
6.85624e-07
7.86499e-06
5.16877e-06
-2.98706e-05
7.84482e-06
3.36834e-07
-5.07263e-06
-1.54814e-05
-2.98026e-05
-8.64222e-06
-1.46998e-05
-5.1422e-06
2.84842e-05
-5.53804e-08
-8.66257e-06
7.57249e-08
-1.42176e-05
-5.37556e-07
5.63985e-06
-3.05542e-05
1.62518e-05
-2.94469e-05
2.99446e-05
2.93603e-05
-6.24211e-07
3.01518e-08
-1.51747e-05
-2.98929e-05
1.20454e-07
-7.49382e-05
3.14879e-07
1.60126e-05
3.02278e-05
3.16415e-08
7.47247e-05
3.58442e-05
1.26822e-05
2.5347e-05
-7.38734e-05
3.04985e-07
-6.23984e-07
3.61632e-05
1.24271e-05
2.71283e-07
-1.87931e-05
7.35256e-05
7.77396e-05
2.90483e-05
-7.21104e-07
-2.93477e-05
1.02044e-06
-1.6326e-05
-2.6905e-05
7.22793e-05
2.0655e-07
-1.72537e-05
-8.05754e-06
7.97579e-06
2.88299e-07
5.27299e-06
-3.05842e-05
-4.94984e-06
-1.39793e-05
-2.90245e-05
-1.38303e-05
1.39265e-07
2.91111e-05
2.25842e-07
-5.66838e-07
8.17324e-07
-1.88976e-06
1.70579e-06
-5.95701e-07
-2.20511e-08
4.85298e-08
-1.24262e-07
3.27416e-07
1.26041e-06
-1.1754e-06
-1.18259e-07
-7.82435e-08
-5.52898e-07
-4.58631e-08
-8.81996e-08
9.80123e-09
-3.85334e-08
3.25246e-07
-2.58284e-08
-1.18811e-06
-1.92271e-07
-2.71894e-70
1.08958e-69
-4.40483e-70
-2.08954e-69
6.17461e-69
-2.43267e-68
5.17164e-69
-9.0959e-70
-4.28827e-69
1.16052e-69
1.80992e-69
-3.15131e-68
4.41692e-71
-5.79483e-70
-1.28173e-69
2.56722e-74
-2.92214e-68
-3.55062e-65
-2.3953e-64
-2.20634e-65
1.23529e-64
-4.08542e-65
-1.24322e-64
1.41065e-66
-1.00815e-63
-7.74975e-65
4.78435e-63
1.46139e-63
-1.16766e-62
2.30294e-64
-1.64986e-65
-9.57078e-64
4.20184e-64
-7.51136e-65
3.14084e-53
1.94654e-53
1.38097e-53
-9.449e-52
3.01809e-55
3.19094e-53
-3.21372e-54
1.34409e-54
1.0032e-55
-3.76866e-55
2.51762e-55
3.03884e-53
1.67065e-55
-7.56854e-56
-1.20273e-55
1.13971e-55
-1.55154e-57
6.56373e-22
-1.49974e-20
-1.40374e-21
1.56859e-21
-2.12338e-20
-6.50759e-20
1.3547e-20
-1.97608e-20
-2.55129e-19
2.96031e-20
-2.18727e-18
2.02476e-18
1.32275e-21
6.49224e-21
-2.07112e-19
-2.54464e-20
-2.93561e-18
6.24931e-26
1.40725e-25
-1.71311e-24
-7.67816e-25
1.48164e-26
-7.62374e-27
2.03612e-27
-6.95838e-25
1.20129e-25
-4.45222e-24
2.39033e-23
-2.38062e-23
1.07972e-24
-4.18857e-23
-7.09317e-26
4.25406e-26
4.28679e-25
-8.50076e-11
-2.90765e-10
-2.2188e-11
3.29507e-10
8.96227e-12
-1.99996e-10
3.45093e-12
-7.74601e-10
-9.2218e-12
8.70753e-10
1.22878e-10
-1.94887e-09
1.44714e-09
-8.85529e-09
1.8204e-10
-3.34832e-10
1.16623e-09
-3.89753e-07
1.75341e-08
8.003e-07
-4.18477e-07
1.53919e-06
-1.0363e-06
-8.71318e-07
3.11608e-07
1.27208e-06
-1.87077e-07
3.05192e-07
-4.7875e-07
-9.45253e-07
-1.23749e-07
-1.08525e-06
4.42014e-07
2.22397e-08
5.09156e-08
-3.91419e-08
-3.39321e-08
2.21584e-08
-1.53219e-07
-3.44211e-08
2.38556e-07
-6.78734e-08
-1.24487e-07
-3.43873e-09
-1.96639e-07
1.65657e-07
-1.56202e-07
1.18831e-07
-2.84988e-08
-2.36014e-07
-3.09187e-07
3.04539e-08
6.85005e-08
3.89347e-07
-4.88302e-07
-5.64091e-08
1.31939e-07
-4.50763e-08
8.7936e-09
3.2979e-09
-1.05494e-07
6.26781e-07
2.82322e-07
-3.79022e-07
2.40544e-07
4.76899e-90
2.12888e-11
3.86085e-13
-5.33715e-12
-7.46085e-90
-4.23243e-90
-6.60123e-90
5.76632e-13
2.1997e-11
2.70539e-19
1.05054e-17
-5.80896e-18
2.30697e-19
8.05901e-20
-3.86152e-13
1.12335e-12
-5.2767e-17
1.8392e-05
3.77509e-09
-1.60245e-05
-1.11798e-10
-2.00094e-05
-2.77612e-05
6.76583e-05
-2.03371e-07
-2.09174e-05
-2.60996e-05
2.59264e-05
-1.89541e-08
2.09057e-05
-6.78245e-05
-4.67396e-06
2.8395e-06
-1.93085e-11
-2.53363e-53
3.02383e-56
1.75306e-54
1.42021e-53
2.1427e-56
8.98633e-51
5.90498e-52
-4.9806e-56
-8.22091e-56
1.15156e-14
-1.69539e-14
5.43822e-15
-5.1e-15
1.62896e-14
3.94296e-14
-5.20301e-13
2.17129e-14
6.30016e-36
1.22844e-35
-2.08088e-35
-2.69622e-35
3.12617e-36
-2.33794e-36
3.2883e-37
-5.06261e-36
7.75561e-36
-2.94753e-34
8.79834e-34
-6.97427e-34
2.35044e-35
-3.52624e-34
4.4595e-35
-2.77385e-35
1.64978e-34
-4.96184e-32
-2.98992e-32
-1.61326e-32
2.7934e-32
2.27227e-32
-5.35041e-32
-2.93109e-31
-2.54265e-31
2.0837e-32
-2.23997e-30
-8.06849e-32
-4.57249e-29
5.2195e-31
-3.27733e-30
4.97975e-31
-9.39817e-31
3.21593e-31
8.6475e-35
4.49828e-34
-2.56661e-33
2.00178e-33
4.71057e-35
-2.15895e-35
5.85116e-37
-7.19778e-35
3.52803e-34
3.20459e-35
5.70067e-35
-1.55918e-34
3.96098e-36
1.94638e-36
-7.56017e-35
2.03287e-36
-1.16404e-32
4.93447e-29
-5.37189e-29
-8.21721e-30
2.37164e-30
-1.81174e-28
-8.18129e-30
8.03661e-29
-6.04819e-29
-6.29444e-28
3.50543e-30
-9.04382e-30
-2.93754e-30
-8.43074e-30
4.31908e-30
-2.10056e-27
2.16231e-28
2.67015e-27
-1.35451e-28
5.28723e-27
-8.84151e-29
2.99967e-28
-1.51959e-29
2.62875e-31
-1.32127e-33
-1.41913e-30
1.14342e-32
-8.8768e-32
-1.28869e-31
9.50048e-31
-1.88828e-30
2.04634e-30
6.25998e-32
4.0503e-30
5.57075e-32
8.06583e-33
-3.95648e-32
1.91061e-33
2.16107e-30
2.65523e-26
-5.54194e-27
-2.78783e-26
-3.31868e-28
-2.18309e-26
-2.55091e-26
6.44915e-26
-1.04726e-25
7.06983e-26
1.6093e-26
-4.57615e-26
-8.90835e-28
-3.75476e-25
3.60537e-25
1.79018e-24
5.03903e-25
-2.43048e-24
8.10641e-25
3.48474e-23
-1.08669e-24
1.52392e-24
-6.33035e-25
4.11958e-18
3.54189e-18
-7.47754e-18
-9.96377e-20
-1.18872e-17
1.32847e-18
6.15528e-18
2.34832e-17
-6.20784e-17
3.91112e-18
-2.76493e-18
-7.95568e-18
-2.92877e-18
5.64667e-18
-1.57803e-16
2.84179e-17
1.25942e-16
-3.23103e-18
-2.69858e-17
1.61526e-17
-2.17363e-17
3.38018e-17
-2.39827e-20
5.6211e-19
-6.73685e-20
4.06257e-18
6.64024e-19
-2.40337e-20
-7.44196e-19
-1.21574e-19
2.61658e-18
-1.28184e-19
1.16231e-19
-4.14189e-20
2.02508e-19
2.36923e-20
-1.40102e-20
8.88577e-20
-8.3159e-16
1.40536e-15
3.0091e-15
-4.06695e-15
1.4027e-15
-1.14364e-16
-3.78929e-18
2.19092e-16
2.6862e-15
-1.18449e-14
1.39132e-15
1.16143e-14
-2.13936e-16
-1.11077e-14
1.44748e-15
-1.12331e-17
5.64023e-15
3.16232e-16
-3.00939e-20
-4.79962e-18
-3.66446e-20
3.46489e-16
-3.03321e-15
4.41073e-15
-2.44789e-14
9.11283e-15
2.52754e-17
2.65612e-15
2.52926e-17
-6.86075e-20
-1.13396e-14
1.34162e-14
-2.31883e-14
1.44495e-15
9.4714e-16
2.88679e-16
-6.0543e-15
-3.46837e-12
4.8292e-13
4.84165e-12
2.11837e-11
-2.21985e-12
-2.56549e-11
-4.69443e-15
4.68509e-11
-2.21454e-13
-1.29935e-12
9.11246e-15
-2.32555e-13
4.84375e-13
3.0874e-22
-9.14765e-24
-1.21466e-21
1.83099e-23
-6.48287e-22
-5.89068e-21
6.39888e-21
-3.4232e-20
3.28905e-20
1.53131e-21
5.3661e-22
-3.68542e-21
1.51899e-21
2.80313e-24
-4.27424e-20
3.05357e-20
-6.42567e-20
3.61404e-23
6.73062e-25
-3.15702e-23
-5.31092e-24
-6.59124e-24
-1.91903e-21
-6.82989e-24
7.76409e-25
-3.5381e-22
-6.67179e-24
1.99608e-21
-8.21489e-24
-1.77171e-23
9.04252e-24
-2.41887e-23
3.07947e-24
-1.52554e-21
-4.06241e-23
5.62906e-22
1.38652e-22
1.02105e-21
3.7474e-21
-2.55407e-22
2.31728e-21
-9.37553e-28
4.93518e-22
-4.38071e-22
5.0282e-22
-1.81621e-20
1.03838e-20
-6.87122e-20
2.60323e-21
-1.28259e-27
-4.2905e-26
2.13357e-26
2.23768e-27
-3.65913e-26
-2.08109e-28
1.00349e-26
3.32139e-26
-8.84857e-26
1.76273e-27
-8.9698e-27
7.48233e-28
-6.39717e-27
7.74029e-27
-1.22958e-27
8.6278e-28
-3.64534e-28
-3.64812e-31
-3.61702e-33
6.72945e-32
3.84878e-33
3.19193e-31
3.253e-31
8.50578e-32
1.64542e-33
-1.02854e-31
-2.35259e-31
2.10295e-31
-1.16973e-30
8.75639e-31
-3.08978e-31
-9.10334e-32
3.9385e-31
-4.4256e-31
-6.11511e-31
4.57488e-32
-1.71071e-31
3.8828e-32
-6.03361e-36
-3.58307e-39
-4.00959e-35
4.57693e-35
1.16775e-35
3.3453e-34
1.15264e-35
2.60726e-38
1.3349e-33
-6.24607e-33
-1.9916e-34
1.5798e-33
2.21413e-33
-8.13064e-33
1.65091e-33
1.15321e-53
6.98733e-55
-3.74053e-53
-7.22273e-56
-2.07869e-52
-6.79999e-53
2.68713e-52
-4.15108e-51
-5.92114e-50
5.56023e-53
5.47042e-52
-6.48059e-52
5.23644e-53
2.43492e-57
-5.6769e-52
1.1471e-52
-4.65991e-51
8.75941e-08
7.30418e-09
-8.55461e-08
-9.35216e-09
-1.43612e-07
5.15584e-08
1.79648e-07
9.03952e-08
-2.26703e-07
5.8577e-08
-1.01693e-07
-4.24306e-08
3.78107e-10
1.09757e-07
-5.68782e-07
3.60253e-07
2.98925e-07
1.20416e-07
-9.15901e-07
-1.96528e-07
5.57159e-07
-1.77805e-07
3.31387e-07
-7.35879e-08
-3.42216e-07
8.32436e-08
-1.36252e-06
-2.64369e-07
1.95448e-06
-3.23196e-07
-1.12933e-06
2.69168e-07
1.18884e-06
-1.72028e-06
1.0778e-06
-1.15039e-06
-1.56496e-06
2.41621e-06
-7.1012e-07
1.51859e-09
3.97499e-10
-1.23973e-09
-1.2605e-09
-5.93255e-10
-8.98706e-10
4.22061e-09
1.09744e-09
-2.9585e-12
1.38496e-10
1.90249e-09
-2.15172e-09
1.45821e-10
1.84891e-10
1.62396e-10
-4.81232e-10
-1.00213e-09
-3.80631e-09
5.85465e-10
-4.27383e-11
3.73615e-10
-9.52554e-09
5.86599e-07
-5.00489e-07
1.87811e-06
-4.79195e-07
-2.70161e-06
3.62262e-08
1.63204e-07
4.91137e-08
-3.01928e-07
-1.92655e-08
6.98733e-08
-2.79892e-08
-7.26807e-08
2.51474e-07
8.3031e-10
-4.99318e-09
7.02574e-08
1.03868e-08
-1.91197e-08
-2.98075e-08
-2.01858e-08
1.05956e-09
-2.15109e-43
-1.46264e-44
1.20116e-44
3.75276e-44
1.72748e-43
9.91612e-43
-1.70195e-42
1.01087e-44
-1.81097e-44
5.24722e-44
5.05929e-43
1.45952e-43
-9.10094e-46
2.2365e-44
-6.01663e-44
9.18114e-45
3.0434e-43
3.4214e-07
4.90702e-08
-9.31408e-07
-3.69015e-07
-5.28109e-07
-1.07546e-07
1.46594e-06
-2.53566e-07
4.7215e-08
3.69201e-07
-3.25938e-07
-6.79234e-07
-4.67853e-07
6.16282e-07
3.14024e-07
3.12635e-08
-3.89056e-07
2.15149e-06
1.05607e-07
-1.53816e-07
1.93629e-06
-1.86994e-07
-6.7656e-35
-9.61906e-37
1.72141e-36
2.98034e-36
1.8379e-34
3.2007e-34
-6.54455e-34
1.00144e-35
-1.09977e-38
-2.60943e-37
-6.74207e-35
6.88627e-35
-1.73322e-37
2.19231e-37
1.93235e-35
1.61968e-34
5.31394e-36
1.27289e-09
1.38423e-09
-8.57777e-10
-1.9259e-09
4.78894e-10
4.78003e-11
2.46294e-09
-3.38198e-10
5.83418e-09
5.39829e-11
5.25758e-09
-3.98956e-09
4.73848e-10
5.28834e-09
3.41467e-11
-4.97026e-11
2.32918e-09
4.62154e-10
7.0676e-10
-2.01746e-08
1.37976e-08
3.35418e-10
-1.04967e-11
1.75023e-09
-1.04802e-09
-7.22339e-10
-2.69261e-09
5.38877e-09
1.79379e-10
1.03344e-09
-5.11517e-10
-8.65701e-10
-4.58402e-10
2.44908e-10
-6.74973e-10
1.00498e-09
-1.91029e-09
-1.94126e-08
3.58209e-09
1.88665e-09
-1.93509e-09
-4.35694e-09
4.69402e-09
-9.37084e-10
2.64084e-07
5.29868e-10
1.5742e-08
2.23154e-09
-2.82456e-09
-1.539e-09
-1.36855e-09
2.94064e-09
5.53041e-09
-9.8654e-10
-5.20536e-09
8.05844e-10
2.30398e-08
-3.02321e-09
3.24086e-09
-5.64985e-09
-1.96655e-08
3.2569e-09
-5.44943e-08
7.09029e-08
-4.92973e-08
6.6957e-08
-3.73252e-08
2.97916e-08
-7.58324e-08
-6.67918e-08
-9.56275e-08
2.29376e-07
-2.4024e-07
1.18953e-07
-2.52819e-07
1.86983e-07
-5.68892e-07
1.47854e-07
1.78028e-07
-3.68313e-07
-2.26169e-08
9.55125e-08
7.49585e-08
1.46059e-07
3.1675e-09
3.22539e-07
2.08437e-07
-1.44554e-09
-1.21064e-07
6.79668e-07
-1.74117e-07
3.81108e-07
-2.20222e-07
-7.66341e-07
2.55801e-07
7.0562e-07
7.98164e-08
-9.72108e-07
1.24623e-06
-6.24013e-07
-9.79816e-08
5.49713e-07
1.50726e-06
1.61614e-08
2.27634e-07
3.12879e-07
-1.244e-07
1.68431e-06
2.28951e-06
-2.54298e-06
2.3869e-06
3.39893e-08
-2.61263e-08
1.03581e-09
-5.57569e-09
-1.58962e-07
8.71505e-11
2.00767e-07
-4.00065e-08
-1.33806e-07
-6.8967e-08
-7.07189e-08
1.64296e-07
-2.93781e-07
2.71705e-07
-7.50366e-08
1.00673e-07
-3.62539e-07
-8.76286e-26
2.20469e-26
-3.04849e-27
1.39586e-27
2.23433e-25
-5.01444e-24
-3.40335e-25
-5.58062e-27
4.9435e-28
1.631e-23
1.39972e-24
-1.46644e-22
7.52568e-25
1.30507e-23
1.74927e-25
4.55945e-27
-2.15259e-26
2.2718e-26
8.77829e-25
-1.81423e-27
1.29367e-27
-3.21738e-28
-1.24305e-31
-1.00397e-32
-9.05559e-34
1.24127e-31
1.20139e-31
-9.77629e-32
-3.63459e-29
-8.38389e-32
2.82781e-34
1.28012e-31
1.26474e-32
-2.69116e-31
1.89929e-33
4.83648e-34
5.8418e-32
-7.33868e-31
3.86902e-33
3.30416e-22
5.52105e-22
-3.83429e-23
-1.08772e-20
1.32123e-23
-3.2114e-22
6.3059e-24
9.1709e-24
2.60471e-23
2.00834e-22
-1.42862e-23
-7.6879e-21
1.14681e-23
8.922e-24
1.94901e-24
3.1657e-24
-3.59536e-23
1.60431e-25
1.26191e-24
-3.1842e-24
1.98194e-24
-6.57049e-23
1.35975e-08
-7.69178e-09
-5.69481e-08
1.96741e-08
-1.90549e-08
2.37768e-09
8.57081e-09
-5.94129e-08
-1.0373e-08
5.9167e-08
3.22794e-08
-2.4601e-07
2.01917e-08
3.56972e-08
-4.06099e-08
3.32374e-08
-1.96865e-07
-8.25648e-10
-8.4429e-08
1.09202e-08
3.15972e-08
-1.14419e-07
3.28065e-08
3.01737e-08
5.47458e-08
-3.38353e-07
5.34896e-09
-1.98594e-08
7.6199e-09
-5.65294e-09
1.5186e-08
-1.01339e-10
1.38362e-10
6.12037e-09
-5.85087e-38
5.8769e-38
-2.97503e-40
9.59949e-42
2.17229e-37
-4.1326e-37
-1.12264e-35
-1.36813e-38
2.8924e-37
2.30424e-40
6.04189e-40
-1.14596e-39
2.03524e-40
1.76933e-41
1.36584e-38
-4.26405e-37
1.75763e-40
1.05846e-41
5.44192e-42
4.00213e-42
-2.20708e-41
1.01515e-42
1.13127e-41
-3.88105e-44
2.10758e-43
1.51978e-42
-3.66552e-42
5.31798e-43
3.946e-42
1.68124e-42
-6.30892e-43
1.16759e-42
4.44312e-44
1.72136e-42
5.08101e-51
4.40407e-50
-4.83906e-52
-2.1769e-49
5.56982e-48
-4.84998e-49
-5.17333e-48
-5.39895e-51
5.59103e-48
-1.13651e-49
2.77498e-50
6.18183e-52
2.12818e-49
-6.03732e-49
3.9654e-50
-3.39895e-49
3.47539e-50
2.31891e-57
-3.30166e-59
-2.31359e-58
-1.03965e-55
-2.48459e-60
-3.70542e-61
2.28701e-57
-8.41676e-62
-4.72577e-59
3.48595e-60
-4.92419e-59
-1.89169e-58
-1.02815e-60
7.19844e-61
-3.5409e-59
4.97007e-60
3.34655e-63
1.29313e-59
-5.73832e-58
-1.36896e-60
2.06674e-60
-4.32304e-59
8.38963e-63
-5.12131e-72
-5.95875e-66
-9.84768e-63
-4.08102e-69
-1.89384e-67
5.55612e-63
-6.63748e-72
-4.57368e-69
-2.77972e-69
2.76828e-69
-5.8565e-73
1.18188e-68
-1.94051e-68
-1.96761e-67
9.88545e-69
-6.1648e-66
-3.74502e-77
-3.39132e-77
1.21328e-77
-7.12379e-78
1.16105e-75
6.76056e-76
-3.22183e-73
-8.78895e-77
2.1045e-77
4.68893e-78
-1.46897e-77
2.85723e-78
-1.4881e-77
4.15522e-78
2.51467e-76
3.19195e-76
4.14304e-77
2.53157e-77
8.26987e-76
-2.45884e-77
-1.04135e-75
1.73704e-77
-3.49819e-76
2.50921e-76
-2.38857e-76
2.32902e-74
-3.09319e-76
2.49163e-76
2.01525e-74
-2.24456e-74
2.87822e-77
1.96954e-74
-3.56691e-79
1.52441e-72
-6.77195e-70
3.08222e-71
5.86997e-70
-7.19253e-68
4.49675e-68
2.46058e-68
1.68512e-69
-7.49448e-68
3.34294e-71
-1.2398e-71
1.42271e-72
-4.85992e-70
8.57606e-70
-1.62229e-69
4.60711e-68
3.93703e-71
2.93236e-80
7.37632e-80
2.23792e-80
-4.8058e-79
9.82054e-77
2.40199e-75
-2.50043e-75
7.58427e-77
2.11016e-77
9.31983e-74
5.59986e-72
-5.62274e-72
2.46162e-73
-1.50715e-73
-6.79419e-68
-6.79363e-68
-5.87401e-72
-1.05127e-70
3.36422e-70
1.4493e-72
4.59339e-68
3.10449e-73
-4.58271e-79
-4.95573e-76
-2.51207e-78
-7.0441e-78
-2.1531e-63
-2.41568e-62
-2.11554e-62
4.73319e-62
-1.91638e-63
-3.40792e-64
-6.02836e-66
-7.51371e-63
-1.916e-62
1.82513e-62
-1.86062e-62
-2.09505e-65
-1.17804e-60
1.17451e-60
-1.25755e-60
-7.90899e-59
-1.29736e-60
5.75112e-66
1.04936e-64
-1.66975e-64
-7.64954e-66
6.79262e-66
-1.22551e-65
2.09084e-66
-2.20672e-65
1.10672e-64
2.24398e-63
2.52693e-64
-3.01626e-63
6.37054e-65
2.05843e-63
-4.22391e-66
2.24457e-64
5.6584e-65
-5.45009e-65
2.9577e-69
-1.30583e-66
-6.86936e-60
-7.00359e-62
1.39915e-60
1.04928e-61
1.97178e-59
2.19964e-58
-7.28412e-58
1.8365e-59
9.06177e-63
-6.64383e-61
-1.61458e-61
8.32945e-61
-2.88515e-59
2.72395e-59
-1.52931e-60
-4.9515e-61
1.31977e-60
-6.13321e-58
5.81568e-58
5.58445e-59
-4.98886e-58
7.09112e-59
-1.24777e-57
-2.7159e-55
5.25902e-56
5.22997e-58
-1.77322e-57
-1.7616e-55
-1.25689e-55
-3.79753e-54
-1.85307e-56
-3.97323e-54
-7.53731e-56
-6.18655e-56
5.79744e-57
1.01818e-53
-1.02634e-53
5.76954e-54
-1.64532e-53
1.92641e-52
-7.00623e-53
-2.20398e-52
1.01149e-51
-6.4978e-52
-4.99948e-52
-1.0164e-46
-2.87431e-47
-3.68413e-52
1.72992e-52
-2.75366e-53
2.0247e-50
-2.14176e-50
1.20321e-46
-5.14043e-46
-8.0465e-49
-3.66741e-50
-2.35723e-47
1.5412e-49
1.54057e-47
-3.27608e-47
2.64619e-47
9.79931e-49
6.45762e-46
-7.07377e-46
4.25622e-39
-3.77688e-42
-4.25244e-39
-3.82274e-44
4.25626e-39
5.73733e-44
-1.05721e-42
-2.81212e-42
-6.33909e-44
3.41977e-44
-3.35361e-43
1.61262e-43
-2.02049e-42
-4.02351e-41
5.01358e-41
3.55638e-40
-8.79941e-41
3.45242e-39
1.96734e-39
-1.46442e-38
3.97485e-40
3.54134e-39
9.26044e-37
-7.15618e-37
3.78707e-36
-6.70259e-40
7.36728e-37
3.44342e-40
-8.371e-37
-1.46075e-41
9.36911e-35
-1.3214e-35
-1.97843e-34
7.06883e-36
-3.5359e-34
-9.40206e-35
3.4913e-34
-7.65916e-34
3.02775e-34
1.7211e-34
-7.27873e-34
1.47425e-34
7.96942e-35
-8.83632e-34
7.42754e-34
-1.75977e-33
5.97225e-36
1.31436e-35
3.25137e-34
-3.56225e-34
-8.29335e-39
4.98186e-38
5.86577e-36
1.3045e-35
-2.60269e-39
-3.6631e-34
-1.27056e-32
1.30561e-32
-1.22672e-33
2.26621e-34
-1.73252e-32
1.05132e-32
-2.79699e-32
-1.53983e-30
-3.20842e-32
5.27892e-31
8.18107e-32
1.14212e-29
-1.79648e-28
1.21653e-29
-1.17305e-31
1.23256e-30
6.76902e-34
-1.2971e-23
1.86248e-24
8.39456e-24
-6.38176e-26
1.70613e-23
2.28358e-23
-4.35558e-23
1.09383e-24
6.59236e-24
2.02199e-24
-8.32013e-24
1.24834e-24
-2.85051e-24
6.17437e-24
-2.21973e-24
4.83747e-24
-2.03994e-25
-9.102e-22
4.73507e-23
6.35515e-22
-1.62147e-23
8.85759e-22
5.49516e-22
-2.6137e-21
3.75934e-22
2.2964e-22
-1.00742e-19
-8.72806e-22
1.01902e-19
-2.14229e-20
1.63035e-18
1.47874e-21
-2.25155e-20
1.07978e-21
3.3831e-15
8.51071e-15
-2.87813e-14
-8.77293e-17
2.73018e-16
6.30652e-15
-3.13864e-15
7.29303e-15
1.69502e-15
2.77425e-15
-6.97609e-14
3.88869e-14
-9.31754e-13
7.65919e-13
3.34582e-13
-1.24767e-12
1.50408e-13
9.2806e-17
2.57917e-16
-9.51555e-16
4.29704e-16
2.89155e-17
-2.65735e-16
1.32162e-17
-7.63031e-18
9.2871e-17
1.47447e-16
6.14854e-17
-4.55926e-15
1.51956e-17
5.05861e-18
-9.29943e-17
3.05509e-17
-1.12436e-15
2.84116e-20
-5.15851e-20
-4.34481e-24
9.78834e-22
-1.24494e-19
2.45793e-20
4.5521e-20
-9.8485e-21
-1.6714e-19
7.25173e-25
-5.61507e-24
-7.19351e-25
9.72178e-24
7.54048e-23
3.53557e-24
-9.81786e-26
-7.22945e-24
1.71501e-23
1.09789e-23
-1.13993e-21
7.06401e-21
-1.09803e-20
7.60817e-23
2.19903e-22
3.33475e-22
-5.30693e-21
3.20411e-24
3.75642e-24
-4.40055e-24
3.4943e-24
4.23232e-24
3.03325e-24
4.27639e-25
-2.20397e-25
2.47119e-24
2.11737e-23
1.90828e-25
5.22336e-25
1.64725e-24
4.32397e-45
8.91305e-46
-1.97006e-45
-5.22666e-45
-3.44168e-46
3.11316e-47
1.0973e-45
-3.51415e-47
4.03471e-47
1.81017e-47
-3.68185e-46
2.94906e-46
2.48999e-47
9.98166e-49
-3.87216e-46
1.64554e-46
-3.41019e-45
-6.53932e-41
-3.06289e-39
-1.94495e-38
2.21265e-38
-1.30059e-39
-2.1625e-48
2.00094e-40
-8.82902e-39
-3.33703e-47
-1.84081e-48
-2.37431e-36
2.35486e-36
-1.43615e-47
-1.75378e-47
-1.57511e-45
-2.38314e-36
-1.65131e-45
1.22421e-31
1.84087e-32
-4.88185e-32
-1.69346e-31
-9.15676e-33
4.4453e-33
4.93578e-32
4.08896e-33
-1.53858e-33
-9.61845e-34
1.15048e-34
4.14132e-34
-1.62188e-32
1.29875e-33
9.1946e-32
-8.01038e-31
1.66299e-32
2.42837e-23
-2.07932e-22
-5.3171e-23
1.33982e-23
-4.99734e-22
-8.03197e-23
6.31048e-23
-1.5771e-21
-3.07288e-22
-1.80638e-23
-7.68905e-22
3.66301e-22
-1.3336e-22
-1.64096e-21
1.49054e-20
-2.35976e-20
1.32516e-20
-2.95857e-17
-5.31686e-19
-1.56649e-18
-5.78577e-16
8.81135e-19
9.97553e-17
-1.3254e-16
8.48092e-20
1.95667e-19
1.56439e-20
-1.11882e-20
-1.05688e-22
-1.88386e-20
3.44406e-20
2.64562e-18
9.7111e-19
2.16633e-15
1.30768e-20
1.06332e-18
1.52358e-19
-4.60922e-20
5.99572e-21
-4.54843e-24
-2.08339e-23
-1.76668e-24
3.22628e-24
-6.59308e-24
-1.46984e-22
-5.69503e-22
-1.93492e-24
1.60182e-23
-1.67202e-23
-6.11768e-22
3.13042e-24
-1.54397e-23
3.39577e-24
4.81428e-24
-4.90145e-23
4.50867e-24
-4.36961e-23
7.61354e-23
-2.58889e-22
5.56285e-24
-9.99296e-15
2.65412e-17
5.09702e-18
9.85607e-15
2.03442e-16
2.23621e-16
-1.28069e-14
2.31884e-17
1.52557e-16
3.86096e-18
-4.31692e-18
-1.30676e-17
7.5668e-19
2.5121e-17
-3.87934e-16
1.48172e-18
3.10864e-16
-6.35603e-17
-2.23278e-16
-1.1746e-17
2.71174e-18
-9.87334e-17
-1.83011e-17
-5.4017e-19
3.51957e-19
-3.56236e-16
-5.04012e-18
1.15143e-16
1.30867e-15
-1.96604e-15
1.22971e-17
-4.31644e-17
1.64694e-17
6.56129e-16
2.29042e-17
-1.53936e-16
2.12701e-18
-1.97342e-11
9.06195e-12
4.15213e-12
-6.47029e-12
1.09497e-11
5.74058e-11
1.21931e-12
9.309e-13
9.55708e-12
2.18251e-12
-1.17827e-12
1.35356e-12
-2.44526e-12
2.93004e-08
7.666e-08
9.1924e-09
-1.48235e-07
8.73276e-11
2.88459e-09
1.93614e-09
-7.83378e-09
4.29701e-09
-1.18355e-08
-7.10628e-09
-1.85697e-09
-4.21319e-10
1.41228e-08
-1.04628e-09
-5.34082e-09
-2.29448e-09
-1.605e-09
-6.18191e-09
-5.75055e-10
-2.65568e-09
-8.42072e-09
1.26603e-10
-7.15154e-09
-4.62833e-09
9.02421e-08
3.43277e-08
2.62627e-09
1.59161e-08
-6.63802e-10
-1.88087e-08
-1.52588e-09
-4.85031e-10
-1.03694e-08
5.53638e-08
5.32219e-08
-8.33465e-09
-1.19684e-09
-5.42397e-09
3.15609e-09
7.24636e-10
-1.30355e-08
1.01296e-09
7.98516e-10
6.24027e-08
2.5429e-08
-8.03156e-08
5.81254e-08
-1.80755e-08
-5.85507e-07
-6.22257e-08
1.39e-09
1.78309e-10
5.55644e-09
4.32381e-09
-1.95144e-07
8.25423e-09
1.95077e-09
-6.1624e-09
7.10967e-07
-1.33319e-06
9.26173e-07
-1.05626e-06
7.17076e-07
1.06651e-06
-1.13981e-06
-1.17877e-06
8.58233e-07
-2.08161e-09
-2.00452e-06
-9.09685e-07
2.60341e-06
-2.70991e-06
3.61543e-06
1.43421e-07
4.64345e-08
-3.31648e-07
7.04445e-07
1.57436e-07
-4.28887e-08
-8.36086e-08
-3.09385e-08
-2.88837e-08
-5.8593e-08
2.44912e-07
-2.93091e-08
-4.24635e-08
-2.74604e-08
2.92853e-09
-4.77735e-09
-1.09844e-08
-5.89396e-08
-8.90473e-08
3.33827e-08
-1.83641e-07
-3.41437e-08
-3.73788e-09
-1.05764e-07
1.43646e-07
2.36017e-08
-3.26145e-08
-2.51308e-08
-3.79604e-08
5.7824e-08
1.42566e-08
-1.27871e-08
-1.07234e-07
-6.54127e-08
4.70548e-08
2.92093e-07
-1.09779e-07
-2.20275e-07
-5.60444e-07
9.10362e-07
-1.26754e-07
-4.84382e-08
-6.99946e-07
-5.48825e-08
-3.70363e-07
-3.29587e-08
-5.10556e-07
-1.17258e-08
2.55329e-08
3.55168e-08
-4.93239e-08
1.07234e-07
-4.65527e-08
-7.24071e-08
8.15006e-09
1.24616e-07
-6.57468e-08
2.16469e-07
-1.15206e-07
1.44566e-07
-2.56866e-07
1.54585e-07
-9.83874e-08
-4.80475e-08
1.49124e-08
2.64289e-07
-2.69528e-07
5.00909e-07
-2.23349e-07
-9.5312e-09
-2.31575e-08
5.14865e-10
3.21738e-08
3.35811e-09
-2.8388e-08
1.54986e-08
-2.45771e-08
3.27822e-08
-9.71769e-08
3.60068e-08
6.66794e-08
-2.92815e-08
-5.42353e-08
-3.101e-07
-3.14879e-08
1.52234e-08
2.00172e-08
1.0192e-07
-5.44588e-08
2.12123e-08
4.89353e-08
-1.56888e-08
1.56599e-07
2.90783e-08
-2.40136e-07
5.72265e-08
1.20584e-07
-3.58058e-08
2.15908e-07
-1.31167e-07
1.67024e-07
-1.73751e-07
1.50906e-07
7.33437e-08
4.87399e-07
-8.55042e-07
1.82612e-07
3.62437e-07
-6.74284e-08
6.23178e-07
-1.40555e-06
6.71362e-08
-1.93235e-07
5.24659e-07
-3.7022e-07
6.77895e-07
4.08923e-07
-1.55417e-07
5.4804e-07
8.97401e-07
-6.66977e-07
-6.24246e-07
4.03607e-07
-1.38868e-06
1.51921e-06
7.79106e-07
-4.59312e-08
-1.07901e-06
1.98236e-07
-6.22731e-08
3.92207e-08
9.46925e-07
1.01257e-06
-9.97696e-07
3.42379e-07
5.17206e-08
7.5351e-07
6.00477e-08
-7.8756e-07
1.79172e-06
-1.4374e-06
-1.89464e-08
1.23008e-06
1.38439e-06
-1.30597e-06
1.53571e-07
2.40087e-06
-3.45005e-07
4.61328e-07
1.17916e-06
-2.257e-06
9.3863e-07
1.17623e-09
9.84441e-10
-9.44413e-09
3.37982e-09
-4.58208e-10
-6.30224e-10
2.12779e-09
-4.22415e-10
3.47287e-10
4.227e-09
-1.33555e-09
-1.0992e-08
-9.19828e-10
3.21265e-09
9.92632e-11
-1.81527e-10
-1.93511e-09
2.76045e-11
2.1021e-11
-2.51431e-11
-7.77861e-11
-6.08143e-13
1.31582e-13
5.36121e-12
3.5132e-12
4.04419e-13
4.8186e-12
-9.11573e-11
-5.83573e-11
-4.68038e-13
-7.67418e-13
-1.40836e-10
6.02411e-11
-6.56716e-10
-9.16668e-15
-2.54275e-13
-1.54967e-13
3.97906e-13
-1.94758e-14
-9.37221e-16
-5.15173e-17
1.45867e-13
-1.24336e-12
5.30034e-13
-5.14723e-13
-1.97126e-14
-1.95969e-13
1.5057e-12
-2.50077e-12
1.94088e-12
-4.17888e-11
-1.76754e-12
5.27117e-13
-9.5655e-14
1.82962e-14
3.88838e-12
-6.68563e-12
-2.44478e-11
-1.79044e-14
2.88052e-13
-5.06016e-11
9.96826e-12
-1.21647e-10
1.69715e-11
-5.50203e-10
-1.98029e-12
2.58511e-13
3.92043e-12
3.72582e-13
-4.45354e-12
-2.28616e-14
-4.80155e-14
-4.23061e-14
-1.39491e-16
-1.86896e-18
1.51616e-17
5.69755e-18
1.32657e-16
-2.02568e-18
-3.4329e-15
-1.70914e-16
6.39462e-17
1.93426e-16
-2.31102e-16
-2.11547e-20
9.61611e-17
6.66848e-18
-2.11045e-17
-2.22712e-16
-1.46729e-18
2.06767e-18
3.03468e-18
-3.68508e-17
4.87248e-18
5.81714e-33
5.7031e-34
-5.34657e-33
-6.37643e-33
-1.59238e-32
-8.49679e-30
4.48557e-31
-1.48181e-33
1.14055e-33
1.75587e-32
-1.01516e-33
-1.86581e-31
-5.69739e-35
6.97585e-29
5.23215e-33
-1.4961e-32
2.43335e-34
6.23053e-29
-1.09265e-27
1.45517e-27
-6.17057e-28
-5.38589e-28
4.75407e-29
2.3037e-29
9.08724e-28
-1.37315e-26
-6.48001e-30
-6.43366e-29
3.02087e-29
-3.34108e-29
4.33533e-30
-2.81283e-29
1.30173e-27
-5.34111e-24
-2.36826e-25
4.23367e-25
5.46132e-25
3.78664e-24
2.93246e-24
-3.3001e-23
-8.38327e-26
6.73249e-25
-1.56537e-25
1.90723e-25
8.40559e-26
5.9164e-24
-3.54882e-24
5.18391e-25
5.08088e-24
9.4384e-25
3.77465e-29
5.68039e-30
2.57548e-28
-7.69371e-30
5.07714e-29
-2.62092e-30
1.40353e-32
3.00279e-30
2.4124e-32
-1.79108e-46
1.81824e-46
-5.62764e-49
-9.17755e-48
1.86733e-44
-1.06929e-45
-1.7793e-44
-1.50144e-47
1.88688e-44
-6.21862e-48
1.09957e-48
3.42679e-49
2.17094e-48
-4.28304e-47
1.45693e-47
-1.08227e-45
1.74744e-49
-7.38188e-55
-5.68826e-52
-9.61346e-54
5.78925e-52
1.73744e-56
1.81727e-57
-1.12501e-54
-2.37659e-52
-6.37308e-52
-3.39496e-54
3.3911e-54
3.01127e-57
2.13528e-53
-2.59906e-53
1.82587e-52
-1.55721e-51
7.18242e-53
-2.61311e-67
3.40684e-68
4.28256e-68
-1.57577e-69
3.38751e-66
1.79022e-66
-2.1323e-64
2.85974e-67
3.31548e-67
1.51319e-68
2.12744e-67
1.54195e-66
5.74465e-68
3.27502e-70
-8.99433e-67
5.54067e-67
-9.5539e-67
-1.74651e-79
-2.70107e-80
6.56562e-81
3.1567e-80
5.58534e-78
3.12955e-79
-4.05203e-77
1.34605e-77
-3.79245e-77
4.7685e-81
-3.42477e-80
2.04639e-81
-1.11177e-79
1.00736e-79
8.55769e-80
1.4695e-79
1.33015e-77
2.58953e-73
8.45389e-73
-1.40458e-72
-2.41197e-75
3.27702e-67
-3.36309e-68
-4.9023e-66
-2.92101e-70
1.08722e-67
5.13626e-73
5.29197e-71
-6.16369e-71
5.07082e-73
2.91788e-70
-3.38787e-68
2.13912e-74
-1.02268e-80
-4.1416e-72
-1.30866e-71
1.72282e-71
2.10302e-81
-2.38533e-82
-1.58845e-79
-6.7535e-71
2.22751e-72
-1.94497e-79
1.02417e-79
1.34928e-81
7.70232e-78
-8.13148e-78
1.25645e-70
-1.9318e-70
7.10989e-72
1.18206e-70
-4.80369e-72
7.42488e-78
5.02326e-76
-5.18152e-76
5.32048e-78
1.68106e-78
-3.45291e-68
3.46473e-68
-1.08528e-67
-6.76704e-66
7.21615e-73
-8.71337e-73
4.29303e-73
-3.68909e-71
-4.27522e-72
-5.14583e-73
5.9688e-73
-1.02845e-71
-3.6137e-70
-3.0538e-71
3.17082e-70
4.69561e-70
-8.92539e-70
-3.66983e-72
1.20367e-73
1.05426e-70
2.05491e-71
-3.97729e-78
5.20872e-78
2.06262e-77
8.46187e-65
-2.27569e-63
6.60141e-64
-5.81136e-65
-1.18054e-62
1.35623e-63
7.4799e-63
1.25656e-60
-1.26535e-60
-1.17897e-60
-1.83385e-62
1.19758e-60
-4.16501e-60
6.65402e-61
1.79197e-62
-2.93547e-60
-1.14231e-64
-1.31348e-57
-2.24673e-57
-3.88121e-58
-2.70801e-58
-3.05394e-56
2.76481e-56
-1.58821e-58
-1.43057e-56
-1.61432e-56
1.13842e-57
3.62713e-58
3.2164e-56
-1.59551e-55
6.76374e-59
4.9206e-58
2.4646e-59
1.5828e-52
9.66664e-52
-5.90331e-52
-5.75738e-51
2.41264e-52
-1.02276e-51
2.67014e-53
-1.40741e-51
1.14413e-51
-1.04427e-50
1.52026e-50
-7.20917e-50
1.01545e-50
-4.86475e-50
7.02568e-53
1.56731e-52
2.15196e-51
-2.14322e-53
-6.62069e-52
-7.69066e-52
-2.34325e-50
7.24937e-51
-1.12481e-48
9.93143e-49
5.63219e-50
-1.72821e-48
3.94529e-49
1.07093e-50
1.18058e-46
-1.21909e-46
-2.19642e-44
-2.16389e-46
2.21869e-44
-2.10696e-44
6.56697e-46
6.21017e-47
3.55665e-43
1.0188e-47
3.1556e-46
1.05727e-42
-1.92447e-44
-1.03863e-42
3.11406e-44
-3.09332e-44
-7.71843e-41
-4.08982e-40
1.03678e-42
-1.0871e-42
-3.73757e-40
-3.89103e-41
-1.14323e-39
1.415e-38
1.35427e-38
-5.67164e-39
-7.54128e-38
-1.59703e-39
-1.34176e-39
-7.23128e-40
-3.18155e-41
5.95114e-41
-5.746e-39
-3.5225e-39
-1.11849e-38
-2.78472e-38
-1.73495e-39
1.71062e-35
-1.67174e-35
-4.32591e-37
2.2368e-37
-1.56981e-37
-1.14146e-37
-3.80682e-33
-1.38796e-33
-7.97876e-37
-4.95849e-35
-8.27511e-38
4.04996e-36
-5.06555e-36
4.53232e-33
-2.58733e-32
-9.74144e-34
-1.41402e-30
-4.51135e-30
-6.33979e-31
3.55915e-30
-9.30961e-31
-6.51167e-30
7.12292e-31
-3.60258e-29
1.68013e-30
-3.64996e-29
1.37286e-29
1.9741e-29
-5.61189e-29
-2.6021e-30
3.75936e-28
-3.16989e-27
-9.61006e-28
-6.53877e-32
-4.44514e-32
5.37058e-32
1.10971e-32
2.32687e-31
3.76693e-31
-7.27039e-31
-2.2271e-29
2.24173e-29
1.1024e-27
-9.08618e-28
-4.64517e-27
-6.90371e-29
1.19292e-27
-1.63078e-30
1.67129e-30
1.1039e-33
1.45779e-28
-1.47052e-28
8.3231e-28
-2.1252e-27
2.53097e-28
4.52001e-33
-1.38018e-30
5.63439e-31
1.32194e-31
-1.23977e-30
4.46446e-31
2.96309e-32
1.21794e-30
-3.6693e-30
-3.28116e-31
-3.5463e-31
9.82002e-31
-7.71908e-31
2.37936e-31
-9.03359e-32
9.65536e-32
7.22117e-22
4.2257e-22
5.6138e-22
-1.49564e-23
2.47415e-23
4.64017e-22
2.47072e-22
-1.39509e-23
9.57888e-21
-1.00996e-21
-2.74456e-22
1.72399e-20
5.16801e-23
-1.62709e-18
-9.03254e-18
4.53749e-18
3.11676e-18
-5.91391e-18
-6.67568e-23
-3.04043e-17
-4.64705e-18
1.19349e-17
1.89582e-17
-9.59492e-17
5.83488e-18
9.58868e-17
1.87762e-16
3.07994e-15
-1.76203e-15
8.33067e-17
1.00875e-16
-9.27738e-16
-2.00286e-14
5.18594e-14
-7.97507e-15
6.15349e-15
8.45706e-15
-3.53941e-15
-5.03212e-15
2.21948e-15
1.13352e-15
-4.87873e-15
1.60041e-14
-6.92939e-16
2.2822e-15
1.16377e-14
-1.20214e-14
4.38355e-15
8.93369e-15
-1.39828e-14
-3.37739e-17
-6.16614e-15
-3.47563e-16
1.08971e-14
-2.03857e-15
-1.58103e-14
3.53923e-15
-8.14731e-15
4.16847e-15
-1.90265e-13
-1.86127e-14
6.21405e-14
1.13662e-13
5.52167e-14
1.3807e-14
-2.86411e-13