/*--------------------------------*- C++ -*----------------------------------*\
| =========                 |                                                 |
| \\      /  F ield         | OpenFOAM: The Open Source CFD Toolbox           |
|  \\    /   O peration     | Version:  v2012                                 |
|   \\  /    A nd           | Website:  www.openfoam.com                      |
|    \\/     M anipulation  |                                                 |
\*---------------------------------------------------------------------------*/
FoamFile
{
    version     2.0;
    format      ascii;
    class       volScalarField;
    location    "0.1";
    object      p;
}
// * * * * * * * * * * * * * * * * * * * * * * * * * * * * * * * * * * * * * //

dimensions      [1 -1 -2 0 0 0 0];


internalField   nonuniform List<scalar> 
6576
(
-402.182
-422.879
-392.828
-398.762
-409.201
-388.123
-387.868
-378.132
-395.764
-393.047
-394.932
-384.886
-372.41
-386.821
-299.998
-315.028
-351.19
-346.312
-321.846
-316.334
-350.432
-382.684
-392.268
-461.283
-293.23
-254.846
-180.744
-432.692
-427.362
-427.239
-418.195
-409.786
-371.13
-274.896
-255.628
-272.751
-297.784
-297.802
-285.809
-291.595
-324.127
-373.689
-321.113
30.8832
5.03962
42.8602
11.8891
27.5759
70.1706
45.2988
20.2652
44.7445
-2.92227
-2.92375
-2.93561
-2.89281
-2.89673
-2.91025
-2.90538
-2.92345
-2.89438
-2.88448
-2.86852
-2.90019
-2.92498
-2.89251
-2.71187
-2.74435
-2.76047
-2.7746
-2.74472
-2.80743
-2.77463
0.160151
0.0849471
0.174876
0.144778
0.204233
0.253646
0.194803
0.0254766
0.0223717
-0.0408707
0.0115058
0.0808269
0.0327182
-0.0292227
0.358994
0.306611
0.241212
0.208784
0.107136
0.285902
0.206233
53.5972
44.9154
82.5848
8.88945
29.4469
55.1343
27.4879
183.63
157.074
149.52
157.295
184.122
136.456
163.498
163.942
151.681
191.176
138.351
165.282
165.78
-3.00385
-2.91787
-3.05076
-3.03032
-2.83223
-3.03733
-3.01253
-14.6665
-99.8067
-167.52
-113.05
-53.0896
-25.2344
9.03925
-3.00255
-3.16426
-3.05111
-3.00656
-3.17558
-2.96608
-3.37835
-1.58166
-1.55303
-1.59562
-1.57604
-1.52875
-1.52309
-1.56834
-1.77646
-1.76626
-1.73122
-1.77402
-1.71977
-1.70664
-1.754
-1.92299
-1.90322
-1.94988
-1.84703
-1.87641
-1.90983
-1.88327
-1.94682
-1.98627
-1.95018
-1.93668
-1.97777
-1.95634
-1.90802
-1.96073
-1.91682
-2.06367
-2.10343
-2.0833
-2.01507
-2.03749
-2.068
-2.04688
-2.11014
-2.14221
-2.11485
-2.07999
-2.11586
-2.07661
-2.11757
-2.09964
-2.06322
-2.30057
-2.3068
-2.29305
-2.29132
-2.30007
-2.28062
-2.27477
-2.27965
-2.28518
-2.35357
-2.3445
-2.38151
-2.35179
-2.3243
-2.36906
-2.34258
-2.29972
-2.32232
-2.32782
-2.28532
-2.28475
-2.3084
-2.31217
-2.35834
-2.36376
-2.30347
-2.34299
-2.38164
-2.36333
-2.32195
-2.77617
-2.78069
-2.54061
-2.54385
-2.60808
-2.81658
-2.76281
-2.58225
-2.59578
-2.55912
-2.54472
-2.58032
-2.57448
-2.53916
-2.49684
-2.52121
-2.47696
-2.49175
-2.46944
-2.43693
-2.4598
-2.36913
-2.34086
-2.36296
-2.38013
-2.35156
-2.33645
-2.36054
-2.27754
-2.29145
-2.2548
-2.30398
-2.32648
-2.2788
-2.29991
-2.1771
-2.13149
-2.155
-2.21674
-2.19682
-2.20186
-2.18117
-2.1488
-2.17063
-2.0284
-1.97686
-2.00236
-2.02438
-2.04685
-1.98633
-2.01008
-1.67563
-1.69279
-1.66042
-1.61941
-1.6535
-1.65731
-1.62456
187.302
160.27
154.252
174.256
147.345
115.42
141.915
127.599
154.82
45.9927
79.1612
48.6864
49.9885
22.6978
37.5882
11.1587
0.318803
0.242368
0.350973
0.543644
0.285469
0.283589
0.386836
0.320148
0.390581
93.2158
50.592
63.2918
-0.0385757
0.437989
-0.262441
-0.672623
-0.385032
0.626783
-0.908384
-0.480192
-0.428192
-0.433399
-0.442919
-0.488746
-0.460942
-0.41748
-6.94573
-4.57532
-4.39922
-4.67596
-4.98442
-3.83397
-5.10524
-5.68968
-3.77995
-0.415355
-0.381689
-0.357647
-0.496269
-0.463872
-0.444298
-0.417977
0.0470064
0.0228213
0.0621309
-0.162626
-0.0239163
0.0666803
-0.00493676
0.201758
0.440088
0.193507
0.157801
0.194945
0.259238
0.204527
0.275312
0.35271
0.394984
0.337877
0.0181172
0.132981
0.556198
0.0989926
-0.198902
0.111579
0.0608355
188.917
189.495
199.529
162.674
162.48
173.059
172.81
188.572
188.043
201.256
174.113
161.192
115.261
141.332
155.179
169.204
25.7489
1.7234
41.9912
53.4966
82.3858
27.068
56.7624
0.226446
-0.44576
1.57588
1.8636
1.51819
0.888902
0.331615
-0.0227459
0.0312601
-0.0120641
0.0749877
0.084009
0.0507076
0.0605861
0.0126896
0.00187377
-0.0838051
-0.0825607
-0.0320008
0.00390756
0.0102467
-0.0526845
-0.047619
-0.0244855
0.0339584
-0.0447606
0.148826
0.110947
0.102144
0.0755762
-0.00239299
0.0170977
0.682338
0.899278
0.831427
-0.79635
-1.1001
-0.885891
-0.659402
0.462126
0.987228
0.256645
1.05706
1.5113
1.37863
1.08497
-2.26208
-2.28099
-2.30893
-2.2464
-2.27326
-2.27861
-2.30672
-2.32246
-2.35671
-2.36808
-2.35334
-2.32051
-2.34935
-2.38241
-2.24238
-2.26116
-2.29126
-2.25516
-2.22614
-2.25891
-2.28916
-2.23976
-2.27299
-2.22291
-2.22349
-2.25524
-2.20433
-2.17147
-2.22076
-2.1894
-2.3732
-2.40643
-2.35828
-2.37131
-2.34129
-2.40507
-2.37285
-2.48017
-2.42747
-2.46398
-2.48237
-2.51593
-2.44955
-2.48252
-2.48274
-2.49862
-2.53156
-2.46582
-2.43208
-2.46576
-2.49725
-2.74426
-2.72789
-2.69372
-2.74774
-2.78084
-2.74709
-2.71223
-2.58109
-2.61312
-2.61792
-2.61391
-2.64697
-2.6663
-2.63274
-2.80071
-2.74918
-2.76619
-2.59499
-2.61125
-2.55817
-2.91817
-2.88546
-2.88336
-2.88667
-2.91836
-2.89682
-2.86681
-2.87732
-2.88318
-2.91541
-2.82673
-2.86018
-2.85048
-2.88167
-2.90015
-2.93265
-2.86835
-2.87691
-2.82798
-2.86045
-2.91689
-2.88545
-2.90098
-2.86901
-2.84443
-2.87705
-2.93471
-2.91784
-2.91672
-2.90253
-2.88614
-2.8772
-2.82877
-2.86214
-2.89462
-2.92062
-2.92167
-2.93515
-2.89009
-2.88914
-2.90235
-2.90222
-2.62688
-2.60892
-2.57723
-2.64069
-2.67312
-2.625
-2.65708
-2.6247
-2.59333
-2.48557
-2.45537
-2.50105
-2.51729
-2.54946
-2.48763
-2.51749
-2.51327
-2.5546
-2.52282
-2.49603
-2.52458
-2.55412
-2.52326
-2.37544
-2.38964
-2.40316
-2.40564
-2.43575
-2.43475
-2.40579
-2.17661
-2.13863
-2.17302
-2.21274
-2.18211
-2.18738
-2.1696
-2.20271
-2.2196
-2.23506
-2.19993
-2.21469
-2.15138
-2.14256
-2.15624
-2.19441
-2.19484
-2.17404
-2.18063
-2.27818
-2.30666
-2.31696
-2.33073
-2.39802
-2.34135
-2.30158
-1.91938
-1.80629
-1.90575
-1.71125
-1.74713
-1.85159
-1.85854
-1.39793
-1.50771
-1.45672
-1.2848
-1.33814
-1.32291
-1.37616
-1.45997
-1.40981
-1.06604
-1.0045
-1.09468
-1.01222
-1.07044
-1.06941
-1.1304
-0.407956
-0.449945
-0.461336
-0.473592
-0.516634
-0.48439
-0.443598
-0.510776
-0.542479
-0.484678
-0.475933
-0.504814
-0.43495
-0.465074
-0.456531
-0.4944
-0.508697
-0.561852
-0.522159
-0.490914
-0.52823
-0.164425
-0.194052
-0.146549
-0.133735
-0.162343
-0.101993
-0.1306
-0.0145385
0.0156029
-0.028621
-0.0450432
-0.0743902
0.0143932
-0.0143854
-0.0141922
-0.0438341
-0.0792783
-0.048566
-0.0326084
0.00140812
-0.0302278
-0.0298584
-0.0610605
-0.0480159
-0.0793755
0.108468
0.140032
0.0941664
0.0945036
0.0632628
0.0765626
0.109834
0.0606171
0.0929992
0.0489239
0.0964163
0.133751
0.0968668
0.0970261
0.0652794
0.0472758
0.271824
0.303576
0.219724
0.240637
0.177136
0.214058
0.768999
0.525541
0.639139
0.349084
0.540656
0.183138
0.211592
0.146332
-0.032678
0.118691
-0.045051
0.158823
0.383964
0.255797
0.287463
-0.0289015
0.173801
0.150518
-0.106056
-0.543351
0.68537
0.310947
-0.145929
0.359157
0.168022
-1.4965
-0.818461
0.388129
0.132273
0.0713111
-0.0214717
0.197046
87.8381
59.9538
49.2371
36.676
4.6811
33.0495
62.9003
155.683
142.539
169.649
113.887
139.134
152.432
187.242
161.104
161.036
135.153
161.419
187.552
153.343
161.347
187.74
140.225
112.783
166.881
140.182
173.452
199.614
173.295
187.962
187.988
198.396
161.515
161.658
184.317
184.203
157.907
158.055
190.431
190.608
201.126
164.57
164.358
175.013
149.012
168.498
155.682
142.387
190.693
164.403
156.534
190.767
164.408
143.426
169.824
139.622
113.551
151.993
165.167
138.82
112.524
139.281
34.7479
51.1512
16.267
87.8039
59.9125
35.0128
59.5678
33.2896
8.29744
46.7281
55.583
86.2233
29.3608
56.2502
0.649034
0.510941
0.449677
0.510654
0.414316
0.407636
0.427593
0.333404
0.339295
0.312323
0.358094
0.351325
0.327526
0.347984
0.344747
0.334207
0.363127
0.349392
0.356739
0.375876
0.376627
0.304024
0.338624
0.308875
0.355649
0.381897
0.350647
0.362902
0.326895
0.319709
0.211033
0.246514
0.237957
0.276057
0.233217
0.266024
0.227927
0.251903
0.217458
0.296527
0.300261
0.269868
0.280637
0.283556
0.255422
0.252624
-1.80455
-1.81503
-1.75879
-1.86127
-1.81578
-1.78735
-1.82892
-1.84012
-1.82017
-1.87897
-1.87492
-1.85725
-1.90526
-1.92247
-1.98185
-1.99772
-1.94311
-1.89282
-1.9147
-1.97355
-1.99317
-2.02505
-1.9554
-1.92053
-1.95841
-1.98841
-2.01662
-1.96649
-1.98458
-1.97935
-1.94936
-1.98473
-2.01511
-1.92709
-1.89251
-1.94651
-1.9281
-1.96059
-1.99673
-1.96279
-2.07791
-2.02452
-2.06054
-2.08042
-2.11558
-2.04742
-2.08045
-2.07842
-2.09624
-2.13196
-2.0273
-2.0624
-2.06293
-2.09559
-2.26535
-2.21169
-2.21316
-2.20965
-2.1707
-2.1744
-2.20729
-2.23029
-2.15738
-2.2088
-2.22424
-2.19265
-2.16002
-2.34769
-2.39835
-2.34761
-2.3317
-2.29785
-2.36564
-2.29705
-2.33108
-2.49964
-2.48391
-2.53225
-2.46839
-2.48624
-2.43424
-2.53545
-2.50289
-2.46861
-2.50035
-2.79673
-2.7644
-2.74872
-2.73098
-2.69777
-2.73146
-2.76253
-2.74919
-2.76518
-2.79817
-2.73334
-2.69997
-2.73332
-2.76502
-2.88234
-2.897
-2.8656
-2.7341
-2.75145
-2.70144
-2.79903
-2.76697
-2.73445
-2.76528
-2.88444
-2.90022
-2.93248
-2.86902
-2.89969
-2.89945
-2.89941
-2.9323
-2.89996
-2.90145
-2.88743
-2.87075
-2.92206
-2.92322
-2.93603
-2.89002
-2.89032
-2.9028
-2.90099
-2.91812
-2.88503
-2.88347
-2.91766
-2.88606
-2.86759
-2.89708
-2.73561
-2.70455
-2.75123
-2.76479
-2.79782
-2.76638
-2.73604
-2.76655
-2.79823
-2.48832
-2.50336
-2.45958
-2.54802
-2.51883
-2.48989
-2.5179
-2.36794
-2.37635
-2.39669
-2.37963
-2.41095
-2.38764
-2.4152
-2.28846
-2.28407
-2.27397
-2.30282
-2.28467
-2.27697
-2.25227
-2.25245
-2.24974
-2.26209
-2.25493
-2.2724
-2.29245
-2.31205
-2.32343
-2.25865
-2.27293
-2.27329
-2.27777
-2.29859
-2.30245
-2.14345
-2.14106
-2.10928
-2.12028
-2.12038
-2.06386
-2.07483
-2.08441
-2.07966
-1.48163
-1.50591
-1.47406
-1.41193
-1.44883
-1.46003
-1.42048
-1.31375
-1.37385
-1.298
-1.27852
-1.22531
-1.27319
-1.32177
-1.07662
-1.03114
-1.10022
-1.10071
-1.05429
-1.17214
-1.11986
-1.10013
-1.14862
-0.915165
-0.937292
-0.87211
-0.997602
-0.954014
-0.913765
-0.954719
-0.378998
-0.411343
-0.414439
-0.445062
-0.411597
-0.465814
-0.430517
-0.283326
-0.265602
-0.234951
-0.285304
-0.315906
-0.317108
-0.286573
-0.297478
-0.267037
-0.332006
-0.284912
-0.250022
-0.28219
-0.282649
-0.31384
-0.332824
-0.18708
-0.154681
-0.152073
-0.154937
-0.121805
-0.136094
-0.103625
-0.205803
-0.155842
-0.172936
-0.0259833
0.0226309
-0.010139
0.0981314
0.152745
0.114248
0.293927
0.0727484
0.13968
0.0252952
-0.321328
-0.156194
0.0186221
169.008
155.797
142.808
161.795
148.591
135.292
135.69
108.985
109.623
135.358
200.347
174.037
174.039
189.331
189.406
199.905
163.172
163.087
173.671
173.51
169.101
156.123
143.034
189.985
163.781
155.852
169.287
142.672
163.694
190.183
170.018
196.519
157.235
170.809
143.963
170.165
15.1338
32.5853
51.3892
59.8689
88.1447
61.1548
36.6513
30.9643
7.32774
45.7722
56.0862
83.7821
31.1941
57.3185
1.00469
0.835208
1.07524
0.944317
1.01193
1.19752
1.92049
0.656914
0.587329
0.77555
0.865942
0.967226
0.787178
0.897893
0.484326
0.462552
0.473534
0.445621
0.460064
0.446652
0.463529
0.357963
0.378579
0.363251
0.377062
0.362503
0.369544
0.386858
0.278077
0.305949
0.308973
0.314504
0.299142
0.270972
0.297601
0.242606
0.212674
0.20372
0.241538
0.210705
0.188585
0.218948
-0.124598
-0.0531322
-0.0881511
-0.0754981
-0.151062
-0.155918
-0.0822843
-1.59879
-1.58201
-1.62352
-1.64477
-1.60238
-1.60831
-1.65114
-1.69478
-1.71674
-1.75018
-1.67583
-1.63801
-1.67988
-1.7108
-1.70608
-1.74025
-1.68814
-1.69888
-1.66937
-1.73788
-1.70476
-1.72823
-1.67796
-1.69465
-1.68994
-1.65959
-1.69307
-1.72625
-1.72059
-1.6702
-1.68659
-1.68328
-1.65267
-1.72043
-1.6871
-1.85751
-1.81886
-1.80506
-1.8397
-1.80222
-1.78734
-1.75092
-1.7686
-1.80478
-1.6584
-1.60261
-1.6407
-1.66056
-1.69733
-1.62555
-1.66084
-1.65933
-1.67761
-1.7135
-1.64289
-1.60649
-1.64397
-1.67693
-1.80009
-1.7625
-1.80231
-1.79936
-1.83542
-1.85798
-1.82147
-1.97845
-1.94268
-1.94041
-1.88674
-1.92295
-1.909
-1.94331
-1.79849
-1.74359
-1.77931
-1.9966
-1.94464
-1.96212
-2.1338
-2.09851
-2.08253
-2.26983
-2.23599
-2.21938
-2.20341
-2.23524
-2.16771
-2.20185
-2.22346
-2.23623
-2.27106
-2.20934
-2.17309
-2.40283
-2.37184
-2.35578
-2.33759
-2.30396
-2.33829
-2.36953
-2.22432
-2.17281
-2.20555
-2.24039
-2.2098
-2.17587
-2.20667
-2.41359
-2.36736
-2.37922
-2.38415
-2.35168
-2.38095
-2.41486
-2.62575
-2.64035
-2.67284
-2.60875
-2.57729
-2.80516
-2.77265
-2.75821
-2.80511
-2.77335
-2.77316
-2.74248
-2.575
-2.60502
-2.62076
-2.63572
-2.60558
-2.60603
-2.57546
-2.77332
-2.80478
-2.75893
-2.77347
-2.80445
-2.77164
-2.74222
-2.884
-2.86699
-2.89823
-2.88183
-2.91446
-2.87674
-2.84987
-2.88061
-2.8604
-2.82777
-2.89839
-2.93269
-2.86706
-2.92037
-2.88674
-2.876
-2.88544
-2.85362
-2.82593
-2.85957
-2.92404
-2.92273
-2.93738
-2.88989
-2.88802
-2.90283
-2.86954
-2.89578
-2.88124
-2.86493
-2.91934
-2.92075
-2.93495
-2.88585
-2.8863
-2.89836
-2.89854
-2.85427
-2.82035
-2.86688
-2.8179
-2.85272
-2.88366
-2.84944
-2.91433
-2.87881
-2.87628
-2.91359
-2.88025
-2.85706
-2.88851
-2.74134
-2.78329
-2.733
-2.75366
-2.71804
-2.78493
-2.74647
-2.95246
-2.7121
-2.27438
-3.09511
-3.32193
-3.37685
-2.87733
-2.18879
-2.02444
-2.02705
-2.15091
-1.99342
-2.33091
-2.06201
-2.93384
-2.78098
-3.0383
-2.67925
-2.68967
-2.84115
-2.89269
-2.10782
-2.15787
-2.10396
-2.19131
-2.22116
-2.16236
-2.18216
-2.13693
-2.13135
-2.07715
-2.06141
-2.07161
-2.09268
-2.06681
-2.05986
-2.07927
-2.05306
-2.08672
-2.07625
-2.07013
-2.09823
-2.05085
-2.0761
-1.80084
-1.75561
-1.80705
-1.80773
-1.85202
-1.81906
-1.86059
-1.79369
-1.83598
-1.76758
-1.82362
-1.7961
-1.70441
-1.73434
-1.72764
-1.75732
-1.80153
-1.77291
-1.55386
-1.6059
-1.60243
-1.57618
-1.62065
-1.54925
-1.59302
-1.25918
-1.24114
-1.2021
-1.2792
-1.31881
-1.279
-1.24199
-1.278
-1.26131
-1.31579
-1.2018
-1.23918
-1.27535
-1.2401
-0.964772
-0.94665
-0.91034
-0.984943
-1.02162
-0.983804
-0.949143
-1.0279
-0.99009
-0.975202
-0.99194
-1.02778
-0.957493
-0.990934
-0.841419
-0.878264
-0.822815
-0.804852
-0.769705
-0.80578
-0.839884
-0.510481
-0.542251
-0.542126
-0.509127
-0.540595
-0.557972
-0.525841
-0.646934
-0.681544
-0.685375
-0.739578
-0.703705
-0.682404
-0.716731
-0.496523
-0.544613
-0.54592
-0.595419
-0.495696
-0.561018
-0.359764
-0.393585
-0.409894
-0.396813
-0.362474
-0.412193
-0.428898
-0.4635
-0.395347
-0.428357
-0.231278
-0.263641
-0.280197
0.650999
0.426698
0.548565
0.364269
0.208188
0.340097
0.418845
161.047
147.871
134.293
135.162
108.515
107.975
134.594
199.685
173.301
173.477
189.134
189.606
200.245
163.782
163.333
174.448
174.691
168.715
156.215
142.56
46.0638
59.188
33.0854
5.89809
30.0607
30.7485
6.41505
48.9474
29.1548
3.49804
33.4191
59.3527
33.1422
13.5014
0.406916
0.435666
0.422055
0.373165
0.380226
0.400527
0.390635
0.446842
0.422766
0.447553
0.468228
0.441682
0.446683
0.472386
0.452866
0.4798
0.347713
0.347156
0.374096
0.357236
0.36291
0.378139
0.38737
0.339799
0.31507
0.334433
0.359392
0.3299
0.355503
0.31882
0.334421
0.366064
0.208745
0.16923
0.187502
0.207193
0.16825
0.166368
0.209391
0.166999
0.207449
0.0360691
-0.0205662
0.00461741
0.00320875
-0.0471602
0.0069998
-0.0434806
-1.41585
-1.45133
-1.39829
-1.4483
-1.4155
-1.4097
-1.37746
-1.40724
-1.44152
-1.38941
-1.43942
-1.40701
-1.40249
-1.36975
-1.4294
-1.37359
-1.39149
-1.37048
-1.33484
-1.37063
-1.40667
-1.55484
-1.51956
-1.51543
-1.4833
-1.51967
-1.49746
-1.46039
-1.36572
-1.3278
-1.36977
-1.36251
-1.32669
-1.56105
-1.52551
-1.52159
-1.5278
-1.56365
-1.31388
-1.36704
-1.31348
-1.34811
-1.38276
-1.57461
-1.52473
-1.50742
-1.54253
-1.57732
-1.66174
-1.71675
-1.67984
-1.80255
-1.85836
-1.8226
-1.74995
-1.78306
-1.61007
-1.64586
-1.66474
-1.68142
-1.65113
-1.64774
-1.61448
-1.96278
-1.93055
-1.94609
-1.89234
-1.92631
-1.89521
-1.92762
-1.88102
-1.8497
-1.82944
-1.8479
-1.87854
-1.84086
-1.81171
-2.14554
-2.11322
-2.09521
-2.04247
-2.07572
-2.07787
-2.10889
-2.3911
-2.42454
-2.37864
-2.36247
-2.39376
-2.33196
-2.3644
-2.59617
-2.60421
-2.56568
-2.58515
-2.61947
-2.59391
-2.56136
-2.89498
-2.87925
-2.86254
-2.87554
-2.90832
-2.8667
-2.84101
-2.87365
-2.84904
-2.81362
-2.89446
-2.93047
-2.8602
-2.91701
-2.91478
-2.93416
-2.8835
-2.87997
-2.89274
-2.90069
-2.88785
-2.87333
-2.85383
-3.02924
-2.94507
-2.90945
-2.90644
-2.8839
-2.96176
-3.04573
-3.02703
-3.01577
-2.81875
-2.69846
-2.52129
-3.0964
-3.37914
-3.44037
-2.34007
-4.57237
-123.028
-64.8371
-52.2516
-20.3458
-20.9094
44.0166
-4.37098
-5.52249
-4.93925
-6.30037
-5.9442
-6.35977
-2.75617
-4.27451
-5.35415
-5.28447
-5.39806
-5.39739
-2.4398
-6.37413
-2.81918
-3.50733
-3.06511
-3.02781
-3.02813
-3.2677
-3.13034
-3.59115
-3.69777
-3.9625
-3.74303
-3.74825
-3.54674
-3.68235
-2.47898
-2.5248
-2.57916
-2.53588
-2.57752
-2.65829
-2.60975
-2.77957
-2.75768
-2.70803
-2.63672
-2.66254
-2.75564
-2.73791
-2.67461
-2.69756
-2.28991
-2.32629
-2.35285
-2.36873
-2.41173
-2.36146
-2.3265
-2.31946
-2.28327
-2.33146
-2.31863
-2.28207
-2.34931
-2.31015
-2.19933
-2.23878
-2.1897
-2.20257
-2.16621
-2.17491
-2.13774
-1.87669
-1.86729
-1.82534
-1.85205
-1.89066
-1.86177
-1.8228
-1.42451
-1.46153
-1.40514
-1.38746
-1.35011
-1.38849
-1.424
-1.22096
-1.25628
-1.25978
-1.25615
-1.29317
-1.31556
-1.27663
-1.09443
-1.06022
-1.1139
-1.11564
-1.14905
-1.1287
-1.09544
-1.15198
-1.11854
-1.16691
-1.11552
-1.07628
-1.11291
-1.11365
-1.14853
-1.16975
-1.00635
-0.969612
-0.966706
-0.969737
-0.933485
-0.912113
-0.947872
-0.971537
-1.02809
-0.990863
-0.787999
-0.82401
-0.827196
-0.859533
-0.823903
-0.882362
-0.846022
-0.839726
-0.822536
-0.876411
-0.802263
-0.767952
-0.804256
-0.836767
-0.8222
-0.768136
-0.803179
-0.679459
-0.627593
-0.66271
-0.68074
-0.663802
-0.628082
-0.697084
-0.733559
-0.697393
-0.662371
0.405664
0.398174
0.380024
0.363375
0.371804
0.385731
0.420881
0.432834
0.364474
0.735066
0.596132
0.849383
0.407197
0.477642
60.2635
49.4659
84.9319
32.8032
10.7679
33.2229
57.8997
55.4231
42.5972
68.0779
94.5641
68.3598
68.3251
94.5194
189.41
189.674
199.882
162.858
163.157
173.133
173.455
172.458
198.539
172.599
171.736
158.998
145.726
-1.11466
-1.15406
-1.10119
-1.1166
-1.15277
-1.08115
-1.11481
-1.11362
-1.15059
-1.09907
-1.11478
-1.14959
-1.07993
-1.11326
-1.14827
-1.09697
-1.11207
-1.11062
-1.07836
-1.11306
-1.1474
-1.08799
-1.10473
-1.14117
-1.07119
-1.03363
-1.07036
-1.10428
-1.26747
-1.2295
-1.22722
-1.17259
-1.20943
-1.19472
-1.2307
-1.23123
-1.28834
-1.25033
-1.24046
-1.29144
-1.25666
-1.25468
-1.22129
-1.29017
-1.25681
-1.24495
-1.29651
-1.26147
-1.22492
-1.25831
-1.29507
-1.26175
-1.30357
-1.26812
-1.25128
-1.23016
-1.26341
-1.26753
-1.30122
-1.24628
-1.22686
-1.18692
-1.30429
-1.26435
-1.26454
-1.2264
-2.16698
-2.17932
-2.11999
-2.20992
-2.15751
-2.13007
-2.17468
-2.18283
-2.18266
-2.21147
-2.20565
-2.20139
-2.23142
-2.24422
-2.2983
-2.29432
-2.26533
-2.29421
-2.28284
-2.24404
-2.28706
-2.30611
-2.36391
-2.41201
-2.29258
-2.34511
63.4256
-8.0281
26.007
12.0147
-2.10446
-6.34465
3.00998
-5.73706
-6.27594
-5.7951
-5.17148
-5.00491
-5.30272
-5.30039
-4.28641
-4.15852
-3.84786
-3.98352
-3.88975
-3.89088
-4.02435
-3.06098
-2.79823
-3.01634
-2.99976
-2.96989
-2.98923
-2.94449
-3.00843
-2.96409
-3.01513
-2.99505
-2.9536
-3.013
-2.9881
-2.9964
-2.94692
-3.00312
-2.9838
-2.97302
-2.96669
-2.94433
-2.95686
-2.95392
-2.95488
-2.95939
-2.96433
-2.94285
-2.90307
-2.91596
-2.95268
-2.92163
-2.90964
-2.92939
-2.38368
-2.42639
-2.42221
-2.40326
-2.44157
-2.41678
-2.37998
-2.28154
-2.27285
-2.23406
-2.25908
-2.29543
-2.2677
-2.23207
-2.14149
-2.12645
-2.08876
-2.15522
-2.19053
-2.15923
-2.12386
-1.97351
-1.93779
-1.98953
-2.00195
-2.04177
-1.98662
-2.02459
-1.95437
-1.99075
-2.03079
-1.99761
-1.98143
-2.02951
-1.99716
-1.96364
-1.99237
-1.5494
-1.53064
-1.49313
-1.60186
-1.56438
-1.5655
-1.5299
-1.45789
-1.40355
-1.42086
-1.50832
-1.54514
-1.54812
-1.58113
-1.54509
-1.6048
-1.56671
-1.34755
-1.40067
-1.38451
-1.40098
-1.34859
-1.45839
-1.23689
-1.25497
-1.19845
-1.27552
-1.3125
-1.25632
-1.24005
-1.20267
-1.2391
-1.27453
-1.09183
-1.11073
-1.0557
-1.13719
-1.172
-1.12115
-1.10262
-1.1353
-1.13727
-1.17179
-0.794226
-0.754927
-0.812247
-0.827448
-0.867652
-0.790574
-0.828797
0.208956
0.240831
0.199094
0.25939
0.286234
0.330846
0.322752
0.298526
0.279481
0.261504
0.296734
0.311065
0.333591
0.342461
0.351527
0.364915
0.361348
0.35323
0.337423
0.341237
0.330013
0.379331
0.342025
0.315785
0.471986
0.469982
0.487189
0.518281
0.553759
0.477172
0.514353
0.508901
0.465036
0.613914
0.470506
0.78236
0.700309
0.775463
2.46989
-0.022686
1.23221
-1.45275
1.72037
-2.54777
-0.138953
156.157
169.732
143.161
189.802
163.629
155.604
142.297
168.682
189.696
163.45
156.598
170.129
195.993
143.451
169.617
169.608
188.669
188.463
199.192
162.461
162.33
173.024
173.077
173.358
199.452
173.259
-0.803382
-0.76968
-0.806767
-0.82439
-0.860566
-0.838591
-0.803751
-0.801635
-0.783722
-0.74946
-0.887013
-0.92279
-0.93893
-0.921734
-0.885761
-0.955364
-0.918234
-0.628322
-0.606449
-0.598087
-0.577628
-0.54963
-0.556201
-0.586537
-0.76488
-0.780058
-0.735268
-0.709527
-0.750367
-0.74684
-0.705312
-2.38672
-2.38939
-2.33479
-2.35411
-2.39686
-2.38877
-2.38679
-2.36928
-2.34142
-2.33647
-2.4854
-2.40541
-2.42692
-2.31824
-2.98484
-3.45259
-2.57054
-4.45959
-3.82492
-3.59309
-3.5134
-2.95919
-2.84503
-3.07979
-3.38811
-3.27599
-3.61847
-2.15328
-3.87973
-3.76007
-3.70268
-3.76924
-3.70733
-3.85059
-3.89766
-3.96945
-3.63345
-3.64659
-4.02172
-3.91835
-3.58739
-3.51045
-3.57654
-3.53223
-3.65687
-3.60757
-3.79989
-3.78715
-3.72208
-3.72178
-3.71894
-3.00942
-3.01494
-3.06443
-2.98643
-3.00589
-3.04775
-3.01789
-2.96052
-2.96982
-2.98498
-2.93748
-2.94111
-2.92645
-2.93822
-2.93257
-2.92936
-2.91955
-2.94761
-2.94254
-2.94245
-2.92309
-2.91214
-2.93861
-2.90336
-2.92663
-2.9255
-2.93343
-2.93794
-2.92872
-2.91237
-2.91411
-2.90446
-2.90638
-2.69607
-2.66731
-2.65034
-2.67946
-2.65128
-2.60066
-2.62986
-2.61784
-2.64577
-2.18898
-2.23649
-2.22431
-2.21623
-2.25347
-2.22297
-2.18775
-2.08431
-2.04906
-2.0997
-2.05053
-2.08365
-2.08159
-2.11569
-1.93176
-1.96823
-1.97211
-2.00374
-1.96734
-2.02697
-1.99018
-1.86623
-1.83015
-1.82677
-1.79389
-1.83065
-1.81014
-1.77442
-1.88805
-1.83229
-1.85135
-1.69046
-1.63629
-1.69226
-1.67302
-1.70854
-1.74401
-1.52599
-1.5435
-1.49049
-1.46793
-1.43038
-1.41607
-1.46973
-1.43225
-1.3995
-1.43579
-0.813066
-0.772809
-0.743701
-0.73187
-0.767666
-0.684373
-0.720961
-0.544352
-0.575168
-0.606222
-0.583313
-0.61437
-0.662396
-0.628126
-0.527463
-0.554041
-0.524937
-0.464637
-0.485746
-0.503527
-0.47572
-0.312806
-0.375591
-0.360869
-0.375339
-0.430893
-0.336463
-0.386811
0.00344379
-0.0327531
0.0167931
-0.0551004
-0.072695
-0.0270392
-0.0115359
0.0906597
0.113359
0.0769515
0.159328
0.15216
0.124409
0.134005
0.0179298
0.066604
0.0315049
0.0467575
-0.00316509
0.276424
0.258553
0.265562
0.319113
0.314
0.297325
0.305393
0.327257
0.301926
0.328019
0.277978
0.284166
0.324647
0.319093
0.359946
0.342001
0.363986
0.390097
0.357503
0.356094
0.376847
155.328
142.062
168.217
190.575
164.137
156.359
169.611
143.23
190.63
164.275
157.517
170.455
197.017
144.305
170.866
170.581
188.213
188.33
198.738
161.859
161.891
172.292
172.468
173.638
200.221
174.025
-0.433879
-0.384235
-0.398171
-0.369129
-0.335198
-0.400964
-0.367185
-0.529907
-0.496915
-0.533197
-0.563459
-0.530179
-0.584549
-0.550213
-0.667426
-0.664764
-0.702179
-0.613606
-0.647736
-0.634382
-0.667935
-0.527879
-0.510853
-0.477061
-0.722455
-0.687105
-0.669588
-0.723307
-0.686059
-0.673887
-0.656467
-0.688139
-0.68896
-0.72276
-0.638674
-0.608082
-0.658823
-0.678694
-0.712489
-0.645407
-0.677203
-0.609334
-0.640838
-1.5913
-1.66702
-1.62741
-1.65787
-1.5991
-1.71199
-1.6425
-1.73761
-1.84792
-1.84723
-1.82013
-1.9185
-1.87332
-1.95252
-2.68389
-2.63499
-2.6468
-2.63498
-2.68649
-2.69733
-2.65013
-2.89954
-2.89119
-2.9186
-2.78781
-2.7486
-2.78168
-2.79837
-2.76461
-2.7446
-2.77582
-2.90011
-2.92565
-2.89435
-2.87821
-2.85598
-2.89953
-2.926
-2.90394
-2.87974
-2.91297
-2.93809
-2.91282
-2.93609
-2.92471
-2.92431
-2.90811
-2.90786
-2.89553
-2.89757
-2.9048
-2.89026
-2.87574
-2.90418
-2.93389
-2.88809
-2.87575
-2.90658
-2.90329
-2.92557
-2.89768
-2.88918
-2.92585
-2.89486
-2.87293
-2.90163
-2.52287
-2.5557
-2.51322
-2.52584
-2.49584
-2.5234
-2.55598
-2.23864
-2.18561
-2.23317
-2.22046
-2.25484
-2.29289
-2.10467
-2.05663
-2.10689
-2.12182
-2.15602
-2.08876
-2.124
-2.15801
-1.94669
-1.96605
-1.91343
-1.85061
-1.89897
-1.86145
-1.83427
-1.86869
-1.89955
-1.86284
-1.85963
-1.89278
-1.84262
-1.8547
-1.82494
-1.8907
-1.85692
-1.68442
-1.71821
-1.7005
-1.7513
-1.71459
-1.75215
-1.71641
-1.70644
-1.71951
-1.68808
-1.72642
-1.75982
-1.7574
-1.7246
-1.60987
-1.5713
-1.55502
-1.49849
-1.53731
-1.57191
-1.53534
-1.63254
-1.59202
-1.58219
-1.63518
-1.59586
-1.56395
-1.60144
-1.26312
-1.20048
-1.24165
-1.32376
-1.28181
-1.24139
-1.28076
-1.21297
-1.26333
-1.27235
-1.2923
-1.24964
-1.21092
-1.25617
-1.03635
-1.07792
-1.10089
-1.07932
-1.11831
-1.16482
-1.12109
-1.07786
-1.03303
-1.10146
-1.12471
-1.17417
-0.964206
-0.91811
-0.882446
-0.800279
-0.843753
-0.96676
-0.920876
-0.897833
-0.854732
-0.889395
-0.841994
-0.913654
-0.922349
-0.977309
-0.933052
-0.886964
-0.932157
-0.980861
-0.631249
-0.602108
-0.593384
-0.513777
-0.531747
-0.536512
-0.563718
-0.32937
-0.292898
-0.355674
-0.215594
-0.222288
-0.269516
-0.257941
-0.180154
-0.233353
-0.169174
-0.282322
-0.261118
-0.203059
-0.216259
0.0440955
-0.00250194
0.049816
-0.0282041
-0.0380763
0.0227867
0.015613
0.0690315
0.119895
0.0998334
0.148891
0.100068
0.14158
0.0956626
0.489762
0.507048
0.477995
0.498308
0.491284
0.48236
0.468832
154.909
141.755
168.226
190.687
164.624
156.535
143.305
169.322
190.52
164.381
156.559
169.628
196.016
143.321
169.973
169.774
174.406
200.327
174.101
192.119
165.794
157.918
144.78
170.666
165.911
191.883
141.438
115.583
154.887
168.259
194.289
141.611
167.701
168.105
45.4876
0.357319
32.6211
57.6664
31.169
7.76431
30.1457
40.4651
54.1719
28.5884
0.638857
13.8943
21.7063
10.2966
0.736472
0.203053
-0.323306
0.915116
-0.168251
-0.968632
-0.147304
-0.142741
0.910234
0.312333
0.28347
0.299008
0.328764
0.264136
0.270525
0.347759
0.320736
0.173255
0.202647
0.206438
0.176032
0.223168
0.219102
0.218356
0.198346
0.105264
0.132822
0.0970292
0.109145
0.0815717
0.0866566
0.0572843
-0.140293
-0.185782
-0.158416
-0.124316
-0.148407
-0.183367
-0.156538
-0.13107
-0.101456
-0.144969
-0.158758
-0.190202
-0.160203
-0.130242
-0.283431
-0.317724
-0.269534
-0.252811
-0.284748
-0.25471
-0.223151
-0.32357
-0.276264
-0.290288
-0.273443
-0.242946
-0.30415
-0.273512
-0.291853
-0.323057
-0.269323
-0.222472
-0.253643
-0.435353
-0.402892
-0.397282
-0.403161
-0.371587
-0.381059
-0.349166
-0.453478
-0.419673
-0.404348
-0.420921
-0.45324
-0.285239
-0.270978
-0.317884
-0.255556
-0.224454
-0.255097
-0.285863
-0.0348143
-0.0760347
-0.0447878
-0.0218302
-0.0492077
-0.0774965
-0.0480401
0.0168704
-0.022043
-0.00702293
-0.0384312
-0.065615
-0.0112153
-0.0365645
0.521204
0.672857
0.895754
0.684625
0.00142378
0.596029
0.352065
48.4744
61.4622
87.1228
2.10493
1.61119
2.98339
1.42193
0.342748
3.67999
2.61853
1.57656
-0.01733
1.00612
21.4727
29.9125
48.1119
50.6344
80.0533
56.3872
36.8441
0.155063
0.185662
0.19172
0.180896
0.153472
0.178982
0.200091
0.20027
0.192794
0.170074
0.231382
0.217473
0.218029
0.198216
0.122146
0.113079
0.147378
0.152082
0.127302
0.129574
0.156884
-0.430673
-0.342498
-0.370838
-0.352891
-0.285401
-0.303537
-0.374175
-0.071396
-0.128817
-0.109823
-0.102122
-0.159401
-0.176461
-0.111985
-0.557232
-0.420147
-0.465586
-0.399613
-0.481296
-0.460309
-0.341996
-0.450441
-0.354811
-0.246081
-0.293586
-0.30418
-0.0942537
-0.132983
-0.164637
-0.138651
2.6534
-6.10858
-4.98424
-7.80391
-1.51787
-2.69737
-4.76088
15.8222
17.7369
11.8542
1.10117
2.15383
4.33441
-1.37697
0.879789
5.57634
3.08455
18.1466
-0.101927
9.35409
-12.4292
-6.73195
-3.59768
-4.09637
-6.5748
-4.55298
-0.952079
4.6008
-3.09132
-2.28155
-4.23687
-3.43129
-3.49567
-2.20925
-2.06262
-2.13035
-2.24121
-2.24533
-2.13539
-2.1613
-2.10871
-2.11721
-2.06314
-2.08672
-2.11343
-2.18653
-2.20107
-2.15238
-2.21411
-2.25362
-2.21635
-2.18104
-2.35418
-2.33132
-2.31715
-2.33785
-2.37852
-2.38455
-2.34603
-2.49249
-2.52054
-2.46719
-2.48559
-2.51228
-2.47062
-2.44769
-2.5894
-2.55203
-2.54572
-2.53341
-2.56721
-2.59295
-2.55811
-2.64921
-2.60431
-2.63862
-2.65891
-2.69376
-2.75874
-2.71206
-2.7452
-2.77166
-2.73917
-2.71193
-2.7441
-2.86147
-2.89247
-2.88023
-2.8335
-2.86422
-2.86401
-2.83417
-2.93693
-2.90814
-2.90611
-2.88108
-2.83679
-2.86731
-2.9187
-2.88896
-2.90387
-2.87335
-2.85071
-2.88175
-2.92004
-2.92
-2.93535
-2.90524
-2.8896
-2.83519
-2.86628
-2.88233
-2.89866
-2.93661
-2.90507
-2.907
-2.7048
-2.7559
-2.73647
-2.73427
-2.76722
-2.73626
-2.70561
-2.75661
-2.78986
-2.75272
-2.75627
-2.72118
-2.73746
-2.70465
-2.75876
-2.81034
-2.77613
-2.6268
-2.57715
-2.62821
-2.61066
-2.64404
-2.67839
-2.55055
-2.51695
-2.5036
-2.45443
-2.48781
-2.55291
-2.52002
-2.48736
-2.51806
-2.4892
-2.45425
-2.50381
-2.51645
-2.54915
-2.48691
-2.5184
-2.07572
-2.11552
-2.12912
-2.17898
-2.14406
-2.11263
-2.14793
-2.10594
-2.12321
-2.13623
-2.17355
-2.14223
-2.17201
-2.13989
-2.05837
-2.01788
-2.01103
-1.99559
-2.03165
-2.02221
-2.06033
-1.9362
-1.9911
-1.96729
-2.0422
-2.01015
-1.85666
-1.84169
-1.87685
-1.90627
-1.86775
-1.87175
-1.90893
-1.86857
-1.87965
-1.8495
-1.89135
-1.92273
-1.91889
-1.88767
-1.77265
-1.73362
-1.71865
-1.66272
-1.70264
-1.69795
-1.73546
-1.76574
-1.81568
-1.77191
-1.76043
-1.71231
-1.73942
-1.71024
-1.67748
-1.7574
-1.79205
-1.74721
-1.71556
-1.59595
-1.58042
-1.6221
-1.64668
-1.60412
-1.6108
-1.65178
-1.66715
-1.71448
-1.6605
-1.65205
-1.70057
-1.72368
-1.67365
-1.6055
-1.55047
-1.54795
-1.47761
-1.55239
-1.53581
-1.59617
-1.56653
-1.62324
-1.50257
-1.47589
-1.50585
-1.56961
-1.54118
-1.52191
-1.55393
-1.39101
-1.48082
-1.39738
-1.38225
-1.29506