/*--------------------------------*- C++ -*----------------------------------*\
| =========                 |                                                 |
| \\      /  F ield         | OpenFOAM: The Open Source CFD Toolbox           |
|  \\    /   O peration     | Version:  v2012                                 |
|   \\  /    A nd           | Website:  www.openfoam.com                      |
|    \\/     M anipulation  |                                                 |
\*---------------------------------------------------------------------------*/
FoamFile
{
    version     2.0;
    format      ascii;
    class       volScalarField;
    location    "0.1";
    object      p_rgh;
}
// * * * * * * * * * * * * * * * * * * * * * * * * * * * * * * * * * * * * * //

dimensions      [1 -1 -2 0 0 0 0];


internalField   nonuniform List<scalar> 
6576
(
2783.57
2762
2767.48
2774.71
2788.85
2796.76
2772.44
2771.33
2790.56
2780.99
2818.42
2803.89
2791.8
2801.96
2764.33
2773.86
2740.16
2767.12
2767.04
2811.84
2753.19
2807.73
2810.43
2765.99
2794
2820.09
2869.65
2791.25
2759.71
2759.83
2781.17
2740.43
2779.08
2800.84
2795.53
2815.27
2792.69
2817.25
2780.09
2798.87
2767.98
2755.28
2783.28
200.442
168.614
198.972
129.977
199.047
202.302
202.184
204.948
203.151
0.00408325
0.00261015
0.0012629
0.00727245
0.0033454
0.00034171
0.00520686
0.0046554
0.00745442
0.00946328
0.0122854
0.0068966
0.00313049
0.00932556
0.0340438
0.0278385
0.0248624
0.0238673
0.0274679
0.0173202
0.0238358
1.32506
1.27613
1.3792
1.33596
1.36914
1.44483
1.41226
1.13345
1.11721
1.08024
1.1589
1.20194
1.15383
1.11817
0.686272
0.660371
0.614658
0.617289
0.680595
0.64612
0.53554
197.327
199.72
199.458
147.785
187.343
199.007
193.98
198.52
198.24
198.569
198.461
199.012
198.643
199.409
198.977
199.854
199.934
199.662
200.316
200.815
-0.0876872
0.018996
-0.139706
-0.103987
0.0941074
-0.137128
-0.112498
501.763
2028.97
1835.12
2512.02
2486.9
2745.74
2770.29
-0.0762139
-0.237926
-0.114255
-0.106554
-0.275575
-0.0555406
-0.467818
0.253297
0.268782
0.252476
0.245777
0.266787
0.272454
0.253476
0.176732
0.173794
0.195695
0.152894
0.180869
0.194003
0.172921
0.139685
0.146318
0.139078
0.163094
0.159998
0.152847
0.153134
0.115855
0.102688
0.0993556
0.112862
0.0980421
0.0800597
0.102109
0.0888104
0.106445
0.0909733
0.0906317
0.0844807
0.100164
0.10402
0.0997802
0.0946229
0.0567035
0.0509092
0.0388523
0.0605723
0.0509813
0.0376808
0.0229941
0.0409242
0.0510641
0.0774058
0.0974534
0.0717916
0.0735211
0.0910408
0.0710745
0.0506511
0.0589118
0.0796475
0.129506
0.125437
0.127843
0.105016
0.106223
0.114022
0.11422
0.17021
0.160748
0.181514
0.171474
0.145774
0.148395
0.170889
0.212306
0.220017
0.254026
0.188241
0.175874
0.194185
0.209296
0.0484162
0.0177875
0.247617
0.201913
0.169868
-0.0182721
0.00920833
0.0935429
0.0931417
0.10352
0.0916537
0.0823391
0.0881723
0.0972046
0.0913639
0.0932645
0.0981018
0.0964475
0.0924865
0.0987145
0.102113
0.0964434
0.085294
0.0894771
0.0985779
0.100865
0.0897038
0.091892
0.0741742
0.073398
0.0706392
0.0740114
0.0777829
0.0729125
0.0780786
0.0826495
0.0888499
0.0916157
0.0824287
0.0760679
0.0841713
0.0785768
0.0846769
0.0891243
0.121873
0.133996
0.134774
0.112747
0.116559
0.12452
0.127046
0.264434
0.260413
0.266503
0.281236
0.273429
0.269619
0.276091
207.947
207.192
207.742
208.039
207.405
208.325
208.544
207.366
208.311
202.009
208.421
206.678
206.527
205.491
208.163
180.062
0.755487
0.695969
0.83255
1.04159
0.836118
0.878479
0.979628
0.880763
1.27473
208.076
205.398
204.8
2.59804
2.5897
4.61492
1.2503
3.5298
5.25056
1.6727
0.667201
0.692924
0.674579
0.678197
0.658647
0.660174
0.67736
59.9569
35.4062
61.1244
12.3627
37.9256
2.5225
46.6837
63.3323
3.49663
0.793348
0.813876
0.811642
0.751848
0.757969
0.777543
0.777588
0.421032
0.604473
0.446514
0.481612
0.556359
0.527785
0.511476
0.6001
0.854489
0.565974
0.716303
0.693278
0.688467
0.604645
0.647838
0.960326
0.728793
1.66501
0.479767
0.48491
0.874426
0.482698
0.155774
0.452151
0.477857
205.559
206.136
205.66
205.592
205.398
205.466
205.217
208.279
207.75
207.825
206.958
207.175
207.227
207.022
207.731
208.618
189.429
116.66
196.947
197.368
199.873
184.512
195.674
0.556321
1.93247
4.39561
11.3139
33.7131
2.33091
0.643097
0.910058
0.924649
0.894463
0.955239
0.937984
0.944097
0.927699
0.906079
0.921539
1.03293
1.06045
1.0716
1.09437
1.07443
1.06405
1.04284
1.22363
1.24266
1.17708
1.34439
1.28024
1.31085
1.258
1.20631
1.25208
2.64109
2.76314
3.62963
1.89179
1.1885
1.74903
6.04057
2.52071
3.87904
3.2877
3.01981
3.43771
3.64003
3.40647
0.107165
0.101394
0.0997356
0.109709
0.109132
0.103771
0.101941
0.103721
0.0957524
0.0975203
0.0991208
0.105674
0.103115
0.0963282
0.126872
0.121228
0.117413
0.127232
0.129972
0.123485
0.119513
0.138253
0.131301
0.141967
0.141388
0.135917
0.147406
0.153989
0.144123
0.149198
0.114313
0.10736
0.11609
0.116203
0.119941
0.108714
0.114656
0.0931775
0.106467
0.0962279
0.0936133
0.086331
0.10015
0.0934592
0.0923676
0.089626
0.0829632
0.0961479
0.103602
0.096208
0.0909956
0.0393224
0.0425438
0.050435
0.0384665
0.0316462
0.0391176
0.0476968
0.0719758
0.0662241
0.0640439
0.0654327
0.0586495
0.0550899
0.0623664
0.0266662
0.0387822
0.0349111
0.0694548
0.0663399
0.0800008
0.00585332
0.0122853
0.0100063
0.0110758
0.00566052
0.00968294
0.0134106
0.0116597
0.01018
0.0042352
0.0228367
0.0156605
0.0166028
0.0116929
0.00781586
0.0015885
0.0133333
0.0125952
0.022108
0.0159163
0.00546479
0.0106224
0.00823565
0.0139273
0.0187946
0.0124505
0.00171819
0.00544861
0.00657566
0.0076215
0.0108759
0.0132452
0.0222588
0.0151667
0.00896331
0.00573861
0.00468218
0.00171675
0.00999185
0.0109334
0.00823979
0.0083717
0.0533308
0.058153
0.0635648
0.0526527
0.0465032
0.0552099
0.0494065
0.0555039
0.060604
0.0763797
0.0803008
0.0740429
0.0709378
0.0650506
0.0743218
0.0707398
0.0661982
0.064277
0.0697863
0.0702936
0.0680239
0.0647622
0.0693409
0.0857772
0.0847146
0.0843289
0.0818519
0.0780127
0.0790211
0.0816979
0.0831418
0.0817033
0.0735853
0.0864236
0.090776
0.059232
0.0507347
0.0570329
0.0532768
0.0640946
0.0466708
0.0581921
0.0207705
0.00331559
0.00277709
0.00401831
-0.0226886
-0.00189042
0.0177986
-0.106033
-0.160792
-0.15795
-0.132305
-0.225871
-0.168993
-0.103102
-0.17202
-0.0720684
-0.132114
-0.0164385
-0.0260408
-0.104225
-0.13746
0.231188
0.16082
0.185534
0.304906
0.277838
0.279933
0.252962
0.195431
0.219312
0.440457
0.475725
0.424954
0.468
0.436062
0.437091
0.402371
0.656229
0.640516
0.642263
0.643146
0.62638
0.632348
0.646864
0.605962
0.600535
0.618921
0.614529
0.611924
0.629235
0.625387
0.607654
0.596063
0.594903
0.581163
0.594579
0.599548
0.588509
0.636999
0.633648
0.641736
0.641413
0.639081
0.646878
0.644548
0.654566
0.658431
0.653621
0.650337
0.647267
0.657221
0.654719
0.654912
0.651546
0.646695
0.651131
0.653951
0.659063
0.653704
0.654073
0.649147
0.651681
0.646598
0.673527
0.678815
0.672363
0.67439
0.669425
0.667897
0.674893
0.666779
0.672885
0.668104
0.676182
0.684612
0.674005
0.674164
0.668693
0.666455
0.73226
0.802099
0.693034
0.714958
0.689891
0.700422
6.10993
1.73578
1.72501
1.1064
1.90712
0.613474
0.650042
0.575307
0.382982
0.662233
0.394876
0.603352
5.56163
1.62591
1.05967
0.910149
2.23093
4.27432
14.9468
3.37627
1.50838
0.678983
0.199884
4.31581
0.50095
23.8881
0.110553
0.716055
1.76665
0.419085
0.346535
0.651558
205.551
203.502
203.346
198.363
123.816
194.232
199.121
205.607
205.601
206.436
206.604
205.575
205.735
205.635
205.774
205.706
206.098
204.963
204.819
204.769
204.89
205.008
204.789
203.623
205.169
204.745
204.983
204.869
204.827
205.738
205.765
205.662
205.567
205.711
205.66
205.545
205.526
205.674
205.446
205.623
205.63
205.861
205.65
205.794
206.069
205.284
205.606
205.449
205.583
205.569
205.583
205.657
205.574
205.613
205.735
206.25
206.369
205.483
205.52
205.449
205.423
205.909
201.307
206.68
171.364
205.053
203.3
194.431
202.902
193.368
142.056
201.073
198.738
203.309
171.118
197.32
1.14845
0.958508
0.9105
1.31232
0.987021
0.80962
1.04626
0.825405
0.812899
0.825352
0.796159
0.811784
0.817184
0.833677
0.835236
0.850972
0.840504
0.866156
0.847289
0.840122
0.869195
0.921556
0.917149
0.900215
0.928023
0.937187
0.92941
0.915444
0.90501
0.924082
0.933627
0.942833
0.921137
0.919824
0.903258
0.922928
0.911107
0.935083
0.926914
1.17678
1.15424
1.16326
1.18716
1.16381
1.18822
1.15915
0.126749
0.129406
0.146226
0.122581
0.141792
0.143946
0.128657
0.0911771
0.0848491
0.0654637
0.0826516
0.0740469
0.0523076
0.0613777
0.080826
0.0912312
0.106432
0.117308
0.1217
0.181106
0.174619
0.169026
0.186123
0.194713
0.183107
0.179381
0.181837
0.192553
0.187601
0.192829
0.196543
0.187444
0.183348
0.214429
0.222732
0.208157
0.213418
0.207211
0.197348
0.205008
0.180109
0.194085
0.18434
0.18023
0.171347
0.186949
0.180194
0.181353
0.176672
0.16723
0.193057
0.184234
0.183701
0.17732
0.138631
0.152877
0.151407
0.150535
0.163215
0.159514
0.152896
0.147414
0.163704
0.151697
0.149402
0.15471
0.161063
0.121364
0.110117
0.121444
0.124215
0.13179
0.116554
0.132588
0.124837
0.0912341
0.0938183
0.0848994
0.0935722
0.0888633
0.101442
0.0790652
0.0853501
0.0933484
0.0878917
0.0280119
0.0340669
0.0366069
0.0412128
0.0481405
0.0407304
0.035937
0.0361387
0.0332834
0.0265769
0.0388492
0.045936
0.0388666
0.0334494
0.0107331
0.00921362
0.0143263
0.0380887
0.0338782
0.0444699
0.0257136
0.0314921
0.0377315
0.0331886
0.0103825
0.0077401
0.00176182
0.0126635
0.00827477
0.00851095
0.00855462
0.00194323
0.00800192
0.0065147
0.00739326
0.0109326
0.00429775
0.00313938
0.000838816
0.0100592
0.00975349
0.00778324
0.00959331
0.00589902
0.012708
0.00988657
0.00635635
0.0116755
0.0126321
0.00941856
0.0375111
0.0422901
0.0350315
0.0346016
0.0278566
0.0330147
0.0370799
0.0328479
0.0274499
0.0736171
0.0717146
0.0760762
0.06648
0.0693924
0.0720466
0.0703169
0.0932472
0.0979807
0.0907826
0.107827
0.102788
0.0998261
0.0985427
0.0763791
0.0676292
0.051451
0.101423
0.0932949
0.105373
0.103801
0.116759
0.132602
0.146526
0.127413
0.136227
-0.0327152
-0.0917364
-0.0768426
0.0404887
-6.17069e-05
0.012716
-0.0180375
-0.065135
-0.0427228
-0.107042
-0.130904
-0.0597468
-0.0707332
-0.0971287
0.0250826
-0.0121601
-0.0348829
-0.00384505
0.24822
0.237072
0.242653
0.278499
0.267883
0.256677
0.269954
0.328506
0.294682
0.331125
0.337464
0.364395
0.342798
0.320487
0.434264
0.453468
0.423794
0.423308
0.443449
0.391294
0.417298
0.423891
0.401677
0.490611
0.481622
0.50739
0.460726
0.478038
0.492011
0.477333
0.592346
0.586276
0.585808
0.578834
0.586023
0.573847
0.582869
0.610186
0.614771
0.619146
0.609897
0.605571
0.604369
0.608627
0.609171
0.613336
0.602488
0.610168
0.616154
0.610263
0.609803
0.604889
0.601671
0.628358
0.63448
0.634461
0.634224
0.64108
0.637302
0.643495
0.624525
0.635071
0.631115
0.65457
0.66377
0.657276
0.67358
0.688832
0.676559
2.06151
0.963953
0.898531
0.512068
0.198282
1.55581
0.548411
205.795
205.721
205.871
205.589
205.523
205.362
205.76
205.33
205.959
205.428
205.602
205.568
205.57
205.972
206.048
206.036
206.089
206.005
206.079
205.918
205.888
206.048
206.097
204.875
204.947
204.901
205.198
204.859
204.86
205.073
205.053
205.278
205.408
205.844
205.274
205.2
182.826
192.229
207.383
203.508
205.236
204.996
201.333
186.887
161.952
200.846
199.601
200.947
192.708
198.196
1.42815
1.54823
1.47853
1.44476
17.1028
3.75271
10.6488
1.1139
1.25714
1.21774
1.40371
1.36307
2.1061
1.45417
1.15875
1.16325
1.16109
1.17259
1.16076
1.17363
1.16423
1.23383
1.22817
1.25226
1.25293
1.26465
1.24542
1.23645
1.26343
1.26503
1.30747
1.32613
1.33705
1.2826
1.28296
1.35934
1.35569
1.30732
1.332
1.32744
1.27904
1.28313
1.07097
1.11616
1.12055
1.14634
1.09705
1.06592
1.11328
0.244925
0.248566
0.233331
0.238358
0.254473
0.248542
0.231983
0.249666
0.240838
0.233678
0.255471
0.267019
0.251425
0.246777
0.25588
0.247987
0.260681
0.263081
0.266315
0.250362
0.257197
0.260011
0.270866
0.267316
0.272019
0.276091
0.268892
0.26199
0.267648
0.278627
0.275369
0.278681
0.283021
0.267812
0.274866
0.231457
0.243834
0.244495
0.236127
0.247334
0.249077
0.259217
0.254675
0.244775
0.284294
0.300664
0.288853
0.284766
0.274271
0.293498
0.284482
0.285115
0.279976
0.27036
0.288419
0.29854
0.287337
0.280658
0.248592
0.259904
0.248994
0.249319
0.239537
0.23274
0.242977
0.20336
0.212863
0.212496
0.226755
0.216818
0.220262
0.212231
0.248433
0.263925
0.254481
0.200105
0.212651
0.208307
0.168018
0.177032
0.179865
0.134466
0.142031
0.145501
0.14833
0.142777
0.157752
0.149893
0.141419
0.14179
0.133235
0.142395
0.152375
0.106573
0.111287
0.114208
0.11926
0.126618
0.118556
0.113598
0.13618
0.148275
0.141808
0.133248
0.137558
0.145215
0.140693
0.100195
0.107006
0.108283
0.103351
0.109551
0.106561
0.0989251
0.0544571
0.0530025
0.0467817
0.0583161
0.0634973
0.0239667
0.0301918
0.031491
0.0240143
0.0294976
0.0296837
0.0340828
0.061405
0.0576644
0.0550648
0.0532463
0.0570984
0.056653
0.0609409
0.0295247
0.0243411
0.0307703
0.0293718
0.0246678
0.0311996
0.0343447
0.0090729
0.0129387
0.00797453
0.0115342
0.00517734
0.0122437
0.017208
0.0127487
0.01544
0.0217896
0.00956622
0.00155037
0.0146203
0.00423303
0.0115807
0.013684
0.012879
0.0184228
0.0243291
0.0169703
0.00394551
0.00525454
0.00111319
0.0118125
0.0136798
0.00937851
0.0163899
0.0104215
0.0118224
0.0149963
0.00701292
0.00559943
0.00191635
0.0142158
0.0137683
0.0122255
0.0120469
0.0186391
0.0262779
0.0191739
0.0287308
0.0201872
0.0155336
0.0234652
0.00968326
0.0189203
0.0170726
0.0104304
0.0174802
0.0231464
0.0179793
0.0614653
0.0458071
0.0566761
0.0491555
0.0584954
0.0441733
0.0563452
0.758572
7.47187
2.01387
0.451418
3.05867
5.17441
0.745412
0.201877
0.348433
0.331169
0.355119
0.686412
0.141076
0.323443
-0.442601
-0.306656
-0.524377
-0.217893
-0.20221
-0.350674
-0.377566
0.111561
0.100927
0.141697
0.0806311
0.0770586
0.0833079
0.0897824
0.108731
0.0880382
0.0774828
0.0538126
0.0698844
0.101364
0.100957
0.0816339
0.0884984
0.057783
0.063544
0.0608752
0.0669939
0.065167
0.0599922
0.0610269
0.131399
0.150353
0.138327
0.150786
0.132774
0.139449
0.124199
0.138546
0.122529
0.176864
0.160235
0.16148
0.200611
0.196965
0.19052
0.187124
0.169182
0.171528
0.241678
0.229052
0.219386
0.24564
0.227443
0.246289
0.2288
0.369942
0.37485
0.387611
0.363063
0.349731
0.363263
0.374001
0.364262
0.367821
0.352754
0.387912
0.376812
0.366919
0.375893
0.454144
0.459128
0.469161
0.447111
0.436712
0.448251
0.456635
0.434811
0.446344
0.448094
0.444494
0.434927
0.452665
0.4455
0.48553
0.474961
0.490996
0.495821
0.504692
0.494893
0.487065
0.563559
0.558065
0.559129
0.564912
0.559722
0.55642
0.562276
0.53462
0.526286
0.525083
0.510294
0.519891
0.525426
0.517376
0.566725
0.558049
0.556742
0.546658
0.567552
0.554783
0.59669
0.589145
0.585974
0.588545
0.596607
0.586302
0.582736
0.57441
0.590011
0.583277
0.62007
0.613984
0.610566
1.49033
1.12363
20.1658
0.640956
0.761465
2.27712
2.01355
204.841
204.802
204.362
205.232
204.861
204.321
204.664
204.94
204.832
205.009
205.776
206.247
206.376
206.7
206.251
206.855
207.098
205.502
206.139
205.623
205.521
207.894
206.602
189.624
205.194
205.882
178.709
207.268
202.375
129.954
202.308
207.966
206.943
151.846
1.0901
1.07943
1.0921
1.09576
1.07654
1.07057
1.08695
1.14222
1.14442
1.12979
1.13733
1.13706
1.11579
1.11521
1.12197
1.12263
1.17979
1.15296
1.16676
1.18931
1.16871
1.18394
1.1669
1.14028
1.14183
1.12178
1.1336
1.13038
1.10343
1.09303
1.10863
1.114
1.11527
1.10203
1.08089
1.10058
1.08791
1.04662
1.06337
1.06039
1.07456
1.05208
1.02172
1.00749
1.01922
0.995126
0.996734
0.97253
0.335895
0.326696
0.340324
0.329721
0.336248
0.342049
0.34801
0.344506
0.336506
0.349199
0.338609
0.344735
0.349256
0.355719
0.345953
0.36235
0.35758
0.362535
0.371902
0.362384
0.35262
0.311995
0.320995
0.322203
0.330979
0.320882
0.327042
0.337835
0.361211
0.37286
0.361542
0.364427
0.373966
0.311868
0.321128
0.320667
0.318837
0.309269
0.376562
0.362816
0.376954
0.3686
0.360231
0.308523
0.318993
0.323156
0.314323
0.305815
0.285338
0.269739
0.280376
0.247003
0.23061
0.240086
0.26019
0.253354
0.290576
0.281072
0.275322
0.27178
0.275801
0.27919
0.286172
0.200636
0.206589
0.204193
0.218522
0.210836
0.215653
0.209519
0.212329
0.217365
0.224493
0.219169
0.214808
0.226209
0.229083
0.153646
0.159689
0.164556
0.177884
0.170906
0.168764
0.164019
0.0920209
0.0848544
0.0913412
0.094374
0.0893531
0.0985972
0.0924407
0.0664966
0.0715913
0.0706996
0.077506
0.0694718
0.0687508
0.075026
0.0112205
0.0138137
0.0173755
0.0178152
0.0113208
0.0222665
0.0260578
0.0197009
0.0267816
0.0359179
0.013492
0.00376379
0.0214717
0.0093367
0.0115723
0.00270502
0.0165609
0.0200883
0.0178477
0.00990642
0.0183433
0.0197194
0.0260696
-0.121146
-0.0107621
-0.0145656
0.0015945
-0.00195859
-0.0536622
-0.152693
-0.120731
-0.135909
-0.0425418
0.0454073
0.262048
-0.328444
-0.636225
-0.669699
0.455988
442.456
1852.56
2714.64
2740.43
2746.23
2719.32
2809.4
-1.56751
-2.69166
-2.14753
-3.4715
-3.14156
-3.5817
0.0464218
8.45395
54.8282
1.08752
-2.70285
-2.67602
433.723
-0.163678
0.0544834
-0.660417
-0.178791
-0.128612
-0.14382
-0.419372
-0.257487
-0.817032
-0.899676
-1.2052
-0.917755
-0.949273
-0.746561
-0.878493
-0.0484494
-0.0679858
-0.109213
-0.0790734
-0.0944287
-0.148931
-0.126663
-0.16415
-0.168543
-0.132028
-0.100127
-0.0996678
-0.140214
-0.148771
-0.111748
-0.108412
0.0355275
0.025429
0.0120029
0.00925256
-0.00746328
0.0165277
0.0252112
0.0278771
0.0377898
0.0290214
0.0287125
0.0389935
0.0243089
0.0371886
0.0735624
0.0603926
0.0700529
0.0703224
0.0804096
0.0717094
0.0825954
0.168482
0.164738
0.180412
0.179986
0.167649
0.170255
0.18295
0.322863
0.312116
0.329093
0.333638
0.344714
0.332609
0.323373
0.381019
0.371974
0.371097
0.3721
0.361355
0.354736
0.367393
0.416576
0.424506
0.410242
0.410192
0.403057
0.408581
0.415562
0.400127
0.40729
0.398214
0.41019
0.420528
0.410177
0.409433
0.400826
0.395372
0.439718
0.450181
0.450459
0.450055
0.460031
0.465637
0.456154
0.450008
0.432873
0.443819
0.49866
0.488925
0.488367
0.479678
0.489032
0.472616
0.482679
0.487224
0.491275
0.476814
0.49841
0.506445
0.496417
0.490182
0.488983
0.503633
0.494866
0.52662
0.539071
0.53023
0.527966
0.531765
0.54121
0.52476
0.514561
0.524451
0.533196
0.83515
0.853846
0.849405
0.845151
0.860764
0.841225
0.944077
0.945617
1.15772
1.80826
1.26765
1.44456
1.04009
0.997462
203.218
201.691
200.664
174.428
143.231
192.72
198.678
208.701
209.013
208.114
208.427
208.499
208.464
208.383
206.052
206.316
206.013
205.775
206.075
205.54
205.862
207.493
207.297
207.634
206.771
207.171
207.037
0.42688
0.413754
0.427213
0.424937
0.415039
0.434113
0.426728
0.427918
0.41722
0.429328
0.426759
0.418223
0.435331
0.428273
0.419548
0.431434
0.429467
0.43092
0.436904
0.428476
0.420417
0.43603
0.432426
0.422262
0.439692
0.450972
0.440519
0.432879
0.388811
0.400504
0.400158
0.41537
0.404809
0.409006
0.399305
0.40052
0.382826
0.394561
0.393043
0.381481
0.389981
0.391965
0.399075
0.382752
0.389833
0.388556
0.376406
0.385172
0.395446
0.388333
0.377855
0.384889
0.369352
0.378526
0.382227
0.390212
0.383235
0.379112
0.371695
0.382842
0.38913
0.40279
0.364245
0.377913
0.377719
0.389588
-0.108694
-0.134166
-0.0879767
-0.177904
-0.151773
-0.124331
-0.142666
-0.0719946
-0.0455426
-0.0612164
-0.0948071
-0.0642699
-0.0680281
-0.107106
-0.025435
-0.034586
0.0338141
-0.0738711
-0.0362467
0.0551297
-0.0272037
-0.0290751
-0.0856072
-0.131744
-0.00204963
-0.0940273
1825.89
1852.37
2474.81
1952.35
1769.59
567.912
2346.22
-0.0239424
-0.496098
-3.0359
-2.49815
-1.36088
1.56761
-2.24775
-1.59181
-1.47422
-1.18561
-1.25963
-1.13107
-1.11657
-1.3268
-0.181116
0.107985
-0.123318
-0.0904989
-0.0386541
-0.0938627
-0.0141279
-0.103775
-0.0555959
-0.13293
-0.0761288
-0.0158581
-0.0997975
-0.0796828
-0.101089
-0.0119753
-0.11794
-0.0638475
-0.0638649
-0.040342
-0.00745829
-0.0305118
-0.0433338
-0.0442906
-0.0593234
-0.0642592
-0.170695
-0.157191
-0.130657
-0.154243
-0.149466
-0.11119
-0.104662
0.0424983
0.0392067
0.0302439
0.0491962
0.0371674
0.0356763
0.0461987
0.0789529
0.0745006
0.0870136
0.0882734
0.0782023
0.0796479
0.0890035
0.118272
0.120178
0.131591
0.117683
0.10865
0.113676
0.122766
0.168009
0.177451
0.165133
0.16585
0.152308
0.168041
0.156349
0.174008
0.163904
0.167664
0.174574
0.177613
0.168947
0.175018
0.182268
0.179812
0.289943
0.295561
0.306791
0.276893
0.288097
0.286977
0.296301
0.31576
0.330689
0.326518
0.303867
0.293328
0.292973
0.28361
0.293371
0.275707
0.287526
0.347274
0.333569
0.336587
0.333254
0.346226
0.315261
0.37647
0.371531
0.388638
0.366751
0.356041
0.372804
0.375939
0.387043
0.376894
0.367738
0.416427
0.410663
0.426285
0.404351
0.395815
0.407251
0.412647
0.40624
0.404274
0.396023
0.506446
0.519469
0.501563
0.499501
0.485572
0.510099
0.498151
0.905274
0.924011
0.921688
0.929433
0.93
0.869508
0.88769
0.876601
0.870695
0.878994
0.887961
0.876002
0.951119
0.933721
0.929633
0.903582
0.926291
0.918173
0.928643
0.919317
0.895028
0.920349
0.933378
0.933278
0.953716
1.0033
0.955782
0.947468
1.01105
1.30227
0.969807
1.08018
2.52491
1.25552
1.85453
2.20799
3.51572
2.029
83.411
10.1831
13.013
14.8368
19.2673
15.0255
8.40246
206.082
206.519
206.224
204.692
204.795
204.653
204.484
204.593
204.586
204.616
204.771
205.164
204.751
204.762
204.652
204.643
205.311
205.104
205.323
205.379
205.248
205.431
205.484
204.889
204.707
204.791
0.509553
0.516978
0.508795
0.50431
0.49441
0.500619
0.509183
0.509547
0.514323
0.522308
0.488108
0.478607
0.475605
0.479663
0.48936
0.47231
0.483163
0.58914
0.597876
0.593099
0.613558
0.615279
0.608709
0.604648
0.544549
0.542509
0.561022
0.560487
0.545923
0.549451
0.564702
-0.407534
-0.429529
-0.404458
-0.187008
-0.487169
-0.487876
-0.39989
-0.355827
-0.306975
-0.290013
-0.409717
-0.363244
-0.393608
-0.25456
2.69859
0.307715
-0.138849
-1.39208
-0.886639
1.62455
2.09747
2.23839
0.364954
0.692233
-1.10515
-0.450617
-1.44774
-0.00495053
-1.26784
-1.16144
-1.0661
1.66881
12.3108
-1.2387
-0.761936
-0.283077
1.10301
-0.656463
1.18212
0.728574
-0.742826
-0.28388
1.95383
-0.231455
-0.36368
-0.234093
-0.410392
-0.290548
-0.148892
-0.500281
1.54513
-0.184709
-0.229643
-0.266004
-0.214277
-0.260023
-0.275604
-0.21946
-0.0674656
-0.0899022
-0.0787853
-0.0356563
-0.0129994
-0.0325164
-0.0101114
-0.0307448
-0.0222836
-0.0387533
-0.0361473
-0.00479758
-0.0309859
-0.0151353
-0.0173178
-0.00436843
-0.0216863
-0.0186769
-0.0175436
-0.00707009
-0.00107371
-0.00236218
-0.00177844
-0.00351778
-0.00438303
-0.00630013
0.0235548
0.0260401
0.0298733
0.0270255
0.0289309
0.0401384
0.0372104
0.0360961
0.0344431
0.132109
0.124016
0.123049
0.131131
0.120175
0.124398
0.133332
0.157942
0.166914
0.155697
0.165447
0.158607
0.160663
0.152837
0.195751
0.185555
0.184302
0.176323
0.186452
0.16886
0.179378
0.210484
0.220285
0.221038
0.230269
0.219781
0.224525
0.233965
0.203545
0.219897
0.213971
0.253986
0.268746
0.252191
0.258292
0.249051
0.239857
0.297585
0.293212
0.306807
0.310099
0.32137
0.322539
0.308293
0.319505
0.325974
0.315962
0.540157
0.554138
0.570108
0.568801
0.559281
0.590022
0.579709
0.624938
0.620398
0.602482
0.612253
0.607472
0.585723
0.593717
0.67686
0.663421
0.666249
0.700273
0.70544
0.687659
0.68919
0.751379
0.728007
0.729592
0.741398
0.71212
0.753997
0.729926
0.883695
0.860636
0.870768
0.851427
0.860109
0.879488
0.868715
0.997187
1.00675
1.00975
1.0133
1.03241
1.03094
1.01426
0.898181
0.920579
0.924894
0.953285
0.929638
1.06033
1.0556
1.03633
1.0636
1.08477
1.06809
1.04988
0.992934
0.980731
0.967442
0.943647
0.976108
0.964039
0.984761
1.03875
1.00767
1.00337
1.05576
1.04944
1.02176
1.01623
205.253
205.125
205.003
205.464
205.303
205.408
205.522
205.417
205.519
205.441
205.69
205.489
205.776
205.616
205.901
205.616
204.855
204.971
204.869
204.777
204.809
204.699
204.875
205.169
205.476
205.556
0.60403
0.61426
0.613461
0.616227
0.623882
0.610669
0.618171
0.572817
0.579533
0.572154
0.565541
0.572545
0.560217
0.568277
0.542154
0.542189
0.533678
0.553933
0.546079
0.548923
0.541646
0.573093
0.576981
0.584497
0.528292
0.537366
0.541744
0.529192
0.540163
0.539198
0.543479
0.538083
0.537263
0.529739
0.555954
0.56027
0.548943
0.54221
0.534691
0.549221
0.543702
0.559017
0.55379
0.7103
0.60865
0.634608
0.56473
0.649767
0.537259
0.633564
0.541402
0.456175
0.417385
0.460456
0.386909
0.378498
0.326667
-0.0650183
-0.0423921
-0.067349
-0.0686628
-0.0938965
-0.078459
-0.0575378
-0.00646859
-0.0112654
-0.0123962
-0.00686722
-0.00707396
-0.0138776
-0.00428746
0.00319005
-0.00307877
-0.00801604
-0.000656443
7.5866e-05
-0.00278428
0.000214445
-0.00383114
-7.90066e-05
-0.000267284
0.000765898
-0.00131739
-0.00150652
-0.000345487
-0.00135815
0.000782357
0.00164648
0.00204348
0.00247792
0.00272891
0.00454608
0.00251207
0.00140579
0.00280871
0.00419341
0.00377975
0.000354396
0.00673316
0.00593334
0.00138128
0.00467108
0.00253845
0.00414699
0.00476396
0.00225675
0.0069689
0.00788069
0.00545305
0.0697544
0.0631959
0.0662679
0.0667799
0.0705018
0.0692231
0.0629166
0.126248
0.139861
0.131716
0.131289
0.123179
0.111406
0.156042
0.164666
0.15382
0.152028
0.144107
0.158813
0.149853
0.142118
0.19221
0.185991
0.199187
0.203326
0.194383
0.205625
0.206529
0.198376
0.1938
0.204229
0.207444
0.20057
0.211317
0.212375
0.215855
0.202649
0.210153
0.251273
0.243759
0.248331
0.236945
0.247378
0.236096
0.245554
0.242386
0.242452
0.247608
0.235541
0.228422
0.23084
0.23736
0.268882
0.281183
0.284317
0.301438
0.28889
0.280565
0.290866
0.250591
0.264836
0.261526
0.247951
0.260994
0.266629
0.255418
0.366002
0.389229
0.374339
0.344783
0.360454
0.374594
0.361501
0.372359
0.348277
0.352395
0.34558
0.361969
0.374409
0.355436
0.448253
0.43296
0.423131
0.431564
0.418849
0.398613
0.416065
0.433021
0.451571
0.422553
0.412445
0.389267
0.495059
0.514879
0.537405
0.580157
0.56296
0.492505
0.512113
0.535155
0.551981
0.517319
0.538443
0.506197
0.51064
0.481956
0.499937
0.51975
0.500833
0.478405
0.691317
0.694182
0.716043
0.756237
0.764542
0.733501
0.732572
0.892471
0.915805
0.892443
0.953694
0.973276
0.952324
0.937623
0.910306
0.870245
0.89501
0.86069
0.855618
0.887401
0.900477
1.02945
0.995991
1.0089
0.983427
0.999831
1.00814
1.02724
1.05001
1.0746
1.09395
1.12987
1.10732
1.09628
1.07664
1.15542
1.14643
1.1568
1.13769
1.15695
1.14802
1.16077
204.833
204.818
205.012
205.577
205.79
205.584
205.492
205.233
205.41
205.547
204.732
204.663
204.775
204.632
205.008
204.809
205.938
205.582
205.632
207.009
206.96
206.967
206.967
206.577
207.077
206.773
206.189
206.611
206.501
206.735
206.488
206.363
206.176
206.58
205.7
158.295
205.733
206.553
205.757
145.629
203.872
190.562
202.663
202.705
42.1178
172.819
196.881
142.672
1.40552
0.52122
1.26252
2.17931
0.183355
5.09764
3.18515
0.123396
1.16206
0.741177
0.801498
0.685784
0.808195
1.03554
0.615861
0.720722
0.747067
0.83301
0.674742
0.691671
0.687541
0.650594
0.672804
0.672058
0.678324
0.670202
0.671484
0.675105
0.674082
0.672785
0.67787
0.674774
0.652372
0.646297
0.647386
0.65521
0.657396
0.648711
0.649265
0.644077
0.647415
0.643316
0.642665
0.637497
0.64122
0.644905
0.623097
0.61508
0.623856
0.627441
0.62178
0.625541
0.630825
0.612612
0.620504
0.619618
0.620698
0.624918
0.616267
0.620628
0.618053
0.613126
0.62144
0.628876
0.623981
0.592337
0.598523
0.599753
0.598253
0.603551
0.602838
0.608455
0.588811
0.596339
0.598527
0.595091
0.589048
0.621289
0.622412
0.614921
0.624696
0.629522
0.625155
0.620665
0.652746
0.650939
0.65591
0.652591
0.65149
0.649478
0.652658
0.660636
0.661137
0.663019
0.657887
0.65698
0.658827
0.659754
2.62288
2.17526
2.39004
5.48691
2.33042
5.53589
5.65106
203.467
203.353
202.735
5.58367
5.22363
5.9954
1.7023
1.61267
40.6065
10.1561
5.19573
1.16972
1.2937
205.816
180.489
192.997
190.328
194.655
200.899
206.554
0.671828
0.676151
0.669071
0.671385
0.670236
0.669471
0.664303
0.672365
0.678027
0.681583
0.658809
0.671175
0.671731
0.678194
0.695842
0.699913
0.707936
0.686364
0.68786
0.690132
0.691166
0.817443
0.879342
0.837864
0.842673
0.883887
0.892027
0.847665
0.992787
0.961642
0.993775
0.988337
0.957335
0.966551
1.00475
0.795049
0.905858
0.847281
0.873841
0.818434
0.865696
0.957734
0.849289
0.918642
1.06772
1.03336
1.04904
1.20641
1.14141
1.13603
1.18829
131.797
51.1944
947.05
39.7991
46.2389
48.3357
78.4021
344.627
1348.35
176.988
37.3404
129.451
382.311
105.928
1479.99
1121.33
1655.88
1603.26
1407.07
1690.22
654.011
42.3777
241.517
47.8164
62.1706
62.676
220.284
809.431
2.19484
4.24756
0.935747
4.67297
1.24371
-0.159712
0.0263315
-0.0676634
-0.230705
-0.208923
-0.0727105
-0.124887
-0.059181
-0.054526
0.0258096
-0.0503274
-0.103309
0.0600858
0.0586845
0.067955
0.0587845
0.0455467
0.0565394
0.0655704
0.0282029
0.0379191
0.0389534
0.0445312
0.0301375
0.0241088
0.0363558
-0.00500692
-0.00677677
0.00716218
0.00190313
0.00149144
0.0168681
0.0135278
0.0294875
0.0405857
0.033752
0.0329253
0.0254056
0.0259437
0.0344984
0.0310002
0.0364825
0.0284461
0.0344384
0.0258681
0.0222053
0.0294712
0.0226098
0.0224319
0.0286359
0.0295952
0.0237107
0.0114548
0.00672888
0.00583308
0.0131437
0.0087015
0.00890857
0.0124786
0.00080976
0.00332729
0.00535733
0.00842493
0.0132927
0.00905656
0.00364952
0.00711674
0.0053401
0.00958521
0.0125196
0.00775012
0.00324755
0.00328787
0.00107797
0.00490959
0.0074105
0.0158381
0.0110209
0.00810889
0.00491725
0.00113271
0.00640047
0.0044623
0.0367356
0.0250526
0.0313407
0.033544
0.0268738
0.031551
0.0359251
0.029593
0.0226226
0.0308605
0.0299318
0.0387504
0.0329835
0.0395074
0.029203
0.0170405
0.0249633
0.0534219
0.0636527
0.0520103
0.0564193
0.049317
0.0412455
0.0649102
0.0722288
0.0724468
0.0822004
0.0750903
0.0625535
0.0691613
0.0755439
0.0711256
0.0727697
0.0814431
0.0712954
0.0717903
0.0653771
0.0750528
0.0698481
0.144628
0.131108
0.13065
0.120203
0.128844
0.133996
0.124971
0.145074
0.140937
0.141054
0.130017
0.135058
0.131552
0.137401
0.140082
0.154291
0.148002
0.150305
0.140525
0.149962
0.138119
0.179041
0.16356
0.174229
0.151876
0.157651
0.197271
0.199101
0.190218
0.187081
0.199322
0.195322
0.184415
0.18536
0.187423
0.191292
0.175715
0.170616
0.17445
0.179402
0.211205
0.223964
0.225792
0.242306
0.228662
0.23336
0.222123
0.178701
0.168173
0.185668
0.170875
0.192716
0.205021
0.221062
0.227545
0.200176
0.191811
0.210366
0.215741
0.247769
0.250156
0.23475
0.236446
0.252731
0.246055
0.231349
0.176563
0.168646
0.196353
0.178526
0.156278
0.159446
0.183204