/*--------------------------------*- C++ -*----------------------------------*\
| =========                 |                                                 |
| \\      /  F ield         | OpenFOAM: The Open Source CFD Toolbox           |
|  \\    /   O peration     | Version:  v2012                                 |
|   \\  /    A nd           | Website:  www.openfoam.com                      |
|    \\/     M anipulation  |                                                 |
\*---------------------------------------------------------------------------*/
FoamFile
{
    version     2.0;
    format      ascii;
    class       surfaceScalarField;
    location    "0.1";
    object      phi;
}
// * * * * * * * * * * * * * * * * * * * * * * * * * * * * * * * * * * * * * //

dimensions      [0 3 -1 0 0 0 0];
oriented        oriented;


internalField   nonuniform List<scalar> 
13152
(
9.01807e-07
2.0201e-05
-1.46954e-06
-1.96332e-05
1.86162e-05
-1.71543e-05
-5.60116e-07
-3.48827e-06
4.23054e-05
-3.46705e-05
3.53637e-05
-2.16279e-06
2.11965e-05
-7.55003e-05
2.8494e-05
-2.44517e-05
6.03694e-05
-1.61347e-05
-2.95987e-05
-2.83988e-05
7.41322e-05
3.85564e-07
-1.6837e-05
3.16666e-07
-2.98987e-05
6.85623e-07
7.86507e-06
5.16879e-06
-2.98708e-05
7.8449e-06
3.36839e-07
-5.07262e-06
-1.54812e-05
-2.98026e-05
-8.64219e-06
-1.46998e-05
-5.14219e-06
2.84842e-05
-5.54888e-08
-8.66247e-06
7.5768e-08
-1.42176e-05
-5.37672e-07
5.63988e-06
-3.05542e-05
1.62518e-05
-2.94471e-05
2.99448e-05
2.93603e-05
-6.24383e-07
3.01606e-08
-1.51746e-05
-2.98928e-05
1.20441e-07
-7.49382e-05
3.14932e-07
1.60127e-05
3.02279e-05
3.1767e-08
7.47248e-05
3.58442e-05
1.26821e-05
2.53471e-05
-7.38734e-05
3.05029e-07
-6.24021e-07
3.61632e-05
1.2427e-05
2.71372e-07
-1.8793e-05
7.35254e-05
7.77397e-05
2.9048e-05
-7.21243e-07
-2.93473e-05
1.02058e-06
-1.63263e-05
-2.69045e-05
7.22788e-05
2.06487e-07
-1.7254e-05
-8.05785e-06
7.97607e-06
2.88267e-07
5.27305e-06
-3.05849e-05
-4.94979e-06
-1.39787e-05
-2.90241e-05
-1.38297e-05
1.39297e-07
2.91107e-05
2.25967e-07
-5.91165e-07
8.47422e-07
-1.96707e-06
1.71081e-06
-6.35309e-07
-3.2974e-08
7.71182e-08
-1.24681e-07
3.36795e-07
1.33936e-06
-1.17662e-06
-1.95711e-07
-7.95424e-08
-5.48174e-07
-4.59976e-08
-8.89649e-08
1.02811e-08
-3.78347e-08
3.28632e-07
-2.46098e-08
-1.18984e-06
-1.93117e-07
-5.1353e-07
5.95882e-06
-2.04322e-06
-3.40207e-06
8.69569e-06
-3.3692e-06
-5.84002e-06
-6.67993e-06
-1.00968e-05
1.97853e-06
4.53346e-07
-5.80108e-06
2.75637e-07
-3.40323e-07
-6.58703e-06
1.82736e-07
-1.62304e-05
-2.13281e-06
-3.9452e-06
-4.77549e-07
6.55556e-06
-4.76807e-07
-1.77901e-06
1.23007e-07
-3.98067e-06
-4.41341e-07
7.01404e-06
4.68016e-06
-1.56749e-05
6.64001e-06
-6.73133e-08
-3.33023e-06
9.49269e-06
-4.29087e-07
5.03266e-06
5.00053e-06
4.79369e-06
-1.48269e-05
3.21156e-07
4.93002e-06
-2.18506e-07
5.01639e-06
3.05294e-07
-5.72296e-07
5.3249e-06
1.77416e-07
4.91242e-06
-6.91022e-07
-5.60841e-06
1.59497e-05
-3.90699e-07
8.14568e-07
-3.90899e-06
-6.71955e-06
9.81396e-06
-5.38582e-06
-1.03623e-05
1.6563e-05
-4.63418e-06
-4.66026e-06
6.69164e-06
-7.10189e-06
-9.95171e-06
-1.0531e-05
1.05038e-05
-2.22553e-06
-1.29393e-05
-1.39868e-05
1.99181e-06
4.51155e-06
-1.83288e-06
-4.67048e-06
2.88199e-06
-5.22231e-06
4.33225e-06
-7.05573e-06
1.44494e-05
-2.2735e-06
5.64439e-06
-5.20372e-06
7.43211e-06
-1.4376e-05
-1.65285e-06
3.86277e-06
-3.06405e-06
-7.534e-06
-6.92888e-06
-4.06937e-06
1.85322e-05
9.28696e-07
-9.46967e-06
1.00695e-06
-6.01825e-06
1.80161e-08
3.12546e-06
5.39012e-06
-1.45339e-05
1.11477e-05
-8.00426e-06
1.32945e-05
-1.73741e-05
2.03727e-05
-3.99868e-07
1.71666e-08
8.01102e-07
-4.18401e-07
1.58448e-06
-1.09001e-06
-8.94332e-07
3.12701e-07
1.28894e-06
-1.94836e-07
3.22308e-07
-1.21748e-06
-9.63511e-07
-1.25657e-07
-1.0927e-06
4.41887e-07
3.07134e-08
5.10448e-08
-3.91178e-08
-3.42721e-08
2.23451e-08
-1.53859e-07
-3.43515e-08
2.39255e-07
-6.77529e-08
-1.25223e-07
-3.80446e-09
-1.97255e-07
1.66708e-07
-1.57553e-07
1.19477e-07
-3.04537e-08
-2.34554e-07
-3.1323e-07
2.93977e-08
6.74873e-08
3.8827e-07
-4.85155e-07
-5.65868e-08
1.3236e-07
-4.63753e-08
8.8299e-09
2.07079e-09
-1.06763e-07
6.27392e-07
2.81108e-07
-3.79041e-07
2.36804e-07
-2.95864e-05
3.17848e-05
4.16971e-07
-2.61535e-06
4.6269e-05
2.62412e-05
4.09357e-05
5.08197e-06
7.29717e-05
1.94438e-06
9.38697e-06
1.49098e-05
1.49911e-05
2.78889e-05
-9.85949e-06
2.99325e-05
-5.5538e-08
3.06951e-05
-2.96585e-08
-2.1836e-05
-8.82943e-06
-2.56636e-05
-2.90551e-05
8.54138e-05
-3.38447e-07
-2.53548e-05
-2.74262e-05
2.71582e-05
-7.05153e-08
2.36532e-05
-7.64342e-05
-4.82003e-06
2.92316e-06
-3.00284e-06
-1.63422e-07
-1.30509e-05
9.24921e-06
3.9651e-06
-9.2882e-06
4.71018e-06
4.41462e-06
2.16289e-05
3.57936e-05
1.02917e-05
-1.18096e-05
6.22801e-06
-6.30746e-06
2.58484e-05
4.4186e-05
-3.43667e-05
7.36723e-05
1.92168e-06
3.65856e-06
-2.08839e-06
-3.49185e-06
4.78245e-06
-7.6179e-06
4.75712e-06
-3.48304e-06
1.1924e-05
-3.59912e-06
7.41859e-06
-5.90788e-06
4.12726e-06
-1.12183e-05
8.23071e-06
-1.17214e-05
1.21662e-05
-3.8826e-06
-5.86563e-06
-3.3719e-06
1.31201e-05
1.72356e-06
-1.56631e-06
-4.03985e-06
-8.11071e-06
3.96864e-06
-5.27745e-06
6.96574e-06
-3.2546e-06
4.01138e-06
-1.33287e-05
9.27394e-06
-1.33733e-05
1.28678e-05
3.18078e-07
5.02679e-06
-3.78575e-06
-1.55912e-06
4.3893e-06
-4.48294e-06
4.1169e-07
-3.67748e-06
1.30935e-05
5.65133e-06
3.21832e-06
-1.33526e-05
4.2948e-06
1.76821e-06
-1.4662e-06
2.08351e-06
-2.03367e-06
5.51103e-06
-1.16569e-06
-6.78321e-06
2.43788e-06
-5.30386e-06
-2.53037e-06
1.33453e-05
-9.45428e-07
-5.52414e-06
1.68589e-06
-2.41606e-06
-6.05304e-06
-2.41386e-06
1.56936e-06
-6.77186e-06
7.78773e-06
-1.96129e-06
3.52364e-06
-1.58197e-05
-1.84191e-06
7.21576e-06
-7.34309e-07
4.41967e-06
-4.53322e-08
-4.53831e-06
1.63973e-07
-3.52801e-06
-4.33687e-06
1.22846e-05
-3.85233e-06
2.78972e-07
5.46131e-06
3.34562e-06
4.61415e-06
1.01112e-06
-4.15885e-07
6.93163e-07
-9.22605e-07
7.55772e-06
-7.00501e-07
-6.59444e-06
-2.62779e-07
-2.62299e-06
-5.39027e-06
1.5571e-05
-3.06464e-06
-2.58855e-07
2.11943e-06
-7.96241e-06
-7.51469e-07
-4.76938e-06
1.49853e-06
8.09381e-06
4.59514e-06
-1.57536e-05
7.2259e-06
6.09054e-07
-1.20096e-05
1.44661e-05
-1.53769e-05
7.49977e-06
2.32682e-06
-5.7043e-06
-4.12229e-06
-3.09669e-06
1.04749e-06
9.54897e-06
3.10769e-06
-3.87756e-06
2.4708e-06
-1.07448e-06
-7.10063e-06
-9.15515e-07
4.43381e-06
-9.69089e-06
5.73783e-06
7.06076e-06
-5.2346e-07
-1.3045e-05
2.52204e-06
-4.11997e-06
7.34439e-06
-5.56587e-07
4.66426e-07
-2.91914e-06
3.0093e-06
3.48514e-06
-5.83672e-07
-3.45807e-06
-4.20428e-06
8.15584e-06
-1.90181e-06
3.70187e-06
-2.38374e-06
4.18907e-06
2.58722e-06
-3.08964e-06
3.85714e-06
-1.85276e-06
1.53503e-06
1.97076e-06
-1.65304e-06
4.56537e-06
-1.61953e-06
-4.79859e-06
3.21876e-07
5.77855e-06
-4.79238e-06
8.7813e-07
5.88505e-06
-1.29538e-06
-5.14998e-06
3.56285e-06
-6.47774e-06
4.7629e-06
2.80065e-06
-1.05678e-07
-2.40124e-06
-2.93733e-07
-3.31158e-06
-1.71017e-06
7.82241e-06
-3.37225e-06
-4.49772e-08
1.91679e-06
1.46056e-06
3.78706e-06
-2.16399e-06
-3.56732e-06
5.64423e-06
-5.479e-06
2.40472e-05
1.57635e-05
4.92553e-06
-4.47362e-05
-9.02595e-06
5.22637e-06
2.78469e-05
1.24269e-05
-5.68916e-06
-1.83295e-05
-1.50299e-06
3.22595e-05
-1.63105e-05
-7.70773e-06
8.79527e-06
-2.018e-05
1.2519e-05
3.22596e-06
-1.38988e-07
-3.35286e-06
2.65884e-07
-3.86831e-06
-1.64606e-06
8.74036e-06
-4.52759e-06
5.20323e-07
4.97715e-06
1.47928e-06
-9.80929e-06
4.59269e-06
6.50361e-07
-5.69609e-06
8.64274e-06
-8.74437e-06
3.69582e-06
2.88004e-07
-3.23141e-06
-7.52414e-07
-3.03159e-06
-3.08188e-06
-3.09161e-06
3.48008e-07
-8.43858e-07
-3.03779e-06
7.99754e-07
-2.15158e-06
-1.92372e-06
4.07607e-06
-9.31928e-06
1.38626e-06
-3.63689e-06
-2.64326e-07
3.61066e-06
2.90562e-07
4.79714e-06
2.14253e-06
-1.05766e-05
5.98799e-06
-1.4552e-06
-4.17521e-06
-2.66235e-06
1.04482e-05
-6.26845e-06
6.86348e-06
-1.09894e-05
1.01891e-05
-2.68454e-07
-4.79457e-06
4.68967e-06
3.73346e-07
-4.09446e-06
-2.14161e-07
4.04017e-06
3.74282e-06
-1.26318e-05
2.6165e-06
-3.92579e-06
1.09513e-06
-4.70254e-06
1.13592e-05
-4.9433e-07
3.11377e-07
-5.07184e-07
-4.70082e-06
-2.40771e-07
4.66318e-06
2.78404e-07
6.08077e-06
1.50296e-06
5.70019e-06
1.39807e-07
-6.02086e-06
-1.2917e-06
1.19757e-05
-5.87579e-06
1.33332e-07
-1.72235e-06
-1.69353e-06
2.12418e-06
-1.79298e-06
-5.80515e-06
1.73592e-06
-2.02594e-06
5.74258e-06
-4.36126e-06
-7.05312e-08
-8.67305e-08
4.51852e-06
6.89598e-06
1.83629e-06
6.00397e-06
8.21471e-07
7.33085e-06
-6.40647e-06
-1.95806e-06
1.38074e-05
8.93575e-06
-1.35059e-05
1.29817e-05
3.50266e-06
9.28157e-09
-3.30413e-06
-2.07809e-07
-6.23994e-06
-1.0983e-06
1.08409e-05
-4.43976e-06
-1.79091e-06
5.53234e-06
1.53362e-06
-1.03701e-05
4.78217e-06
5.42352e-07
-7.29771e-06
1.09816e-05
-1.02039e-05
8.82824e-08
7.12647e-09
-8.59587e-08
-9.45016e-09
-1.44617e-07
5.17021e-08
1.81197e-07
9.05406e-08
-2.28031e-07
5.8946e-08
-1.02285e-07
-4.26197e-08
1.23867e-10
1.10524e-07
-5.71414e-07
3.61313e-07
3.00642e-07
1.21281e-07
-9.20726e-07
-1.97505e-07
5.58941e-07
-1.7851e-07
3.31146e-07
-7.08827e-08
-3.4127e-07
8.10068e-08
-1.37258e-06
-2.68177e-07
1.9719e-06
-3.24373e-07
-1.11909e-06
2.77677e-07
1.18846e-06
-1.73431e-06
1.09014e-06
-1.15373e-06
-1.56619e-06
2.43027e-06
-1.59514e-06
1.22231e-05
2.79768e-06
-5.89749e-06
-9.12329e-06
-1.28357e-06
-6.24456e-06
1.97512e-05
1.61191e-06
-9.78821e-08
4.45273e-07
3.13495e-06
-1.96839e-06
1.90504e-07
1.56811e-07
3.98381e-06
-2.86529e-06
-7.36315e-06
-7.67058e-06
5.75673e-06
-7.81761e-08
3.47766e-07
-7.5583e-06
5.89256e-07
-5.06657e-07
1.8893e-06
-4.83468e-07
-2.72444e-06
4.68728e-06
1.56218e-05
2.9741e-06
-2.32832e-05
-1.47816e-06
8.31461e-06
-2.1492e-06
-4.91746e-06
1.90611e-05
2.103e-07
-6.02144e-07
8.70642e-06
6.87729e-07
-2.62665e-06
-3.14682e-06
-1.08293e-06
-7.749e-07
-4.10926e-06
-8.79394e-07
1.48006e-06
3.50859e-06
1.96829e-06
1.08568e-06
-7.16323e-06
2.00279e-06
-9.13896e-07
3.6373e-06
1.43007e-06
-3.98168e-06
-1.4591e-07
5.26327e-06
-4.4996e-06
6.35648e-06
-3.98343e-06
5.38286e-05
2.99628e-06
-5.40798e-05
-2.74516e-06
-4.09434e-05
-1.0237e-05
0.000105009
-4.0858e-05
2.91097e-06
1.63521e-05
-1.3901e-05
-5.65307e-05
-1.4623e-05
2.07383e-05
5.52831e-05
9.32116e-06
-0.000105462
5.49773e-05
3.21698e-06
-1.66062e-05
5.69604e-05
-2.11856e-05
-4.01298e-06
-7.60977e-07
1.29456e-06
3.47939e-06
6.23933e-06
2.31288e-06
-1.25652e-05
6.38039e-06
-9.02033e-07
4.35011e-06
-5.63321e-06
2.57768e-06
-2.57839e-06
1.04079e-05
7.95708e-06
-1.12774e-05
1.17591e-05
9.71695e-06
1.58878e-05
-2.88096e-06
-2.27238e-05
1.31827e-06
3.6318e-08
8.36236e-06
-3.6485e-06
2.08546e-05
8.52262e-08
9.10588e-06
-9.15479e-06
2.97675e-06
5.47083e-06
3.32353e-06
-3.9953e-06
9.54844e-06
8.26721e-06
5.93712e-06
-1.77533e-05
3.54897e-06
1.72952e-06
-1.80474e-07
6.71817e-06
-1.50572e-05
-1.65424e-06
-1.00329e-05
1.15067e-05
1.05962e-06
4.00434e-06
-3.63524e-06
-3.97237e-06
-2.42531e-06
3.73408e-06
-6.30963e-06
6.89457e-06
-1.82176e-05
-1.4831e-05
6.8733e-06
4.83451e-06
-5.32801e-06
-6.3798e-06
7.44748e-06
-2.36573e-06
1.79156e-06
7.4544e-07
1.15366e-05
5.4493e-06
-6.17828e-06
-4.59899e-06
-3.58551e-06
6.6691e-06
2.04125e-05
-2.14915e-06
-1.75179e-05
2.94677e-06
2.90023e-05
-9.74633e-06
9.10757e-06
-1.80737e-05
-1.99916e-08
3.30744e-09
-5.43611e-08
7.10453e-08
-4.86458e-08
6.72649e-08
-3.86107e-08
3.01358e-08
-7.54745e-08
-6.67767e-08
-9.5104e-08
2.29146e-07
-2.39715e-07
1.18577e-07
-2.52355e-07
1.87387e-07
-5.67545e-07
1.48541e-07
1.79062e-07
-3.70223e-07
-2.26463e-08
9.6168e-08
7.50194e-08
1.46965e-07
2.11744e-09
3.26045e-07
2.08809e-07
1.33425e-09
-1.21305e-07
6.78912e-07
-1.75053e-07
3.85196e-07
-2.21339e-07
-7.70073e-07
3.01864e-07
7.40856e-07
7.91353e-08
-1.12185e-06
1.36941e-06
-7.75707e-07
-2.9184e-07
5.6444e-07
1.54583e-06
1.81675e-08
2.42261e-07
3.04012e-07
-1.27044e-07
1.69104e-06
2.50453e-06
-3.03798e-06
2.45662e-06
1.8537e-05
-1.71049e-06
2.94921e-06
-1.97757e-05
-9.72808e-06
-1.40898e-06
2.9674e-05
-3.8917e-06
-7.54689e-06
-2.62786e-06
-3.79852e-06
2.53468e-06
-1.07315e-05
5.56778e-07
-1.8183e-05
1.29755e-05
-2.59654e-05
-6.6008e-07
2.96974e-06
-3.53392e-06
1.22426e-06
2.65476e-06
-2.4866e-06
-8.28246e-07
-1.57108e-06
7.19556e-06
2.44419e-06
1.27857e-06
-6.20937e-06
3.57381e-06
-1.95787e-06
7.06581e-07
1.09344e-06
-5.21454e-07
1.20083e-06
3.07956e-06
-7.87642e-07
4.17391e-07
-3.22814e-06
-6.11442e-06
-2.76028e-06
-4.69752e-07
9.34445e-06
1.83712e-07
-1.95764e-06
-4.34051e-06
-2.96425e-06
3.8766e-07
6.23803e-06
5.17334e-07
-9.71967e-06
4.15279e-06
2.4728e-06
7.08524e-06
-8.52559e-06
1.07682e-05
2.34706e-06
1.14184e-05
-4.39247e-06
-9.37296e-06
4.30938e-06
-3.96503e-06
2.00256e-06
2.40659e-06
1.33209e-05
1.03243e-05
-2.04213e-06
-1.22473e-05
4.26024e-06
8.06629e-06
2.55636e-06
4.53788e-07
-5.05265e-06
5.10069e-07
6.30636e-06
-2.64472e-06
5.56129e-06
-6.58376e-06
2.2394e-05
-1.21536e-05
-2.70389e-05
1.67985e-05
-4.90736e-05
1.06404e-05
6.08277e-05
-2.3333e-05
-3.78928e-05
4.48086e-05
1.94519e-05
-9.12991e-05
1.75101e-05
4.40975e-05
-3.44895e-05
6.26404e-05
-3.837e-05
-9.99947e-07
-3.14017e-05
7.62396e-06
2.47777e-05
-3.93092e-05
3.33436e-05
4.96623e-06
3.94071e-05
-0.000110118
1.47463e-05
-2.79182e-05
2.07961e-05
-3.10734e-05
7.05982e-05
1.31018e-06
9.60209e-07
1.27999e-05
-5.61128e-08
4.08678e-06
-4.09106e-06
6.03925e-08
6.17628e-06
-5.57352e-06
-6.58898e-07
-1.74376e-06
1.20068e-05
6.59798e-06
1.68739e-06
-1.23765e-05
6.00855e-06
6.49767e-07
8.10391e-06
-1.19901e-05
1.23687e-05
5.80684e-06
3.76024e-06
2.1838e-06
-1.17509e-05
5.08359e-07
5.72581e-06
-4.27356e-07
5.13957e-07
3.75462e-06
-8.12124e-06
2.08913e-06
1.17579e-05
6.06567e-06
-1.20032e-05
6.05734e-06
5.22268e-07
1.1901e-05
1.27651e-07
3.97296e-06
-9.22362e-08
-4.00838e-06
5.97702e-06
-5.59208e-06
-2.57278e-07
-1.88658e-06
1.18366e-05
-6.23933e-06
6.0286e-06
1.18499e-07
1.89602e-06
-1.21437e-05
8.01643e-06
-1.17125e-05
1.21585e-05
5.46511e-06
-2.22078e-07
-4.99615e-06
-2.46881e-07
-4.10229e-06
-1.08659e-06
1.0654e-05
-8.59328e-08
-4.23847e-06
1.56281e-06
-1.50246e-06
-5.05653e-06
-1.47571e-06
1.95189e-06
-6.11002e-06
5.05231e-06
9.71773e-07
7.96221e-07
-1.11447e-05
-1.6662e-06
5.24277e-06
-2.37246e-06
5.6547e-06
-2.63929e-07
-4.69958e-06
-6.91183e-07
-3.65413e-06
-1.64727e-06
1.09561e-05
-3.04585e-07
-3.61346e-06
-5.7972e-06
5.63081e-06
-1.38185e-07
1.59237e-06
-1.1003e-05
-7.33418e-06
1.13177e-05
-1.04414e-05
-2.01845e-06
-1.6859e-07
2.92403e-07
1.89463e-06
4.70046e-06
4.42115e-06
-1.11401e-05
4.19546e-06
3.36388e-07
1.00454e-06
-1.05885e-06
3.467e-07
-7.78622e-07
3.67777e-06
8.45626e-07
2.51667e-06
4.26244e-06
6.29727e-07
3.53808e-06
-4.75853e-07
-3.69195e-06
3.76597e-06
-3.91038e-06
7.74131e-07
-4.2513e-06
1.15553e-05
-3.74926e-06
3.6097e-06
4.41375e-06
-1.1855e-05
3.5528e-07
1.48082e-07
-2.86337e-07
-3.60991e-07
-2.87302e-06
2.8012e-07
2.95389e-06
-4.41184e-06
4.39476e-06
-3.43899e-07
3.70065e-06
-1.09855e-05
1.0639e-06
-1.06404e-06
2.80273e-07
-8.90095e-07
4.90791e-06
-8.21689e-07
4.32637e-06
1.81494e-06
1.05876e-06
2.66318e-06
8.07818e-07
-4.52976e-06
2.98239e-07
1.00757e-06
-2.47052e-07
2.74458e-06
2.16813e-07
7.96976e-07
4.3303e-06
-4.31946e-06
3.46712e-06
-1.66257e-06
-4.77377e-06
-2.26657e-07
-1.68095e-06
-4.38761e-06
1.09765e-05
4.14301e-07
3.53091e-07
2.38271e-07
-4.31599e-06
-2.41748e-07
-1.67135e-06
-1.05171e-05
-2.54482e-06
-3.1195e-06
-5.61912e-07
6.22623e-06
-4.8944e-07
-1.9126e-06
-1.42775e-07
-5.93881e-07
-3.01507e-06
3.31882e-06
-3.48282e-06
-1.74861e-06
-5.2387e-06
7.99561e-06
-5.32922e-06
-5.03371e-07
-1.18271e-05
2.89407e-07
2.91899e-06
-2.92564e-06
-2.82749e-07
1.22601e-06
-1.31046e-06
3.7386e-07
-1.76116e-06
5.90617e-06
4.10308e-06
4.37675e-06
-1.14055e-05
4.03655e-06
-2.16191e-07
-5.26794e-07
3.5931e-06
4.16609e-06
-4.04241e-06
2.50185e-07
-5.92077e-07
-3.65575e-06
-1.96024e-07
3.65854e-06
1.93237e-07
5.27417e-06
2.88102e-06
-1.18109e-05
5.04868e-06
2.94722e-08
-1.36858e-06
-2.34061e-07
5.26118e-06
-1.38583e-06
2.10488e-07
-5.26477e-07
-1.62213e-06
1.91454e-06
-2.49812e-06
5.85815e-07
2.42531e-06
-2.04241e-06
5.85187e-06
-6.72173e-06
-6.52739e-06
-4.9385e-06
8.0719e-07
-5.61437e-06
-1.7205e-06
-3.9997e-06
-4.72526e-06
-2.75239e-09
-5.85994e-06
-4.03305e-06
-2.32538e-07
2.65891e-07
5.78926e-06
-1.18647e-05
-3.03228e-07
-3.93681e-07
4.56917e-06
-1.60388e-06
-2.57161e-06
6.59019e-06
-2.4293e-06
-4.55457e-06
-7.34972e-06
-5.32641e-06
-1.37723e-06
9.36733e-08
-3.20331e-07
5.13873e-07
-4.3204e-06
4.48162e-06
-1.13175e-05
-7.51115e-07
-1.0617e-08
-4.24251e-06
4.32673e-08
4.20986e-06
-5.89479e-06
5.62236e-06
2.61824e-07
1.44856e-06
-1.15858e-05
5.83197e-06
-5.65629e-06
-1.324e-07
-1.22274e-06
1.12646e-05
1.65444e-06
-1.64713e-06
-5.6636e-06
-1.61554e-06
2.04723e-06
-1.63323e-06
5.64006e-06
-1.83176e-06
-3.23526e-06
5.26016e-07
3.75089e-06
-1.04165e-06
3.79394e-06
4.04904e-06
-1.10782e-05
3.17452e-07
4.00252e-06
4.13245e-06
-4.05327e-06
2.38269e-07
-3.96716e-06
1.21021e-05
1.14221e-08
-1.5638e-08
-2.04837e-07
3.44896e-06
-2.26045e-07
-3.48121e-06
2.58296e-07
-6.18705e-06
-1.85449e-06
1.14905e-05
-6.17482e-06
5.34988e-06
2.08433e-06
-1.09154e-05
5.40722e-06
2.00949e-07
-7.99808e-06
1.15508e-05
-1.20886e-05
3.96753e-06
5.98949e-06
1.76662e-06
-1.17236e-05
-1.32623e-07
4.62667e-08
4.05388e-06
5.9163e-06
-5.94508e-08
5.98675e-06
-5.50383e-06
-4.36655e-07
-1.94617e-06
1.19868e-05
-7.71498e-06
1.16851e-05
-1.14522e-05
-4.0429e-06
-1.32823e-07
3.83534e-06
3.4039e-07
6.77528e-06
-1.28441e-05
8.37313e-07
-5.44656e-06
1.14061e-05
6.36406e-07
-3.67114e-06
8.05048e-07
4.94812e-06
-2.08203e-06
4.85032e-06
6.51307e-06
-1.50345e-05
7.69549e-07
4.88583e-06
3.69032e-06
-5.2639e-06
2.34313e-06
-4.88934e-06
1.34655e-05
-1.8866e-06
3.13578e-06
-1.82779e-06
-7.72611e-06
6.22045e-07
8.03417e-06
-9.30111e-07
5.39036e-06
3.27535e-06
-1.63918e-05
4.93149e-06
1.08086e-06
-5.28395e-06
-3.88542e-06
1.41009e-05
-9.35907e-06
5.15598e-06
9.48826e-06
-1.5572e-05
1.3637e-05
-7.06799e-06
3.05868e-06
1.23942e-05
-8.38489e-06
6.96009e-06
6.60496e-06
-2.06331e-05
6.61443e-06
3.40416e-06
-4.56081e-06
-7.43925e-06
1.86145e-05
-1.61146e-05
1.49578e-05
1.27988e-05
-2.23085e-05
1.77535e-05
3.29283e-06
1.21174e-05
-5.8343e-06
-9.57593e-06
6.52091e-06
-6.11944e-06
2.8914e-06
-1.17484e-06
1.98132e-05
1.22718e-05
1.14043e-06
-1.95316e-05
4.51982e-06
1.06435e-05
-7.40534e-06
1.07504e-05
-1.2099e-05
5.22831e-06
-4.26804e-06
-4.58221e-06
3.62194e-06
-1.33717e-05
3.89639e-06
1.47037e-05
-5.13624e-06
-1.25033e-05
1.14892e-05
-4.81952e-06
-1.12518e-05
4.24962e-06
1.08617e-05
3.47433e-06
-4.55652e-08
-8.24816e-06
9.43049e-08
7.62972e-06
-3.62129e-06
7.61216e-06
-8.80288e-06
1.98607e-06
5.88225e-06
9.35979e-06
-1.72281e-05
2.84068e-06
7.07413e-06
-7.92863e-06
5.21099e-06
3.51209e-06
5.51373e-06
9.52228e-06
-7.96182e-06
6.38668e-06
8.48718e-06
1.00325e-06
1.37302e-05
1.09023e-05
3.43647e-06
1.01581e-06
-8.061e-07
-3.64618e-06
-1.36251e-06
4.58059e-07
4.34091e-06
-1.66049e-06
1.31378e-06
4.78745e-06
-3.43614e-07
-6.10434e-06
1.43437e-06
4.66684e-06
-4.28026e-06
6.17268e-06
-5.43001e-06
-5.03135e-07
-1.51421e-06
-2.32908e-06
4.34642e-06
-1.53485e-06
-3.641e-06
4.6727e-06
-1.33075e-06
-1.71831e-06
-3.09303e-06
-3.63143e-06
4.39538e-06
-1.88452e-06
-4.84954e-06
-1.22022e-06
-3.74198e-06
-4.82307e-06
2.64675e-06
1.3446e-06
1.93877e-07
-4.18523e-06
-6.62989e-07
1.01317e-06
2.29656e-06
1.62816e-06
-9.4656e-07
-4.04446e-06
6.9283e-08
5.60334e-06
-8.87066e-07
-4.10397e-06
2.87676e-06
-3.56996e-06
3.95919e-06
8.95621e-07
-4.86783e-07
-1.40076e-06
9.91926e-07
-1.16914e-06
-1.77967e-06
3.84444e-06
-1.11344e-06
-5.42488e-07
-2.73246e-07
-1.63642e-06
5.08905e-07
-1.25935e-06
-7.93572e-07
6.20881e-07
-3.37075e-06
-1.18095e-06
-1.37126e-06
2.74573e-07
1.51722e-06
-4.20532e-07
8.00562e-07
1.25703e-06
-3.42886e-06
3.26865e-07
7.48264e-07
1.58223e-06
-1.21444e-06
-4.0929e-08
-1.3139e-06
3.6444e-06
3.01077e-06
1.30013e-06
-3.05387e-06
9.33612e-07
3.59437e-06
8.10968e-07
-7.25286e-07
4.30676e-07
-2.24938e-06
-1.61827e-06
-3.44645e-07
4.21229e-06
-5.09462e-07
-1.78087e-06
-1.85515e-06
-2.72589e-07
5.23966e-07
-2.0904e-07
-2.17009e-06
4.42721e-07
-1.91351e-07
6.597e-07
7.9061e-07
-1.65936e-06
1.79604e-06
-6.93626e-07
3.15921e-06
-4.14948e-06
4.61057e-06
-2.03945e-06
3.31577e-07
1.33151e-06
3.76361e-07
1.0283e-06
1.742e-06
-4.80976e-06
1.73554e-07
1.1863e-06
1.49574e-06
-8.35743e-07
-4.86451e-07
7.31624e-08
2.60886e-06
-1.50714e-06
1.17029e-06
1.66834e-06
1.40108e-06
-1.16625e-06
-2.56492e-06
3.80836e-06
-1.99961e-06
-7.62805e-07
-7.85228e-07
4.15689e-06
-1.04403e-06
-2.05245e-07
8.93768e-07
7.51317e-07
-2.68913e-06
7.88798e-07
-1.00292e-07
5.08769e-07
-1.75709e-06
2.40932e-06
-1.11176e-06
5.4324e-06
-2.9777e-06
1.98781e-06
1.26391e-06
-2.74011e-07
9.29583e-08
2.68594e-06
8.94433e-07
1.18626e-06
3.21062e-06
3.69735e-07
-2.42782e-06
6.82467e-06
-7.94278e-07
2.88177e-06
7.12651e-06
6.74312e-07
-1.06826e-05
2.75071e-07
1.76365e-06
8.43041e-07
-3.55267e-06
5.66401e-06
-4.84683e-06
-1.52901e-05
-1.02167e-05
-3.3703e-06
2.8877e-05
-5.82666e-06
-1.18887e-05
-7.4435e-06
-8.5998e-06
-1.44906e-05
-6.39756e-06
-1.13219e-05
-1.50575e-05
4.37146e-07
-1.42782e-05
-1.94845e-05
6.27419e-06
2.10429e-06
1.18815e-06
5.92905e-06
-5.1126e-07
-8.86045e-06
-1.1603e-05
-2.47499e-07
-3.46211e-06
6.86376e-06
2.62673e-06
-1.01543e-05
-3.97629e-06
-7.00419e-07
9.43147e-06
1.49479e-06
-2.10806e-05
3.02252e-06
2.43266e-06
7.50686e-06
1.08815e-06
-9.29544e-06
2.62192e-06
8.11896e-06
-2.47455e-06
1.16397e-05
4.24637e-06
3.10462e-06
1.75657e-06
1.17716e-05
-8.56142e-07
1.11158e-05
3.76042e-06
-1.45637e-05
7.14609e-07
-1.36929e-06
9.55323e-07
-1.09822e-06
7.36131e-07
1.0767e-06
-1.21159e-06
-1.25592e-06
1.0207e-06
5.39117e-09
-2.23767e-06
-1.09137e-06
2.87328e-06
-3.22852e-06
3.83399e-06
1.43632e-07
4.599e-08
-3.33423e-07
7.06201e-07
1.6045e-07
-4.25946e-08
-8.24819e-08
-3.53731e-08
-2.95724e-08
-5.91893e-08
2.49211e-07
-2.93234e-08
-4.28438e-08
-2.76958e-08
3.11983e-09
-4.74757e-09
-1.12066e-08
-5.93331e-08
-9.01329e-08
3.40633e-08
-1.83822e-07
-3.40013e-08
-3.28571e-09
-1.05698e-07
1.42985e-07
2.3826e-08
-3.27994e-08
-2.50279e-08
-3.79218e-08
5.8462e-08
1.40367e-08
-1.26495e-08
-1.07085e-07
-6.60116e-08
4.72488e-08
2.94776e-07
-1.10205e-07
-2.22492e-07
-5.63493e-07
9.1673e-07
-1.26718e-07
-4.94992e-08
-7.0286e-07
-5.48067e-08
-3.69753e-07
-3.25859e-08
-5.09425e-07
-1.17722e-08
2.56506e-08
3.55485e-08
-4.94268e-08
1.07571e-07
-4.67344e-08
-7.26094e-08
8.27395e-09
1.24948e-07
-6.58769e-08
2.16939e-07
-1.15513e-07
1.44929e-07
-2.57541e-07
1.54814e-07
-9.89082e-08
-4.76324e-08
1.50387e-08
2.64723e-07
-2.69957e-07
5.01934e-07
-2.23937e-07
-9.72682e-09
-2.34563e-08
4.10706e-10
3.27724e-08
3.34665e-09
-2.8647e-08
1.55735e-08
-2.48576e-08
3.2936e-08
-9.80311e-08
3.64481e-08
6.74096e-08
-2.98865e-08
-5.43043e-08
-3.1174e-07
-3.17934e-08
1.50663e-08
2.02279e-08
1.02704e-07
-5.44513e-08
2.12713e-08
4.8877e-08
-1.56971e-08
1.56589e-07
2.90809e-08
-2.40121e-07
5.73979e-08
1.20462e-07
-3.57801e-08
2.15657e-07
-1.31e-07
1.67035e-07
-1.73734e-07
1.50274e-07
7.41586e-08
4.86393e-07
-8.59016e-07
1.82905e-07
3.64371e-07
-6.82882e-08
6.26121e-07
-1.41685e-06
6.69843e-08
-1.92815e-07
5.24522e-07
-3.69445e-07
6.78563e-07
4.08963e-07
-1.52287e-07
5.49396e-07
8.94742e-07
-7.19396e-07
-6.30895e-07
4.55549e-07
-1.44962e-06
1.55163e-06
7.92734e-07
-5.25648e-08
-2.11645e-06
1.97185e-07
-6.24061e-08
4.13751e-08
9.48543e-07
1.03984e-06
-1.05103e-06
3.46543e-07
5.95855e-08
7.78865e-07
6.28074e-08
-9.01257e-07
1.91652e-06
-1.77182e-06
-8.51093e-08
1.26977e-06
1.42562e-06
-1.32346e-06
1.7006e-07
2.42317e-06
-3.59306e-07
4.6146e-07
1.24623e-06
-2.84799e-06
9.49733e-07
7.48281e-06
2.78086e-06
-1.41881e-05
3.92444e-06
-1.80908e-06
-4.07466e-06
1.33665e-05
-1.95328e-06
2.92503e-06
9.33649e-06
-5.4398e-06
-1.80848e-05
-7.51225e-06
1.27741e-05
1.07979e-06
-8.4729e-06
-3.50746e-06
3.14814e-06
4.72981e-06
-4.46905e-07
-7.43105e-06
-6.01092e-07
2.92261e-08
3.72e-06
3.53812e-06
5.90577e-07
7.05748e-06
-3.99951e-06
-3.02875e-06
-2.23322e-07
1.10008e-05
-8.93158e-06
1.22464e-05
-1.3378e-05
-3.09828e-06
-1.77755e-06
-1.05893e-06
5.93475e-06
1.0681e-06
-1.6712e-06
-2.4952e-06
1.99364e-06
-2.70311e-06
3.78263e-06
-2.78627e-06
-2.66757e-06
-3.35705e-06
6.0807e-06
-7.5953e-06
6.23188e-06
-1.30847e-05
-1.47185e-06
2.80334e-06
-3.79985e-06
2.46836e-06
2.89196e-06
-1.31943e-06
-3.04439e-06
-3.06075e-06
8.75601e-06
-4.59684e-06
6.32372e-06
-3.04634e-06
6.55327e-06
-1.41945e-05
-8.13371e-07
1.99473e-06
5.14232e-06
2.45732e-06
3.28255e-06
-2.45041e-07
-3.5841e-07
-2.0502e-06
-5.53602e-06
-3.9065e-07
3.51814e-06
2.40853e-06
2.65866e-06
-6.51482e-07
-7.54323e-06
-3.72655e-07
2.64062e-06
4.65527e-06
-2.55963e-06
-2.32279e-08
7.3191e-06
1.28262e-06
-4.84096e-07
-3.35818e-06
-7.91648e-07
2.05101e-06
1.66892e-06
-2.80454e-06
4.39535e-06
1.51011e-06
2.84746e-07
-6.25366e-07
-1.16949e-06
-7.82141e-07
-2.74933e-07
2.56715e-06
-1.04926e-06
5.51811e-07
2.08805e-06
-5.86302e-07
-2.12714e-06
-7.11451e-07
2.52443e-06
3.2933e-06
-4.92892e-06
3.13356e-06
1.3269e-06
-3.26486e-06
4.81853e-06
-2.88057e-06
-4.23457e-06
3.90823e-06
1.65322e-06
6.58172e-06
-1.40812e-05
-3.0488e-06
-6.264e-06
1.3221e-05
-4.39557e-06
2.99999e-06
-1.06848e-06
-2.51395e-06
-7.5777e-06
-8.89047e-07
5.08867e-06
3.37807e-06
5.58376e-06
2.73689e-06
-1.58984e-05
-7.07719e-07
5.40232e-06
-2.30479e-06
4.42948e-06
2.96393e-06
4.67699e-06
-4.24515e-06
5.96152e-06
-1.99239e-06
1.57931e-05
7.99459e-06
1.70212e-07
-9.49058e-07
-4.9381e-06
1.4502e-05
-4.93201e-06
1.6411e-07
7.55474e-06
1.66581e-06
-4.40555e-07
2.33561e-06
4.2331e-07
-2.31837e-06
5.48624e-06
-4.39983e-06
-1.52697e-06
-3.14238e-06
1.09642e-05
-2.59113e-06
1.97897e-06
1.03546e-06
4.77743e-07
-5.38726e-06
2.92876e-06
-6.85085e-06
1.76531e-06
-3.97391e-06
-6.15196e-06
-1.32381e-06
1.14497e-05
1.25501e-08
1.3315e-07
-4.11962e-06
-4.62255e-06
-1.51688e-06
-7.08871e-06
5.74556e-06
1.4763e-06
1.55698e-06
-1.27653e-05
7.55795e-06
-1.06235e-05
1.19797e-05
-3.37821e-06
3.75695e-07
3.14091e-06
-1.38394e-07
3.31974e-06
3.30484e-06
-1.00028e-05
3.29139e-06
4.04031e-07
7.59033e-07
3.0783e-06
-5.32504e-07
3.32116e-06
5.78762e-07
-3.6517e-06
1.02642e-05
-1.69404e-07
-1.79901e-06
-3.73294e-07
3.72348e-07
1.79995e-06
3.97038e-06
3.82454e-06
-9.59394e-06
3.71209e-06
-1.15064e-07
8.87069e-07
-8.9436e-07
3.79617e-07
-7.50371e-07
3.43735e-06
7.06858e-07
2.2233e-06
3.66854e-06
3.08703e-07
3.44971e-06
-3.43514e-06
-3.23268e-07
4.01255e-06
-3.17162e-06
-5.32237e-07
-3.52325e-06
1.09855e-05
3.45188e-06
3.12404e-06
-1.00111e-05
3.01337e-06
8.59375e-07
-9.06984e-07
3.49448e-07
-1.42251e-06
-5.01079e-06
-4.46968e-06
1.0903e-05
2.91539e-07
-3.0253e-08
-1.68381e-06
-5.17843e-06
4.59152e-07
-2.176e-06
1.97511e-06
1.70619e-07
1.21666e-06
-5.0765e-06
3.52749e-06
-7.48928e-06
3.86354e-06
1.63904e-06
-1.47063e-07
3.3087e-06
1.67287e-06
-1.00581e-05
3.36878e-06
1.10518e-07
-5.8288e-06
1.08366e-05
-5.16896e-06
-5.49357e-07
4.689e-06
-5.27308e-07
8.16228e-07
-4.97792e-06
-2.76723e-06
-3.68387e-06
-5.947e-07
-2.69984e-06
-5.56183e-06
5.7971e-06
-8.29975e-07
3.13873e-06
-1.14004e-05
-3.64298e-06
7.75314e-07
9.06375e-06
1.12179e-05
-4.46697e-07
4.42274e-06
2.41663e-06
4.43544e-07
-3.33076e-06
3.29135e-06
-4.04131e-07
-3.60127e-06
3.60132e-06
4.43488e-07
3.50291e-06
-1.0435e-05
-3.74934e-06
-3.88819e-06
1.12388e-05
-3.46249e-06
1.56574e-07
4.69057e-07
-4.28657e-07
-1.27823e-07
-4.18854e-06
-3.78696e-06
-3.83543e-06
-1.83329e-07
-3.67956e-06
-3.25656e-07
-1.16694e-07
-3.85361e-06
-4.15297e-06
3.59896e-06
4.37309e-07
3.50263e-06
-1.15092e-05
7.43269e-07
-9.20208e-07
5.06794e-07
6.28961e-07
3.72744e-06
-5.74819e-07
-3.78158e-06
3.767e-06
-3.92944e-06
7.91411e-07
-4.29311e-06
1.17876e-05
-3.43144e-06
3.83051e-06
-9.73868e-07
4.3452e-06
-1.15582e-05
9.8819e-08
3.16935e-07
-3.63772e-07
-2.80393e-07
-2.61155e-06
-4.83772e-06
-1.17697e-05
6.66672e-08
-4.11849e-06
3.57098e-06
4.80839e-07
-3.81321e-06
3.77727e-06
1.02611e-07
3.46452e-06
-1.13962e-05
-4.1731e-06
-3.74553e-06
1.16959e-05
-3.61256e-06
-4.57923e-07
6.79544e-07
-8.27579e-07
5.05005e-07
1.27317e-07
3.95164e-06
-4.02788e-06
-5.10775e-08
5.85189e-06
-6.47568e-06
-6.39308e-06
-8.12009e-06
1.69311e-06
-1.21966e-05
-5.64719e-06
-7.96963e-07
-1.20742e-05
7.94969e-06
6.28169e-06
-2.27813e-06
-1.19533e-05
-5.64134e-06
-5.78639e-06
-3.51935e-06
-1.56568e-07
2.09574e-07
-5.34464e-06
-6.51325e-07
-3.46635e-06
-1.10891e-05
-2.28374e-07
4.61782e-06
-1.83556e-06
-2.55389e-06
6.29409e-06
-2.41669e-06
-4.10577e-06
-7.85198e-06
-6.00764e-06
-1.21942e-06
-5.37145e-07
-7.89931e-08
2.76233e-07
-3.91234e-06
4.72313e-06
-1.22989e-05
-1.82163e-06
-2.17909e-06
-2.74095e-06
-8.42636e-07
5.76267e-06
-5.67849e-07
-2.60705e-06
9.95815e-07
-2.73919e-06
-5.696e-07
-3.4834e-06
-5.84886e-06
8.48962e-06
-4.62868e-06
-1.46177e-06
4.4436e-06
-1.18115e-05
-1.97486e-06
-5.85032e-06
-1.5348e-07
4.83166e-06
1.17214e-06
2.47907e-06
2.83808e-06
-1.11675e-05
-2.15618e-07
2.54118e-06
6.68021e-06
-5.51507e-06
-1.38077e-06
-2.39808e-06
1.16195e-05
-7.94679e-07
4.67399e-06
9.52325e-07
3.14016e-06
-1.09681e-06
8.6451e-06
-1.102e-05
1.0921e-05
3.09034e-08
-3.78434e-06
3.27392e-06
4.79518e-07
-3.40943e-06
3.22626e-06
2.14054e-07
3.35675e-06
-1.05505e-05
-3.55588e-06
-3.26326e-06
1.00454e-05
-3.14088e-06
8.68128e-07
-6.52259e-07
8.78775e-07
3.42038e-06
4.21401e-06
2.55464e-06
-3.22183e-07
4.15425e-07
3.32713e-06
5.44448e-06
-1.55267e-06
3.83255e-06
-6.50678e-06
-2.62113e-06
9.7808e-06
6.49596e-06
-1.59648e-06
-4.2656e-06
4.04865e-06
1.81343e-06
-3.82643e-06
-4.87065e-06
-1.2212e-05
-2.96859e-06
1.14511e-05
6.18927e-06
-1.32138e-06
1.9624e-06
5.54828e-06
2.64819e-06
3.86477e-06
-7.8343e-06
2.23392e-06
2.37674e-06
-7.25697e-07
-7.82831e-06
1.0788e-05
-3.78986e-06
5.44097e-06
3.3914e-06
-7.35482e-06
-5.57694e-06
6.38865e-06
3.22834e-06
-4.04005e-06
1.56006e-05
-2.56324e-06
6.72541e-06
1.52639e-05
-9.935e-06
3.09999e-06
1.00633e-05
-7.64461e-06
-6.33045e-06
-3.44002e-06
-6.01539e-07
7.14154e-06
-1.39665e-06
-9.68798e-06
4.00864e-06
-7.96854e-06
1.01325e-05
-1.16112e-05
-2.09986e-06
7.36237e-06
6.34873e-06
5.22062e-06
1.28775e-06