/*--------------------------------*- C++ -*----------------------------------*\
| =========                 |                                                 |
| \\      /  F ield         | OpenFOAM: The Open Source CFD Toolbox           |
|  \\    /   O peration     | Version:  v2012                                 |
|   \\  /    A nd           | Website:  www.openfoam.com                      |
|    \\/     M anipulation  |                                                 |
\*---------------------------------------------------------------------------*/
FoamFile
{
    version     2.0;
    format      ascii;
    class       volVectorField;
    location    "0.1";
    object      U;
}
// * * * * * * * * * * * * * * * * * * * * * * * * * * * * * * * * * * * * * //

dimensions      [0 1 -1 0 0 0 0];


internalField   nonuniform List<vector> 
6576
(
(0.0314368 -1.48263 -0.0570076)
(-0.0838838 -1.52884 0.0706158)
(-0.028326 -1.5645 0.0127954)
(0.0406572 -1.45303 -0.0557266)
(-0.00289546 -1.50508 0.00575762)
(-0.0714099 -1.59107 0.0727499)
(-0.0137096 -1.54326 0.0300626)
(0.0131392 -1.49772 -0.000246835)
(0.0141523 -1.24836 -0.0105229)
(0.014432 -1.46045 -0.00141998)
(-0.0112814 -1.51766 -0.016504)
(-0.0157114 -1.5603 -0.0135987)
(-0.00203277 -1.54915 0.00378732)
(0.00613301 -1.48806 -0.00150109)
(0.0537877 -1.45695 0.0218539)
(0.0101753 -1.82131 -0.0317177)
(0.0559221 -0.864293 0.0325375)
(0.0155499 -1.71584 -0.0162529)
(0.0492774 -1.55934 0.0572871)
(0.0145779 -1.48156 0.0022219)
(0.0420368 -1.37587 0.0444889)
(0.00186686 -1.51791 0.0117122)
(0.00902574 -1.46528 0.00706262)
(-0.00484435 -1.50008 -0.0125315)
(0.00241015 -1.60497 0.00961684)
(0.0477409 -1.52919 0.0499938)
(0.058163 -1.49657 0.0592161)
(-0.00048697 -1.4577 0.0142849)
(-0.00592221 -1.58094 -0.0305489)
(0.00152125 -0.961844 -0.00659352)
(-0.0472694 -1.56983 0.0570267)
(-0.0246242 -1.45377 -0.00863505)
(-0.00870508 -1.55261 -0.000553048)
(0.00853716 -1.4523 0.0283095)
(0.0133635 -1.46321 0.0324043)
(-0.017233 -1.2508 0.0101996)
(0.00453849 -1.63209 0.0121048)
(-0.0112371 -1.5629 0.0106093)
(0.0163745 -1.47901 0.0234491)
(0.00872417 -1.47374 0.0168114)
(0.000762577 -1.32076 0.030556)
(-0.0150774 -1.47485 0.00670339)
(-0.00215351 -1.40658 0.00492055)
(-0.0715187 -0.0403734 -0.0714871)
(0.00211845 0.0323016 -0.0124916)
(-0.0134368 0.0426046 0.0260348)
(0.0467978 0.0179049 -0.0249868)
(-0.115278 -0.122156 -0.129477)
(-0.000456907 -0.00665825 0.00171673)
(0.000156857 -0.0293661 0.0198651)
(-0.0101722 0.0433066 -0.0225363)
(-0.0228446 -0.0195655 -0.0238952)
(-0.00787255 0.305217 -0.0212793)
(0.00672572 0.3022 0.0321443)
(0.00465916 0.296423 0.00499631)
(-0.00544475 0.307445 0.0379999)
(-0.0113373 0.295442 0.00131048)
(-0.0133718 0.287325 -0.0011598)
(0.00391687 0.302794 0.0162343)
(-0.0111373 0.305929 -0.0104947)
(-0.027936 0.300021 0.0236212)
(0.00702687 0.310948 -0.0258999)
(0.00387829 0.293632 0.00784499)
(0.013941 0.293911 -0.00561393)
(0.00282421 0.307024 0.0247034)
(-0.0182581 0.308153 0.0425987)
(0.00153742 0.279939 0.0082482)
(0.00494465 0.282453 -0.00314738)
(0.00383918 0.273476 -0.0274258)
(0.0204934 0.307652 0.00481973)
(-0.00188646 0.297652 0.0190818)
(0.00256203 0.300594 0.00442006)
(-0.0250176 0.302417 0.0355751)
(-0.0279041 -0.187892 0.320706)
(-0.00544809 -0.177164 0.308696)
(0.00293003 -0.240182 0.275568)
(0.00785777 -0.181859 0.304193)
(-0.012709 -0.199513 0.28466)
(0.00930872 -0.249795 0.239956)
(0.00579184 -0.255966 0.283009)
(-0.00040452 -0.115641 0.257816)
(-0.026367 -0.0529293 0.268106)
(0.0172779 -0.0842581 0.275679)
(-0.00107392 -0.0959792 0.285302)
(-0.00745959 -0.111747 0.272542)
(-0.0219339 -0.0456166 0.292672)
(0.0422337 -0.0630938 0.303661)
(-0.138358 -0.377402 0.232934)
(-0.0626408 -0.401076 -0.0295498)
(0.0236093 -0.287398 -0.150764)
(-0.0261065 -0.354991 0.150529)
(-0.036858 -0.0822747 0.176685)
(-0.081854 -0.445567 0.00794282)
(-0.173493 -0.407249 0.212108)
(-0.0450047 -0.00124192 -0.0034744)
(0.0134389 -0.0709383 -0.00216236)
(-0.0554027 -0.0378143 0.0293145)
(0.0194316 0.010716 0.0115171)
(0.0720691 -0.011737 -0.0798993)
(0.0295537 -0.00330966 -0.0510797)
(-0.0562703 -0.0200566 0.000782606)
(-0.00168117 -4.01544e-05 0.00933839)
(-0.00120936 -0.00123456 0.0100666)
(0.000176065 -0.00439138 0.010088)
(-0.000497039 -0.00247035 0.00699956)
(-0.000574154 -0.00189013 0.00575493)
(0.00105616 -0.00337052 0.0069235)
(0.00189151 -0.0025733 0.00556868)
(0.00427072 0.00266684 0.00786906)
(5.81529e-05 0.00190683 0.00208551)
(-0.00516738 -0.000744337 0.00224728)
(-0.00184997 0.015911 0.00440598)
(-0.0127416 0.00966493 0.00364628)
(-0.00788264 -0.00403569 0.00500181)
(-0.0308716 -1.21676 0.045975)
(-0.0135908 -1.34657 -0.00626086)
(-0.0125753 -1.35816 0.0251238)
(0.0172601 -1.31971 -0.0474848)
(0.00879043 -1.39099 -0.0762497)
(0.0163629 -1.41545 -0.00555839)
(-0.00570376 -1.34689 0.0376259)
(-0.110827 -1.56004 0.037097)
(0.0926591 -1.64105 0.110429)
(0.00304819 -1.47987 0.0392594)
(0.025153 -1.57728 0.0218771)
(-0.0723472 -1.51843 -0.0269114)
(0.128815 -1.71868 0.164775)
(-0.1684 -1.37209 0.0463206)
(0.0451963 -0.452395 -0.264439)
(0.0429536 -0.397241 -0.0700917)
(0.0545063 -0.732152 0.021967)
(-0.0543602 -1.34733 0.450393)
(0.119784 -1.10504 0.173851)
(-0.192811 -1.59056 0.382583)
(0.0620265 -1.33929 0.336541)
(0.00255574 0.191435 0.105219)
(-0.0196262 0.227748 0.090341)
(0.00282118 0.227477 0.0775336)
(0.00668698 0.206931 0.110322)
(-0.0126393 0.211499 0.111495)
(-0.0236061 0.221936 0.0972523)
(0.00325436 0.231672 0.0818205)
(0.0190025 0.266881 0.0471541)
(0.000242871 0.213952 0.0799585)
(-0.0243453 0.254063 0.0798039)
(0.0239808 0.243854 0.0646406)
(-0.0147612 0.251625 0.0856251)
(-0.0204432 0.253669 0.0764214)
(0.0286701 0.274709 0.0359257)
(-0.00584955 0.237762 0.034721)
(-0.00196332 0.249974 0.0130834)
(-0.00145236 0.247248 0.0250922)
(-0.0011641 0.251001 0.0480087)
(0.00481934 0.262424 0.0328134)
(3.63833e-05 0.265433 0.039275)
(-0.00677564 0.238618 0.0457483)
(-0.00561048 0.255156 0.0480453)
(-0.00421485 0.256362 0.0441551)
(-0.00262767 0.267348 0.0530555)
(-0.0133967 0.258814 0.041961)
(-0.00588739 0.266204 0.0375561)
(0.006145 0.295188 0.0378776)
(-0.0146014 0.298509 0.0451946)
(0.00566863 0.290084 0.0398194)
(-0.0153191 0.286095 0.0483697)
(0.000614149 0.257617 -0.00616069)
(-0.00917231 0.235616 -0.0126675)
(0.00690854 0.204393 -0.00583713)
(-0.00111366 0.246591 0.0439177)
(0.0034818 0.270365 0.0221845)
(-0.0115205 0.260123 0.0143681)
(0.00995369 0.22087 0.0109573)
(-0.0423982 0.279893 0.00363312)
(0.0327849 0.307407 -0.033916)
(0.00151365 0.252834 0.0330865)
(-0.0362814 0.338503 -0.0131709)
(0.0638314 0.374856 -0.0997028)
(-0.0126469 0.294584 0.0047497)
(0.00467621 0.258531 -0.0126301)
(0.0202103 0.29143 -0.0111056)
(-0.0138109 0.292607 0.0226619)
(0.0225616 0.208844 -0.0772979)
(0.0339087 0.186894 -0.102192)
(-0.00511977 0.176692 -0.125747)
(0.00630352 0.229965 -0.0950594)
(0.0129326 0.216126 -0.106517)
(-0.0248361 0.225808 -0.125866)
(-0.0289072 0.241152 -0.122038)
(-0.00987773 0.235882 -0.0837873)
(-0.00408342 0.238955 -0.108885)
(0.0159186 0.110798 -0.0698064)
(0.00237647 0.181624 -0.0214888)
(-0.0364966 0.156488 -0.0493374)
(0.00563615 0.186184 -0.0384506)
(0.0254133 0.166492 -0.0691236)
(-0.0396929 0.161514 -0.0527886)
(0.0035181 0.135106 -0.0703431)
(-0.0005696 0.0588352 -0.108705)
(0.00300613 0.108723 -0.0925781)
(-0.00264381 0.107073 -0.103181)
(0.0028677 0.0841034 -0.113749)
(0.02389 0.0962344 -0.155993)
(0.0320004 0.151335 -0.121423)
(0.0169965 0.141535 -0.109553)
(0.00550367 0.162444 -0.00930807)
(-0.00431165 0.143257 -0.0186273)
(0.00963043 0.114511 -0.00450578)
(0.0160951 0.105666 -0.0663534)
(-0.0126456 0.117733 -0.0381601)
(-0.00236088 0.0987076 -0.0533877)
(0.0146053 0.105406 -0.0343596)
(0.15018 -0.802162 -0.317176)
(-0.00476024 -0.61771 -0.437457)
(-0.0299572 -0.646601 -0.471542)
(-0.0192869 -0.634658 -0.303654)
(0.137185 -0.773518 -0.0342252)
(0.327142 -0.879707 -0.0261549)
(0.0745446 -0.454824 -0.293204)
(-0.00198346 0.190606 0.00953845)
(-0.0056884 0.159282 -0.016125)
(0.0132126 0.157749 -0.0105996)
(0.00653538 0.183459 -0.00499318)
(-0.00329354 0.18828 0.00920681)
(0.00250112 0.165031 -0.00820883)
(0.0121092 0.16415 -0.00960375)
(0.00396676 0.182549 -0.0138219)
(0.00771668 0.186752 -0.0165522)
(0.000939004 0.168265 -0.0102296)
(0.01326 0.195086 -0.0295756)
(0.0197154 0.186532 -0.0369053)
(0.00201223 0.173881 -0.0473568)
(-0.00181462 0.180978 -0.0238672)
(-0.000756779 0.215101 -0.0265766)
(0.00740046 0.195018 -0.0272426)
(-0.00985565 0.202605 -0.0216553)
(0.00686472 0.20413 -0.0483047)
(0.0266313 0.202028 -0.0472608)
(0.02203 0.204327 -0.0490494)
(0.00281616 0.195501 -0.0459279)
(-0.0114574 0.258804 0.0136244)
(0.00011961 0.240591 -0.00499949)
(-0.00805213 0.232573 0.0106832)
(0.0392612 0.168355 -0.0591961)
(0.000117045 0.219432 -0.0391141)
(0.0216598 0.199807 -0.0234361)
(-0.0201213 0.248603 -0.0049047)
(0.00315705 0.232503 -0.0110106)
(-0.00605291 0.229175 -0.0068903)
(0.00724528 0.230496 0.000256983)
(-0.00840989 0.225284 -0.00336165)
(-0.0141794 0.231082 -0.000388727)
(-0.00503859 0.224615 -0.000912089)
(-0.014727 0.235939 -0.00689529)
(0.00363767 0.229932 -0.00168107)
(0.0101565 0.225406 0.00471523)
(0.000302617 0.241435 -0.00173155)
(-0.00170831 0.248323 0.0239844)
(0.0119051 0.239248 0.0132495)
(-0.00407577 0.271907 0.0151889)
(-0.00209439 0.257685 0.0076184)
(-0.00817225 0.254698 0.0338315)
(0.00119914 0.247715 0.0230001)
(0.00276136 0.17798 0.000895323)
(-0.0102087 0.195252 0.0274007)
(-0.0245698 0.196908 0.03206)
(-0.0101206 0.197878 0.024946)
(0.0153919 0.192119 0.00737314)
(-0.00779673 0.198809 0.0343704)
(-0.0296689 0.192925 0.0413648)
(0.000927722 0.000497609 0.00991534)
(-0.00107626 0.00337382 0.00673813)
(0.00151313 -0.00796557 0.0105843)
(-0.000672998 0.00219838 0.0108243)
(-0.000845328 0.0062657 0.00789331)
(0.00039216 0.0247099 0.0142488)
(0.00119926 -0.00272101 0.0146357)
(-0.00842321 0.00557272 0.0131993)
(-0.00160377 0.0049219 0.0130126)
(0.000239235 -0.0762258 -0.011258)
(-0.00118407 -0.105028 -0.0228097)
(0.0173751 -0.16528 -0.00848341)
(0.0264573 0.0477302 0.0153003)
(0.0603784 0.0438797 0.0257965)
(0.0244013 -0.0391742 0.0784146)
(-0.0283362 -0.000139111 0.00730713)
(0.085445 -0.180819 0.356476)
(0.0592578 -0.0411635 0.363613)
(-0.0142669 -0.393821 -0.0861776)
(0.0437322 -0.00223984 -0.0711509)
(-0.043834 -0.0646048 -0.0332815)
(0.24294 0.337805 0.241142)
(0.142932 0.0888521 0.406922)
(0.521877 0.412463 -0.408156)
(-0.00729404 0.116597 0.192944)
(-0.00944623 -0.0465405 -0.020406)
(0.038512 0.0860315 -0.00655825)
(0.0491184 0.0520927 0.00527995)
(0.244519 0.388615 -0.144834)
(0.0625358 -0.295187 -0.0499729)
(0.0944431 0.35588 -0.126589)
(0.192435 -0.340876 0.172481)
(-0.0937665 0.244373 -0.103436)
(0.0439071 0.276471 -0.0604965)
(0.504418 0.272788 0.209259)
(-0.0165273 0.0638301 -0.123321)
(0.0159516 0.0720006 -0.132839)
(0.00174636 0.0517004 -0.107886)
(0.0473968 0.124287 -0.171205)
(-0.00425896 0.104063 -0.146606)
(-0.00155557 0.0866473 -0.121537)
(0.0219858 0.0991152 -0.138613)
(-0.0882721 -1.96252 -0.0649928)
(0.00255481 -2.01071 -0.0835009)
(0.00235337 -2.07013 -0.144427)
(-0.05184 -2.01648 -0.124437)
(-0.0286613 -2.04806 -0.129248)
(0.0391168 -1.96701 -0.0317805)
(0.0343807 -2.0415 -0.0781031)
(0.0246008 -2.08143 -0.131352)
(0.0374138 -1.96756 -0.191801)
(-0.0010378 0.0509684 -0.19932)
(6.11766e-05 0.00642064 -0.235486)
(-0.0145351 0.0166158 -0.228945)
(0.0306447 0.0447558 -0.197695)
(0.00357732 0.0552237 -0.193887)
(0.0129511 0.0178304 -0.223727)
(-0.00767305 0.0223496 -0.223793)
(-0.0550425 -0.343745 0.406587)
(-0.149909 -0.135785 0.58589)
(-0.0819731 -0.360803 0.347444)
(0.30511 -0.12855 -0.391832)
(0.321085 0.331318 -0.120827)
(0.0719464 -0.447522 0.0149121)
(0.058919 -0.0652811 -0.232101)
(-0.558063 -0.0965877 0.540222)
(-0.0499993 0.251395 0.272228)
(-0.131334 -0.406489 0.394023)
(0.0817344 0.341853 -0.286639)
(0.365271 0.14946 -0.262145)
(-0.299431 0.013853 0.0141285)
(-0.129146 -0.240493 0.0290758)
(-0.130049 -0.233718 -0.0263546)
(-0.504839 0.390945 0.0399385)
(0.330154 -0.0638128 0.0170363)
(-0.066149 -0.0788081 -0.287058)
(-0.087367 0.580762 -0.811919)
(0.238921 -0.630791 0.0980526)
(-0.197994 -0.755817 -0.240012)
(0.169454 -0.522765 -0.106825)
(-0.181614 -0.139053 -0.602666)
(-0.577444 -0.956641 -0.488522)
(-0.273204 -1.02381 -0.141225)
(0.00420799 -0.00293112 -0.00418854)
(-8.74058e-05 0.00407854 0.00621937)
(-0.00136134 0.00024175 -0.00479047)
(-0.000604034 0.00721917 -0.00348214)
(-0.000179902 0.00197333 -0.0130001)
(-0.00294043 -0.00017052 -0.00826607)
(0.000362471 0.00164768 -0.0107434)
(-0.000554049 -8.47894e-05 0.013879)
(-0.00233572 -0.000376805 0.0114985)
(-0.00154341 2.46901e-05 0.0114812)
(-0.0017206 0.00267855 0.00610924)
(-0.00196389 0.00308046 0.00687417)
(-0.00234327 0.00902776 0.011031)
(0.00160297 0.0091115 0.00707339)
(0.00021962 0.00736699 0.0105173)
(-0.000133173 0.000494115 0.0143475)
(-0.0316942 -0.0320617 0.0237518)
(-0.0384639 -0.00999825 0.0323417)
(-0.00539551 -0.0823136 0.0196095)
(0.0266086 -0.031494 -0.0155963)
(0.0322999 -0.0446167 0.00493926)
(0.0271013 -0.0190085 -0.0862243)
(-0.0278245 -0.0547019 -0.0501542)
(0.579266 0.748614 0.338896)
(0.108177 0.693284 0.0471724)
(-0.22199 0.438476 0.00439351)
(-0.148698 -0.173632 0.239779)
(-0.0926389 -0.033141 0.39315)
(-0.191317 0.337443 0.561189)
(0.170824 0.1131 0.482175)
(0.00287495 0.0240851 -0.134255)
(-0.000653489 0.0397104 -0.123793)
(0.0010371 0.0240479 -0.133331)
(-0.0036466 0.0261098 -0.116321)
(-0.00376393 0.034536 -0.128754)
(-0.00631209 0.0272274 -0.117036)
(-0.00148693 0.0332862 -0.126405)
(-0.00210598 0.0267305 -0.128827)
(-0.00394453 0.0186545 -0.122374)
(-0.00445628 -0.0579627 -0.172878)
(0.0623492 -0.0823784 -0.192481)
(-0.00177608 -0.0312039 -0.143633)
(0.00958834 -0.0756601 -0.193325)
(-0.0186139 -0.0483887 -0.184069)
(0.0649007 -0.11855 -0.226326)
(0.00402688 -0.0793173 -0.206815)
(0.0414543 -0.161931 -0.285299)
(-0.00350044 -0.110202 -0.196441)
(-5.22651e-05 -0.160699 -0.244304)
(0.0324798 -0.190574 -0.215034)
(-0.0285567 -0.147863 -0.219382)
(0.0205038 -0.141856 -0.194629)
(-0.011494 -0.133988 -0.202263)
(-0.00723269 -0.146554 -0.209609)
(0.011291 -0.140813 -0.202631)
(0.063867 -1.07511 1.00594)
(0.231801 -1.147 1.40525)
(0.132539 -1.61656 0.936445)
(-0.0693645 -1.75557 0.318575)
(-0.0225654 -1.39218 0.773361)
(0.0116528 -1.54714 1.15012)
(0.0025365 -2.00339 0.763949)
(0.0684208 -1.71932 0.336496)
(0.0595459 -2.08023 0.0183837)
(0.234719 -2.09954 0.141746)
(0.113129 -1.38446 0.371873)
(-0.0995142 -1.37715 0.272977)
(-0.0464398 -1.66406 -0.0194302)
(0.245106 -1.80982 0.215202)
(-0.00119708 0.2258 0.00158659)
(0.00774352 0.221935 0.0153589)
(0.00900502 0.225865 0.00967467)
(-0.00108694 0.232051 0.0168526)
(-0.00482113 0.241142 0.0137984)
(-0.00229345 0.223557 0.0170788)
(-0.0023638 0.230885 0.0133482)
(0.00243338 0.221435 0.00593517)
(-0.0146548 0.224359 0.00691594)
(-0.00270245 0.199375 0.0220323)
(-0.0118388 0.234718 -0.00542776)
(0.00839918 0.226047 0.00529374)
(0.0204694 0.221381 0.0106267)
(0.00039844 0.223795 0.00544772)
(-0.00186032 0.214307 -0.000723347)
(0.0133608 0.222492 0.00396139)
(0.00890779 0.22295 0.00082562)
(-0.00681611 0.230602 0.0034112)
(-0.00331441 0.226151 0.00344184)
(0.00337405 0.22436 0.00710239)
(-0.00275416 0.228413 0.00420125)
(0.0188989 0.20347 0.00210673)
(0.00683742 0.20026 0.00179003)
(-0.00288386 0.199654 -0.00186568)
(0.0129743 0.203898 0.00148217)
(0.00192822 0.201412 0.004504)
(-0.0142661 0.211802 0.017662)
(-0.00212493 0.20995 0.0204141)
(-0.0121185 0.206677 0.0146372)
(-0.0070313 0.207238 0.0117659)
(0.0254039 0.205878 0.0173075)
(0.0111228 0.205537 0.00413655)
(-0.00425133 0.194992 -0.0152507)
(-0.0062215 0.218362 -4.62103e-05)
(0.0027463 0.210471 0.0132326)
(-0.00288698 0.21137 0.00843666)
(0.00714691 0.203833 0.0177756)
(0.00171156 0.11675 0.00307144)
(-0.0045271 0.207597 -0.00260483)
(-0.0202959 0.208315 0.0148964)
(0.00824351 0.204598 -0.0148678)
(0.00132661 0.174282 0.00439893)
(0.00236399 0.228575 -0.00848782)
(-0.0188183 0.221606 0.0197474)
(0.00146178 0.203115 -0.0352148)
(0.0191994 0.228976 -0.0156465)
(-0.0149905 0.220369 0.000204433)
(-0.0130171 0.221286 0.00674779)
(0.00946378 0.22497 -0.020064)
(0.013335 0.237294 -0.0040167)
(-0.0354213 0.232496 0.034931)
(0.00166018 0.244234 0.0247649)
(0.00969724 0.219337 -0.00285478)
(0.001843 0.207742 0.00276975)
(-0.00533885 0.207466 0.0134138)
(0.000709937 0.238504 0.0188021)
(0.0100069 0.217662 -0.013635)
(-0.00436164 0.193779 -0.00405831)
(-0.00577142 0.224645 -0.00241324)
(0.00521822 0.205823 -0.0136989)
(0.000384903 0.236788 -0.0213533)
(-0.008449 0.218246 0.0160331)
(0.00768906 0.174999 0.000894726)
(0.000986717 0.208024 0.00395403)
(-0.0120278 0.225352 0.0174444)
(0.00142821 0.210296 0.00278804)
(-0.0138023 0.124511 -0.00136164)
(0.0138103 0.205798 -0.0246671)
(-0.0113455 0.199862 0.016329)
(0.00508722 0.110707 0.00267075)
(-0.00941644 0.196003 0.00572829)
(0.0115677 0.226313 -0.00841344)
(0.0371967 0.236653 -0.0305801)
(-0.00726634 0.214346 0.0211804)
(0.0356935 0.242196 -0.0303268)
(0.00291518 0.232036 -0.013874)
(-0.0200068 0.216292 0.0132468)
(0.00398348 0.228356 -0.00366622)
(0.000476568 0.224863 0.0303887)
(-0.00685519 0.233579 0.00925957)
(0.00519194 0.226287 0.0208665)
(-0.00234353 0.215731 -0.00161307)
(0.00187893 0.215516 0.00257405)
(-0.00385521 0.223155 -0.0103154)
(0.0147635 0.220651 -0.0116968)
(-0.0128432 0.23965 0.00253693)
(0.00440511 0.228787 0.00045583)
(0.0062264 0.230173 -0.0134126)
(0.00176662 0.227418 -0.01113)
(0.0033518 0.222154 0.00390984)
(0.00709471 0.224577 0.000813496)
(-0.00312508 0.222516 -0.0120592)
(-0.0050851 0.220325 -0.00320981)
(0.000470127 0.21718 0.00321929)
(-0.00185011 0.215453 0.00569292)
(-0.000962196 0.219549 0.00586355)
(0.00403961 0.221857 0.00450761)
(-0.000186794 0.22073 0.00381862)
(0.00681187 0.218502 0.00665142)
(0.00446752 0.219706 0.0155164)
(-0.0118533 0.223528 0.00293998)
(-0.00206622 0.220364 0.0040126)
(-0.000565518 0.22311 0.0170773)
(-0.00601057 0.221937 0.00584025)
(-0.00246797 0.22397 0.00632963)
(0.00252265 0.221382 0.00673613)
(-0.00610019 0.232974 -0.00885932)
(0.00601163 0.223888 0.0132143)
(-0.00233377 0.224349 0.0087722)
(-0.0161057 0.222775 0.0150187)
(-0.00919315 0.22241 0.0224059)
(-0.00204898 0.214562 0.0113934)
(-0.0169616 0.223309 0.015945)
(-0.000977446 0.208017 -0.00014906)
(-0.00223127 0.217956 0.00376319)
(0.00856991 0.217299 0.00353387)
(0.00487351 0.219898 0.000757546)
(0.000166666 0.212661 0.00358364)
(0.00627116 0.219305 -0.00215682)
(0.00196981 0.215787 0.00271767)
(-0.00324924 0.215267 0.00318739)
(0.00208833 0.21268 -0.000175256)
(-0.00765408 0.205985 -0.0141293)
(-0.00120521 0.209718 -0.00919109)
(-0.00271619 0.211674 -0.0232443)
(0.0128746 0.248259 -0.00381392)
(0.00756426 0.229423 -0.00958367)
(0.00824726 0.230781 -0.000702252)
(-0.000977093 0.213533 -0.00285179)
(-0.00116536 0.189895 -0.0142063)
(-0.0130897 0.215496 -0.0166844)
(-0.00085462 0.237501 -0.00528633)
(0.0131714 0.220823 -0.00428471)
(0.00909875 0.190905 -0.00446039)
(-0.00143233 0.216788 -0.00465775)
(0.00609744 0.235604 0.000798772)
(-0.00386812 0.216413 0.00191058)
(-0.00155593 0.224836 -0.00881105)
(-0.00284938 0.229149 -0.0005112)
(0.00550713 0.215036 0.00987702)
(0.00500303 0.224954 0.00175271)
(-0.00567952 0.218874 0.00123438)
(-0.00452591 0.210873 0.00670696)
(-0.000174839 0.217914 0.0100874)
(0.00119467 0.238029 -0.0162001)
(-0.010892 0.241829 -0.0112606)
(0.0017948 0.215614 0.0112451)
(0.00893334 0.219407 0.0114763)
(0.000455502 0.265385 -0.0484996)
(0.00821278 0.285413 -0.0530978)
(0.00114331 0.271106 -0.0474574)
(-0.00355003 0.295924 -0.044337)
(0.017988 0.256629 -0.0523335)
(0.0233422 0.272215 -0.0608398)
(0.040335 0.20873 -0.0787926)
(-0.00235893 0.299608 -0.0130324)
(-0.00027948 0.308127 -0.0240909)
(-0.00327373 0.296702 -0.0517639)
(0.0041251 0.263682 -0.089044)
(-0.0188549 0.260316 -0.0968022)
(-0.0359478 0.252886 -0.0879775)
(-0.0190709 0.253967 -0.070724)
(-0.00986763 0.352877 -0.146659)
(-0.0139823 0.366577 -0.154441)
(-0.00349555 0.407853 -0.187017)
(-0.00166289 0.350699 -0.251367)
(-0.0678298 0.354363 -0.294784)
(-0.0599195 0.349912 -0.274457)
(-0.0193234 0.336254 -0.215055)
(-0.0390124 0.424488 -0.181807)
(0.00200899 0.371529 -0.109791)
(-0.00707778 0.377838 -0.173421)
(0.0366656 0.375988 -0.208293)
(0.00173217 0.359749 -0.201896)
(0.0138824 0.337705 -0.191051)
(-0.00559598 0.398473 -0.217281)
(0.00122551 0.242085 -0.188962)
(-0.00227919 0.270552 -0.219645)
(0.00876601 0.275585 -0.226352)
(0.000605352 0.215001 -0.220844)
(-0.0197146 0.227568 -0.205024)
(-0.00585562 0.231298 -0.22764)
(-0.0217139 0.234098 -0.215431)
(-0.0302923 0.246514 -0.234768)
(-0.0189953 0.228767 -0.242184)
(-0.000865908 0.137733 -0.322238)
(-8.48248e-05 0.150597 -0.323522)
(-0.00281877 0.182337 -0.312048)
(0.0287828 0.150219 -0.290836)
(0.00823397 0.142462 -0.292774)
(0.0160732 0.202581 -0.268205)
(-0.000850853 0.203761 -0.251387)
(0.0129352 0.0729493 -0.0856218)
(-0.00667003 0.0657261 -0.0813507)
(0.00215883 0.0648656 -0.0811467)
(0.0134339 0.0944121 -0.128269)
(-0.00697675 0.0897862 -0.112405)
(-0.00620703 0.0999138 -0.119313)
(0.0296151 0.0992613 -0.131435)
(0.00169057 0.0968361 -0.082048)
(0.000870971 0.0864874 -0.077269)
(-0.000219391 0.0817511 -0.0878877)
(-0.00464086 0.0799001 -0.0843611)
(-0.00669481 0.0713479 -0.0819281)
(-0.00161112 0.0699229 -0.0869977)
(-0.00794672 0.0671249 -0.0828045)
(0.00524101 0.0811436 -0.049621)
(-0.00925774 0.0809565 -0.0425351)
(0.00155911 0.0809256 -0.0450281)
(-0.00505522 0.106709 -0.0758356)
(0.0177697 0.109378 -0.0951233)
(0.0231362 0.106974 -0.0896367)
(-0.0116283 0.115123 -0.0768328)
(0.0081319 0.0776977 -0.0190906)
(-0.00417844 0.0735026 -0.0135045)
(-0.000497159 0.0641216 -0.027921)
(0.00480658 0.0797306 -0.0101059)
(-0.0125934 0.0779575 -0.000975009)
(0.000715725 0.0636636 -0.0164489)
(-0.00682899 0.0666288 -0.0157853)
(-0.00851097 0.0519372 -0.00957317)
(-0.00580607 0.0616189 -0.0148584)
(0.000592025 0.0656617 -0.0235341)
(0.0133536 0.0612055 0.00202962)
(-0.00372614 0.0706679 -0.0018483)
(0.0277275 0.0548423 0.00206316)
(-0.00525121 0.074887 0.0190627)
(0.00970497 0.0665765 0.0127554)
(-0.0235004 0.088745 0.0337701)
(0.00698306 0.0804413 0.00950804)
(0.0220962 0.0822029 -0.00118859)
(0.000765384 0.0893521 0.0179418)
(-0.00246583 0.101416 0.00806895)
(-0.00512797 0.0840859 0.00776405)
(0.0176909 0.0953994 -0.0186156)
(-0.000684938 0.0759343 -0.00088966)
(0.0211544 0.100129 -0.0262629)
(-0.00292294 0.0901571 -0.0207781)
(-0.018405 0.0816965 0.0172946)
(-0.00260574 0.101703 -0.0211772)
(-0.000552289 0.11428 -0.0296788)
(0.0129002 0.0872912 0.0305312)
(0.0131676 0.088508 0.0106422)
(-0.00897754 0.0905569 0.0363421)
(0.00649447 0.102366 0.0299815)
(0.0141402 0.131981 0.0778705)
(0.0319548 0.134081 0.0646686)
(0.00294729 0.0806813 0.0114369)
(-0.0168143 0.0708021 0.000951684)
(-0.0323957 0.120095 -0.00434418)
(0.00141022 0.114184 -0.0113516)
(-0.00392828 0.107832 0.0256521)
(0.00128683 0.095638 -0.00394842)
(0.00778479 0.107508 0.0424024)
(-0.077051 0.00752502 -0.0342711)
(0.00845002 0.0928336 0.189718)
(0.114957 0.116788 -0.060387)
(0.00163476 0.210423 0.0535492)
(-0.000861133 0.150704 -0.0218075)
(0.0200947 0.143503 0.0357898)
(-0.105815 0.305587 -0.131704)
(-0.019389 0.276327 0.0512836)
(-0.0665114 0.486303 -0.083653)
(0.288899 0.421707 -0.149908)
(-0.0365674 0.10421 0.0432009)
(-0.11276 -0.626446 -0.0302215)
(-0.226274 -0.57308 0.0953102)
(0.0771057 -0.457993 0.265411)
(0.0641949 -0.280954 0.0776737)
(-0.13832 -0.503921 0.147602)
(0.162723 0.157586 0.288138)
(-0.0660142 -0.498494 0.52361)
(-0.0407844 0.400927 -0.0839029)
(-0.0711892 0.368287 0.246981)
(0.311444 0.474245 0.304782)
(-0.00242672 0.333242 0.232148)
(-0.0581226 0.253584 -0.10169)
(0.0273567 0.0962863 0.0410663)
(-0.0229623 -0.0659407 0.118764)
(0.42364 0.441896 0.520935)
(-0.282658 0.11255 0.158707)
(0.105989 0.00698124 0.406202)
(-0.0437497 -0.243859 0.400748)
(-0.0598444 0.237006 -0.227446)
(0.177549 -0.374945 -0.194731)
(0.0231343 0.0267697 0.115916)
(0.407759 0.10666 0.721809)
(-0.496508 -0.336928 -0.127319)
(0.082284 0.00267361 0.0606538)
(0.133972 0.889208 0.981502)
(0.13056 0.167194 0.530721)
(-0.170088 -0.431234 0.149567)
(-0.0584344 -0.0165598 -0.00228651)
(-0.0633 -0.0362238 -0.0342535)
(0.0217641 -0.0699902 0.0382625)
(0.0441925 -0.0158308 0.027522)
(0.04586 0.0233844 0.0469591)
(-0.0476209 -0.00926049 -0.108958)
(-0.0234442 -0.0359743 -0.0858026)
(6.49102e-05 0.00950789 -0.0065155)
(-0.00206913 0.0116052 0.00124758)
(-0.00388796 0.00548283 0.00619747)
(-0.00343673 0.00117674 -0.00507576)
(0.00112893 -0.00173546 -0.00482188)
(0.000362826 0.000406568 -0.00285857)
(0.0012047 -0.000146142 -0.00123029)
(0.00113082 -0.000433183 -0.00115835)
(0.00474568 -0.00313005 -0.00687252)
(0.000694481 -0.0041746 -0.00622961)
(0.00744216 -0.00409639 -0.014387)
(0.000158155 0.000840593 -0.00422253)
(-7.47674e-05 0.00291042 -0.00153851)
(0.010285 0.00695574 -0.0052623)
(0.00227097 -0.000508642 -0.00233327)
(-0.00206638 0.00811268 -0.00471193)
(0.00837214 0.0171623 0.00136364)
(0.00752567 -0.00111606 -0.00149998)
(0.0216834 0.0103358 -0.0089077)
(0.00442795 -0.00284203 -0.0108537)
(0.00374752 -8.93603e-05 -0.00496587)
(0.0109072 0.00321983 -0.00781777)
(-0.0020895 0.000212805 0.0052066)
(-0.000488359 -0.00370646 -0.000319942)
(-0.000243172 -0.000279916 0.00692348)
(-0.00128667 -0.00228986 0.0086567)
(-0.00221729 -0.0059551 0.00620206)
(0.000401003 0.000819453 0.0101103)
(0.00346031 -0.00151663 0.0110465)
(0.00704012 9.2391e-05 0.0165075)
(0.0116752 0.00902226 0.021447)
(-0.000203188 0.000494597 -0.00105552)
(-0.000781175 -0.000513684 -0.00234971)
(8.37073e-05 1.63378e-05 -0.00238509)
(0.00016227 0.000291665 -0.00372291)
(0.000850096 0.000320691 -0.00300878)
(0.00136884 -0.000897896 -0.00105019)
(0.00127702 -0.00359365 -0.00576013)
(0.00094197 0.000980153 -0.00040809)
(-1.70523e-05 0.00207374 -0.00334367)
(0.000124216 0.00111694 -0.00142872)
(-0.00081415 0.000182845 0.0102584)
(-0.00103104 0.000526217 0.0101926)
(-0.000142827 0.00200657 0.0108201)
(-0.001114 0.000868799 0.0101425)
(0.000443777 -0.000877059 0.00832254)
(0.00278366 0.000698329 0.0093643)
(-0.000291848 0.00140277 0.00922371)
(-0.00367752 -0.018076 -0.00545358)
(0.0304739 -0.0164213 -0.0211255)
(-0.00314042 -0.0188369 0.0131004)
(-0.00148168 -0.00262537 0.0101997)
(0.00383727 -0.00254664 0.0142231)
(0.0152651 -0.00126377 0.0114132)
(0.00187101 -0.00792958 0.00601805)
(-0.0660922 -0.0484884 0.079568)
(-0.0146563 -0.0666656 -0.0137637)
(-0.028039 -0.0212741 0.015971)
(0.0550814 -0.0403809 -0.0416123)
(0.046311 -0.0289666 -0.0198867)
(0.00612898 -0.0202189 0.0163387)
(-0.0500514 -0.0168384 0.066361)
(-0.0198584 -0.0447694 0.00671274)
(-0.066366 0.0131486 0.0304397)
(-0.0194716 -0.0912119 0.0514399)
(0.0406103 -0.0314498 0.0141925)
(0.0439931 -0.0291815 0.0321879)
(-0.0334033 0.0460293 -0.0182207)
(-0.0264677 -0.0190107 -0.0230945)
(-0.102399 -0.13856 -0.282404)
(-0.159539 0.119969 -0.271722)
(-0.032723 0.23478 -0.11425)
(-0.0545939 -0.31259 -0.262633)
(0.0105989 -0.179301 -0.219316)
(0.0302678 -0.142945 -0.16553)
(0.109454 0.00389863 -0.185318)
(-0.0139754 0.0951674 -0.132657)
(-0.018408 0.00125489 -0.151019)
(-0.0279179 0.0102662 -0.0948926)
(0.0526285 0.0487305 -0.308834)
(0.0359353 -0.0211897 -0.216172)
(0.0462849 0.137323 -0.243229)
(0.0590963 0.206992 -0.310603)
(-0.0311375 -0.0362258 -0.105545)
(-0.013639 -0.0486222 -0.108887)
(-0.00131751 -0.0561569 -0.153784)
(0.0716106 -0.0556536 -0.181836)
(0.010817 -0.10671 -0.205982)
(0.0199215 -0.0956413 -0.264424)
(0.0748305 0.000568964 -0.252971)
(-0.00203763 0.049883 -0.128273)
(0.00834191 0.101933 -0.0995777)
(0.00357694 0.0327071 -0.156506)
(0.00326613 0.277791 -0.0590383)
(0.0432925 0.250507 -0.135689)
(-0.0205864 0.236602 -0.0734013)
(0.0258652 0.221879 -0.15708)
(0.0119711 0.102281 -0.172519)
(-0.0186779 0.107722 -0.0980395)
(-0.0104852 0.0437491 -0.145983)
(0.0200185 0.0789393 -0.151929)
(-0.00356381 0.0177637 -0.132465)
(0.0208415 0.0399669 -0.13502)
(-0.002799 0.0319992 -0.137107)
(0.0134965 0.0483994 -0.12178)
(0.00616611 0.0269952 -0.140259)
(0.0360203 0.0931977 -0.137548)
(0.00226644 0.0547632 -0.144966)
(0.00893879 -0.0534957 -0.0225003)
(-0.00502268 -0.0477902 -0.0236366)
(1.19696e-05 -0.053649 -0.0219055)
(0.0343383 -0.0970304 -0.0405923)
(-0.0216892 -0.0858215 -0.0704348)
(0.0204427 -0.0917099 -0.0438016)
(-0.0213348 -0.093374 -0.079806)
(-0.0219535 0.271963 0.0234148)
(-0.00149162 0.22604 0.0806574)
(0.0110119 0.265309 0.0817382)
(-0.0218737 0.251212 0.0351466)
(0.0398542 0.241923 0.0598822)
(0.0329682 0.277077 0.054853)
(-0.0399549 0.294048 0.00074239)
(-0.00386534 0.320905 0.0647001)
(-0.00645121 0.299604 0.0938093)
(-0.000563189 0.312299 0.0299318)
(-0.000509436 0.320273 0.0565478)
(-0.0140365 0.280116 0.063911)
(-0.00900758 0.283787 0.0277552)
(0.00265152 0.300528 0.0185822)
(0.00610366 0.287485 0.0198745)
(0.00921823 0.27573 0.0137215)
(-0.00267629 0.265248 0.006526)
(-0.0239581 0.250674 0.0392872)
(-0.012522 0.243176 0.0324385)
(0.000660249 0.168697 0.0196367)
(-0.0075988 0.211893 0.0301347)
(-0.0108034 0.205265 0.0307981)
(-0.00458651 0.23369 0.0496426)
(0.0104323 0.20282 0.0403602)
(-0.00324357 0.216894 0.0346695)
(-0.00372215 0.230552 0.038737)
(0.0182665 0.215727 0.0202725)
(-0.0013924 0.214199 0.00835676)
(0.0259476 0.215098 0.0289906)
(-0.0140192 0.243044 0.0296459)
(-0.00460162 0.23375 0.0319509)
(0.0160674 0.21455 0.0222978)
(0.00738777 0.225639 0.0208438)
(-0.0145547 0.191411 -0.00380154)
(0.00167808 0.191756 0.00459006)
(-0.00075806 0.181284 -0.0216724)
(0.0143827 0.201736 0.0257094)
(-0.0228575 0.206497 0.0117949)
(-0.00185226 0.195596 0.00737659)
(0.0266808 0.197127 0.0311432)
(0.0110874 0.109798 0.00377079)
(-0.00395227 0.178933 -0.00094689)
(-0.0186053 0.184398 0.0204848)
(0.00848463 0.182298 -0.018557)
(0.00975035 0.163385 0.0029315)
(0.00312227 0.196423 -0.0107762)
(-0.0126742 0.192895 0.0189365)
(-0.00247986 0.185607 -0.0168514)
(0.0270468 0.206776 0.00861466)
(-0.00354075 0.208675 0.0149587)