/*--------------------------------*- C++ -*----------------------------------*\
| =========                 |                                                 |
| \\      /  F ield         | OpenFOAM: The Open Source CFD Toolbox           |
|  \\    /   O peration     | Version:  v2012                                 |
|   \\  /    A nd           | Website:  www.openfoam.com                      |
|    \\/     M anipulation  |                                                 |
\*---------------------------------------------------------------------------*/
FoamFile
{
    version     2.0;
    format      ascii;
    class       volScalarField;
    location    "0.35";
    object      p;
}
// * * * * * * * * * * * * * * * * * * * * * * * * * * * * * * * * * * * * * //

dimensions      [1 -1 -2 0 0 0 0];


internalField   nonuniform List<scalar> 
24700
(
-393.271
-433.464
-346.054
-408.287
-426.265
-308.137
-358.15
-417.287
-445.243
-454.902
-420.522
-447.009
-438.489
-376.086
-403.02
-427.034
-410.603
-217.19
-247.953
-254.845
-200.765
-183.145
-245.808
-233.631
-166.921
-208.65
-198.89
-204.833
-193.772
-5.68339
-4.53424
-4.78266
-7.32609
-6.31725
-7.77721
-6.53155
-2.42226
-2.10887
-2.24738
-1.81902
-2.20925
-1.92356
-2.33008
1.74581
1.82869
1.72469
1.68739
1.74701
1.79407
1.7284
1.17303
1.17534
1.16459
1.18939
1.17287
1.18654
1.1699
-5.07832
-2.87058
-4.91611
-4.88614
2.16555
-3.8957
-5.40536
-1.48977
-1.44003
-1.63622
-1.49661
-1.40265
-1.50931
-1.58209
-2.43682
-2.4319
-2.50529
-2.39132
-2.43287
-2.46884
-2.40952
-49.0578
-21.3937
-42.3253
-28.7055
-9.12022
15.2104
-52.9659
-2.71824
-2.6496
-2.72363
-2.68943
-2.72421
-2.68665
-2.71209
-2.11335
-2.08269
-2.12015
-2.12446
-2.16554
-2.10373
-2.1409
-1.76947
-1.85902
-1.73647
-1.95919
-1.66469
-1.7557
-1.82327
-4.54303
-3.58063
-3.99227
-3.91176
-4.01482
-3.58079
-4.77325
-12.9117
-34.2041
-12.1783
-4.10562
-10.93
-4.48421
-13.7701
-18.0451
-23.4805
-48.3236
-6.59267
-5.25413
-5.04926
-4.01164
-4.4873
-4.59642
-5.86641
-4.57134
-4.67373
-5.80331
-7.87372
-6.40127
-2.90575
-2.92758
-2.92377
-2.93483
-2.92767
-2.90976
-2.93754
-2.11572
-2.16117
-2.12338
-2.07638
-2.10988
-2.13692
-2.10251
1.72949
1.83113
1.7448
1.74419
1.68392
1.79494
1.72616
4.14881
4.1389
4.09275
4.1058
4.04008
4.11232
4.15158
3.15965
3.07213
2.8366
2.70444
3.77764
3.58202
2.86131
5.8894
1.89642
5.26361
6.93858
6.30674
5.3698
5.98279
-7.63229
-8.93918
-3.949
-7.44162
-7.76031
-7.56642
-6.56771
10.6708
45.8444
10.0695
-6.22756
3.63449
17.2593
12.8149
3.66007
3.49716
3.64869
3.66708
3.76646
3.61521
3.72724
2.58256
2.64065
2.6234
2.71691
2.64875
2.61199
2.66251
-8.67271
22.9825
21.0638
42.0945
20.3116
13.4614
1.68589
0.565526
0.484093
0.568564
0.664799
0.566112
0.527965
0.615109
2.77155
2.77843
2.73598
2.71813
2.73574
2.70914
2.74255
4.07444
4.03797
4.14094
4.19608
4.24315
4.13466
4.14558
4.73875
4.77872
5.08644
4.64936
4.4778
4.52292
4.87087
284.01
249.101
309.471
283.583
328.058
255.809
249.233
72.5751
204.964
77.4613
83.9828
144.36
41.3553
130.252
-85.7717
82.9199
-61.808
142.466
63.9534
-6.02118
-3.90929
-1.10784
-3.81956
-4.61534
-6.17543
-5.30471
-6.57643
-6.51901
-5.97079
-5.07904
-4.7833
-5.59767
-5.65565
-6.76907
-7.14675
-7.25357
-6.71599
-7.06182
-7.33945
-6.94965
-2.25951
-1.829
-2.93731
-2.25722
-1.92269
-1.94609
-2.42452
-1.2128
-2.08453
-1.49374
-0.540854
-1.98995
-1.66386
-0.81716
0.219659
-0.430069
0.85402
0.704839
3.04931
1.81077
0.869569
4.33327
4.23859
4.04365
3.96433
4.00152
4.08607
4.16762
2.77977
2.81494
2.87487
3.3211
2.75964
2.89992
3.03988
0.0783134
-0.576249
-0.162863
-0.558488
-0.580147
-0.410024
-0.203962
-1.79809
-1.71863
-1.70981
-1.66471
-1.69133
-1.71497
-1.74004
-2.03404
-1.99882
-1.98771
-1.9595
-1.98569
-1.98318
-2.018
-1.55777
-1.57434
-1.55312
-1.54643
-1.57716
-1.54935
-1.55789
-1.30011
-1.62425
-1.77234
-1.68044
-1.75075
-1.73829
-1.52792
-5.55017
-4.4134
-5.54778
-4.75608
-5.04131
-4.77801
-5.15705
-4.88632
-3.64762
-4.53774
-4.89141
-4.6889
-4.31721
-4.51191
-3.3249
-3.32864
-3.35487
-3.39022
-3.57951
-3.83464
-3.40757
-2.91798
-2.90061
-3.03303
-2.90239
-2.88821
-2.89986
-2.94946
-2.90836
-2.90874
-2.91437
-2.91053
-2.91523
-2.91531
-2.91697
-2.62679
-2.59788
-2.61645
-2.65945
-2.63897
-2.61992
-2.63957
-2.12062
-2.08304
-2.11407
-2.16591
-2.12497
-2.1041
-2.14111
-1.93011
-1.95363
-1.91748
-1.87924
-1.97694
-1.96649
-1.89669
5.84162
-10.0127
1.96533
-10.5396
8.47797
2.4276
7.87137
3.0291
2.99128
3.06069
3.04856
2.93169
3.16834
3.03957
3.82356
3.91077
3.81668
4.01973
3.98191
3.91726
3.90308
316.126
367.981
347.187
339.791
350.514
371.425
342.24
420.83
371.776
315.295
357.572
365.282
392.554
381.383
358.642
397.884
382.842
367.266
372.335
346.318
387.462
305.513
325.654
293.652
314.247
302.965
299.981
320.836
313.235
381.461
331.543
1.43782
-1.01124
-1.29746
-4.44291
-4.3822
-2.76672
-1.12286
4.75212
4.72569
4.61259
4.72461
4.7257
4.69207
4.69908
4.51641
4.5594
4.52671
4.47246
4.50618
4.53055
4.49801
4.37579
4.42305
4.3841
4.32872
4.36734
4.39852
4.35781
-1.27903
-1.44054
-1.65117
-1.22605
-1.04073
-1.20748
-1.39371
-1.91702
-2.1589
-1.89051
-1.92405
-2.01033
-2.0599
-2.00353
-1.62127
-1.68459
-1.47498
-1.71552
-1.58464
-1.64851
-1.6014
-1.29694
-1.3634
-1.32173
-1.39371
-1.4676
-1.27048
-1.31419
-4.70558
-2.36824
-3.23094
-0.0778123
-2.28097
-3.11249
-5.85812
-0.376578
0.000707945
-3.02674
-1.40657
-1.46537
-2.26002
-2.55312
-2.83997
-2.81416
-2.80617
-2.77657
-2.80024
-2.79753
-2.82136
-2.74864
-2.72364
-2.72326
-2.69275
-2.71889
-2.70668
-2.73206
-0.406393
-0.29358
-0.3881
-0.526711
-0.444407
-0.383457
-0.452466
4.32619
4.20858
4.2675
4.07049
4.13208
4.16231
4.18784
4.63019
4.66101
4.53646
4.26936
4.04305
4.37822
4.37724
2.81013
4.33926
4.21124
4.42338
4.58699
4.13957
4.51477
327.843
324.448
343.59
325.526
309.375
337.467
360.204
292.062
301.306
288.099
262.263
317.342
288.531
282.944
-4.01203
-4.55186
-5.19038
-3.27614
-2.978
-3.92427
-4.82387
-0.542773
-7.68209
-3.19673
-1.88588
-1.37017
-0.992608
-2.44068
5.06976
5.08378
5.05002
4.94692
5.02854
5.06789
5.04522
4.32294
4.36184
4.40564
4.40108
4.1883
4.73819
4.37988
9.87869
2.38084
-10.3324
-2.82198
3.8726
-1.42834
-2.57649
0.0688031
0.0408017
0.164478
0.094746
0.162461
0.0746039
0.126044
-3.22653
-3.11544
-3.43492
-3.65131
-3.60833
-3.38897
-3.44825
-2.92148
-2.75809
-2.26483
-2.98976
-3.27047
-3.19165
-3.29318
10.976
12.984
6.83024
0.477591
2.29102
5.79968
-0.98763
6.2122
2.08518
-2.09298
4.78192
8.54199
2.52402
-3.17499
4.02186
2.32504
-1.42326
-0.191138
0.466315
-0.327559
-0.942514
-0.483992
-1.69548
-0.14704
-0.338475
-0.308172
-4.17666
2.70504
2.1177
-2.73487
-2.70892
-2.73203
-2.756
-2.73396
-2.71898
-2.74212
-2.44361
-2.44949
-2.35154
-2.52195
-2.46231
-2.49937
-2.4235
-1.26963
-1.1763
-1.26944
-1.33918
-1.27884
-1.22233
-1.30269
-1.20911
-1.30226
-1.27654
-1.31942
-1.35198
-1.30395
-1.24981
-0.513614
-0.493839
-0.743944
-0.457364
-0.407764
-0.584833
-0.455322
0.637699
0.61714
0.752272
0.482698
0.463427
0.639562
0.520352
2.95158
2.71396
2.92899
3.13456
2.72777
2.84928
3.17325
3.43963
3.25954
3.45798
2.44983
2.82163
3.30894
2.88592
78.6985
70.174
56.5765
114.546
56.1721
55.3635
50.9405
122.5
41.7656
40.7708
80.2083
51.4608
286.118
232.483
279.442
271.598
294.005
261.618
279.066
30.6054
-38.662
14.7345
-3.05044
-2.06143
-2.8532
26.7991
-2.8442
-1.3745
-1.77019
-0.822479
-2.21288
-1.07364
-2.52137
5.33511
7.24542
3.11039
5.31386
3.27139
6.2736
3.77474
4.99286
4.96237
5.00023
5.00332
5.02944
4.97926
5.00866
4.51767
4.61876
4.95017
4.9629
4.99465
4.90012
4.78774
1.30351
1.15859
1.54961
1.33372
1.13391
1.17527
1.73538
0.682707
0.616492
0.59633
0.532147
0.529576
0.641311
0.658125
-0.492954
-0.441434
-0.434979
-0.605066
-0.510106
-0.467479
-0.559548
34.2025
62.828
25.8788
11.3985
14.6941
17.9054
12.1103
31.0517
15.1758
12.2257
66.0073
26.5
-0.929159
-1.54762
-0.931686
-1.71162
-0.525551
-1.05544
-0.827158
-1.82666
-1.86953
-1.86939
-1.81291
-1.80215
-1.83301
-1.83852
-2.23901
-2.19475
-2.22874
-2.27617
-2.24242
-2.21554
-2.2502
-2.90226
-2.91189
-2.93553
-2.89106
-2.91162
-2.91183
-2.92995
-2.90666
-2.90108
-2.90673
-2.92791
-2.91113
-2.89019
-2.93834
-2.91357
-2.9135
-8.86903
-0.0271453
2.02089
-5.74911
7.18727
-3.07801
-0.126148
-2.35404
-2.27584
-2.35417
-2.36639
-2.39256
-2.32749
-2.37533
-1.83093
-1.80954
-1.76051
-1.87081
-1.89654
-1.85781
-1.81721
-1.35063
-1.32197
-1.23811
-1.29599
-1.39748
-1.26332
-1.37372
-1.18141
-1.11332
-1.30231
-1.41855
-1.3865
-1.28124
-1.29566
-0.722917
-1.07171
-0.902913
-0.419384
-0.787595
-1.02733
-0.595427
1.83664
0.910871
1.74379
1.58369
1.92491
1.32348
2.01812
3.27221
2.74079
2.86505
2.89524
3.06406
2.9544
2.936
11.4163
30.9305
20.3651
26.5201
42.2712
38.1684
27.7082
8.91944
7.58152
3.10111
6.87744
6.04615
4.75769
9.37951
4.3626
-118.026
-37.474
140.016
43.7424
-12.4246
-35.1997
76.2971
20.5615
14.4996
-18.1925
-0.0953224
155.39
3.45482
189.698
11.1883
-1.85829
5.15551
5.15149
5.15078
5.12625
5.08825
5.113
5.10381
9.52876
11.1985
5.22683
3.40265
11.2839
7.9203
9.92925
-1.07947
31.4607
3.15504
2.02123
-0.244721
0.468955
7.91069
1.33578
1.47031
1.81099
1.18025
1.12831
1.13893
1.21425
-0.757656
-1.17493
-1.74787
-0.867392
-0.263434
-0.89674
-1.50741
47.8924
-1.91799
13.993
47.6537
61.2976
87.6506
26.2399
19.2022
71.4295
49.6816
-1.92087
-1.93155
-1.91592
-1.85056
-1.83808
-1.8761
-1.89326
-2.90152
-2.86493
-2.874
-2.93067
-2.90982
-2.91222
-2.89663
-2.86133
-2.89981
-2.93706
-2.91374
-2.92255
-2.91678
-2.90019
-2.88366
-2.81966
-2.87597
-2.8993
-2.93822
-2.97266
-2.93667
-2.91359
-2.91503
-2.9323
-2.91292
-2.91411
-2.85136
-2.89244
-2.98577
-2.93411
-2.2313
-2.19661
-2.24533
-2.26074
-2.2836
-2.22848
-2.25544
-1.80851
-1.96261
-1.88697
-1.94291
-1.8375
-1.97287
-1.82067
0.0270265
-0.673354
-0.318606
-0.825637
-0.600326
-0.734497
-0.335712
7.41824
6.52697
6.51917
-2.3162
-7.88852
28.4079
5.94294
7.19438
6.4135
5.95449
10.0171
7.5766
9.01837
6.18984
4.31711
2.35309
4.50221
3.29755
4.41385
2.93062
4.6328
10.7552
1.78525
13.2545
6.1922
11.0749
-1.43131
4.93274
4.97566
5.08154
5.0444
5.02123
5.01411
5.06189
5.00797
35.744
104.952
243.699
92.7211
57.6279
32.279
98.0455
13.4502
-10.6342
100.947
41.8901
143.723
-27.6389
16.4688
-10.8265
1.21698
1.20877
1.22901
1.24238
1.25152
1.22804
1.23981
1.16266
1.14388
1.16127
1.17203
1.15083
1.15167
1.16658
1.24952
1.28797
1.29779
1.27018
1.31708
1.25638
1.30533
1.01591
0.944406
1.08652
1.10082
1.11759
0.97917
1.05552
0.629335
0.799707
0.701124
0.731647
0.615857
0.700921
0.613021
-0.0774889
0.101774
0.398434
0.770921
0.410762
0.564769
0.139476
1.49709
-5.91634
3.27488
-10.0536
2.66357
-11.9478
-0.654006
-51.8053
-51.3415
-47.1573
-60.7842
-59.4388
-56.9643
-60.9279
-51.2783
-43.5539
-73.4323
-56.2778
-56.3727
-52.4497
-66.135
-78.9028
-61.1732
-65.5521
-64.7874
-54.3336
-62.8099
-71.3161
-1.11735
-0.186967
-0.690707
-1.61198
-1.12214
-0.604551
-1.23071
-3.70546
-3.51233
-3.41185
-3.20024
-3.27014
-3.36927
-3.52718
-1.86607
-1.98104
-1.86447
-1.80887
-1.86089
-1.9194
-1.8261
-2.21572
-2.31924
-1.84585
-2.33365
-2.39535
-2.383
-2.24124
-2.91281
-2.87376
-2.86276
-2.87454
-2.91408
-2.84746
-2.87993
-2.88613
-2.93142
-2.88521
-2.70726
-2.70519
-2.74317
-2.65224
-2.68796
-2.70816
-2.6703
-4.9216
-4.27747
-4.85145
-5.61797
-5.23168
-4.81874
-5.38136
-50.6595
-15.7086
2.0084
5.61354
-2.75158
-7.87465
-10.0818
-4.29879
4.21289
-1.3813
0.436611
-6.7324
1.6356
-8.00449
4.69224
4.70024
4.59534
4.74461
4.62091
4.65508
4.70264
1.36176
1.3674
1.34454
1.3593
1.38047
1.37819
1.35453
1.27708
1.29082
1.2689
1.29355
1.28343
1.29962
1.28084
1.18792
1.18776
1.18233
1.17602
1.19379
1.19143
1.1844
-62.9408
-41.1313
-53.089
-29.6536
-35.1508
-46.1023
-47.2399
1.24795
1.53422
1.67891
1.80119
1.84357
1.67371
1.74845
-1.72551
-1.63684
-1.7099
-1.80858
-1.73254
-1.64411
-1.69212
-2.39247
-2.33848
-2.324
-2.26595
-2.30716
-2.30262
-2.36326
-2.90852
-2.91269
-2.93209
-2.87007
-2.87111
-2.88494
-2.88138
-2.55658
-2.5252
-2.53858
-2.59477
-2.56489
-2.5399
-2.56448
-4.45407
-4.37213
-4.71148
-4.33644
-4.08417
-3.66626
-4.05079
3.05282
-2.23226
2.48266
3.58614
2.43192
-1.36808
-2.63717
9.73542
3.9273
9.69558
-3.79947
0.987055
1.24734
5.09693
4.26871
4.22207
4.35662
4.11942
4.13875
4.22587
4.20244
4.26508
4.19667
4.16454
4.08403
4.09659
4.12257
4.16633
4.11333
4.12771
4.15805
4.09863
4.03762
4.0998
4.15006
4.22681
4.24125
4.22722
4.21256
4.18973
4.22835
4.18392
4.28128
4.31905
4.33116
4.31041
4.32204
4.32131
4.29285
4.49006
4.53697
4.51385
4.46226
4.46426
4.50247
4.48798
5.13958
5.08891
5.12938
5.10161
5.1259
5.11294
5.1025
1071.35
842.746
895.437
1180.8
480.374
1155.03
496.546
652.507
1300.67
1344.78
1493.68
1062.72
279.451
284.576
441.163
121.192
1052.26
1336.59
1.73019
1.75552
2.04303
1.05814
0.960046
1.79612
1.36755
1.22328
1.23961
1.21253
1.21388
1.22439
1.23336
1.21995
1.2071
1.22944
1.21892
1.20244
1.16853
1.21276
1.17772
1.35939
1.33711
1.38798
1.37102
1.33203
1.33023
1.38231
2.09014
2.26328
2.14226
2.10476
2.07976
2.19002
2.0893
142.894
81.0256
88.3929
132.602
98.6147
152.238
153.549
126.258
162.749
130.781
-0.504027
-0.632079
-0.469086
-0.381453
-0.380399
-0.500152
-0.436433
6.66784
11.0141
-6.96446
1.0396
-7.73435
5.50036
10.2863
-0.987759
-1.07256
-1.12405
-1.10665
-1.10224
-1.01522
-1.00789
-1.27918
-1.16787
-1.30281
-1.3354
-1.28053
-1.22557
-1.30792
-1.95623
-2.00829
-2.0262
-2.07265
-2.04589
-2.0388
-1.9981
-2.19616
-2.23028
-2.24519
-2.28367
-2.26005
-2.25456
-2.22772
-2.86046
-2.84682
-2.88168
-2.85183
-2.88038
-2.92658
-2.84121
-2.87034
-2.86412
-2.75436
-2.81239
-2.82849
-2.88801
-2.82866
-2.84059
-2.78181
-2.91383
-2.87248
-2.85144
-2.83427
-2.79449
-2.76881
-2.69926
-2.78481
-2.80086
-2.88789
-2.82845
-2.76999
-2.81602
-1.97162
-2.32617
-2.46421
-3.19859
-2.84398
-2.89165
-2.43579
-7.51218
-7.4774
-7.33623
-7.15092
-7.08648
-7.15031
-7.31257
-4.72854
-4.75285
-6.86185
-3.07667
-2.43636
-11.9524
-7.64181
-9.55408
-8.36316
10.4344
-5.65492
-5.10172
1.86502
3.14748
2.76397
2.30621
2.37107
3.09324
2.26663
6.06228
6.5379
0.129001
6.36132
-0.754328
11.6855
5.81007
4.52675
4.55818
4.51651
4.50603
4.47117
4.52993
4.49726
4.95949
4.51369
4.35337
4.84982
4.9655
4.87386
4.37976
-140.003
-36.3183
-20.459
43.1624
2.33319
35.4717
1.01935
0.977349
0.964849
0.860095
0.991814
0.911675
1.01743
3.17552
1.90459
3.43513
2.56991
2.59912
3.06721
2.54023
210.166
243.829
281.116
205.656
220.796
201.185
245.276
141.74
164.014
189.778
1.42406
1.37224
1.3372
1.47456
1.45518
1.39017
1.39609
-1.58449
-1.39808
-1.26049
-1.00923
-1.19251
-1.27701
-1.39175
-2.072
-1.62931
-1.84193
-1.14081
-1.89271
-1.3676
-2.57449
16.8818
8.69855
38.3967
-3.93276
13.8651
6.37421
4.97527
-0.709498
-0.611025
-0.681724
-0.831316
-0.763638
-0.702894
-0.758867
-1.26774
-1.33723
-1.27915
-1.17406
-1.25434
-1.29296
-1.22094
-1.04532
-0.963315
-1.02201
-1.07385
-1.11058
-1.01283
-1.06762
-1.82988
-1.89166
-1.87165
-1.76244
-1.80926
-1.85702
-1.81686
-1.91496
-1.94325
-1.97977
-2.02032
-2.01847
-1.98003
-1.96321
-2.6307
-2.66068
-2.58287
-2.59299
-2.63774
-2.63783
-2.57227
-2.42566
-2.6865
-2.7205
-2.58892
-2.50951
-2.55206
-2.7067
-4.89598
-4.61881
-4.54929
-3.93042
-4.48833
-4.29702
-4.77008
3.57192
-1.30915
8.76317
-1.91491
3.43774
0.93528
-8.48866
-5.82
1.64677
-11.2055
-2.35113
1.90803
-9.47323
-2.51219
-5.50928
-10.4432
1.88041
-7.5044
-7.08598
-0.992183
-3.15507
-2.6878
-2.26101
-4.96374
0.295536
-0.432856
0.315703
-1.91055
0.297632
-1.00302
-1.10257
-0.611161
-0.485064
-0.804255
0.078899
-0.204217
-0.106289
-0.404171
1.70172
1.21286
1.56701
2.00528
1.93571
1.44514
1.84787
3.13473
3.1448
3.06791
2.89214
3.0126
3.0031
2.81886
3.2513
3.24071
3.17659
3.32134
3.38826
3.28456
3.28126
2.784
2.86374
2.77325
2.59197
2.53908
2.74142
2.69327
4.37373
4.41346
4.27653
3.97013
4.55
4.93623
4.45258
18.957
-13.8973
16.2344
-1.0128
-6.17819
0.444811
2.3452
1.5843
55.2766
21.5257
51.5308
1.65777
31.9922
42.6176
110.409
152.815
86.8422
38.9544
29.4808
50.6904
-98.6388
8.14164
18.7174
23.1215
34.3122
46.0035
-99.9786
23.9414
49.6195
12.2392
12.5735
91.1359
62.7803
10.0135
2.13396
2.36374
-0.744251
-0.0420757
-0.436758
0.623593
-0.714256
-0.346384
-0.711612
-1.29399
-0.707646
-0.487848
-1.06942
21.096
1.19631
2.91834
-5.27383
28.1302
14.639
4.73843
50.6163
25.2023
34.6398
41.7902
-13.8206
56.9709
31.0718
-10.7992
-10.1354
-11.7772
-13.1413
-12.2152
-11.7792
-11.3793
3.18963
3.71874
2.00826
3.65607
3.07259
5.04937
2.8942
1.03089
1.04062
1.08149
1.11634
1.11877
1.08415
1.08218
0.0580134
-0.125898
0.0751587
0.515163
-0.0281866
0.39439
0.254034
0.263652
0.0428247
-0.0244963
-0.0547441
0.0562693
0.0656787
0.1319
1.53032
0.886666
2.50447
2.43128
8.63864
0.340206
0.123957
-0.40998
-0.53764
-0.461083
-0.289448
-0.372327
-0.444964
-0.389349
-2.53531
-2.4623
-2.53872
-2.67683
-2.5738
-2.54466
-2.61395
-3.72691
-4.45048
-3.98391
-3.97573
-3.67442
-4.30592
-3.56934
-3.90523
-2.82667
-4.68229
1.20382
-6.33179
2.25365
2.39657
2.33837
2.38201
2.2821
2.40877
2.27557
2.74653
2.75599
2.7998
2.69646
2.72562
2.71726
2.72132
1.37705
1.35441
1.38425
1.39744
1.38269
1.37245
1.39644
1.46054
1.4658
1.4513
1.43811
1.41787
1.44649
1.44183
90.7051
61.046
-40.7287
193.172
327.665
196.465
294.078
451.623
360.131
293.734
340.19
342.615
300.299
348.749
399.783
518.584
302.913
268.777
297.282
429.131
493.136
426.521
401.867
30.9618
19.7178
63.6376
9.2964
98.7682
144.98
61.9291
-30.39
19.4149
68.8292
179.47
130.266
5.87212
59.3593
98.2979
14.6208
-64.306
92.0898
184.635
264.348
167.35
177.307
31.7851
1762.06
1994.2
1303.05
1740.99
1126.32
1429.82
1504.11
1308.53
1967.55
1571.17
2185.54
1703.23
837.906
669.335
1518.25
921.737
824.405
660.147
1421.21
1759.92
1155.43
1228.94
1019.78
1015.18
-9.4452
-10.5046
-10.2895
-10.6347
-10.2146
-10.5961
-10.0697
-7.61398
-3.90836
-8.26867
-8.40645
-8.46139
-7.38347
-7.98391
1.25038
1.3077
1.27555
1.15372
1.27173
1.19247
1.36946
1.39024
1.36969
1.37087
1.33659
1.38759
1.35583
1.3955
1.15826
1.2099
1.19192
1.18337
1.21343
1.22192
1.18593
1.20395
1.22028
1.2058
1.19877
1.191
1.21172
1.20017
0.513698
0.462359
0.568602
0.610987
0.792441
0.600589
0.646566
0.106673
0.180411
0.200199
0.315608
0.230798
0.25508
0.177232
-2.74288
-2.53396
-2.57765
-2.97152
-3.40568
-3.16929
-2.76666
-6.21431
-8.47554
-8.26754
-9.8411
-15.3138
-7.94896
-8.63563
-26.6888
-13.1303
-6.11708
-11.105
-14.8646
-1.69904
-2.8787
0.496055
-2.32716
1.52012
-2.88134
-3.19136
0.053801
2.47299
2.39582
2.41212
2.33104
2.38233
2.43529
2.37643
3.07671
3.07834
3.13893
3.01716
3.05878
3.04265
3.09652
3.71024
9.05445
11.786
-8.53891
8.4001
6.96726
0.963684
1.28993
1.27944
1.26338
1.28366
1.29325
1.29994
1.27705
1.3038
1.31367
1.29571
1.28685
1.27167
1.29764
1.28733
1.36002
1.37992
1.36134
1.34197
1.36672
1.37769
1.35245
82.0697
-69.3298
63.7973
150.54
55.6967
38.5017
112.43
84.51
146.469
71.7963
50.6538
-56.9716
-143.484
-0.969781
-170.926
47.9341
-4.17198
-10.3172
-10.5861
-10.295
-10.4457
-10.2282
-10.7709
-10.1815
-12.1809
-12.738
-13.3767
-11.7395
-12.0839
-12.0628
-12.7436
15.264
43.1201
59.5873
26.1928
32.3877
104.626
55.0992
53.9976
62.3796
24.6855
213.451
-116.081
-16.3447
89.1599
-2.8127
167.476
-135.496
24.986
25.7318
-34.4567
-84.663
487.936
196.755
387.525
-6.07894
-9.4807
-7.71887
4.17266
-5.68219
-7.36961
-4.11278
165.843
-115.303
105.489
0.771497
-105.424
32.3579
5.14738
-99.2927
26.0576
63.5637
164.181
28.2377
30.7895
126.654
68.0673
18.3264
0.6001
34.9302
25.5177
51.8285
-39.6251
-4.31934
-5.23718
-4.89991
-3.9046
-4.16277
-4.97273
-4.50625
-0.837877
-0.815355
-1.54657
-0.763895
-0.421017
-0.59866
-1.14421
1.22372
1.23685
1.23292
1.22372
1.24272
1.24302
1.22411
1.18582
1.17049
1.16747
1.16951
1.16126
1.18213
1.1534
1.15737
1.15698
1.16137
1.15455
1.18328
1.15589
1.17206
2.63439
2.63964
2.70478
2.58125
2.62432
2.60532
2.65975
1.25646
1.23457
1.15633
1.27297
1.36207
1.30432
1.21326
-1.6319
-1.66121
-1.6018
-1.92554
-2.00804
-1.93127
-1.98665
-5.09351
-4.65767
-4.78304
-4.93996
-4.90105
-5.22885
-5.36336
-6.61509
-6.83786
-6.87011
-6.80355
-7.15988
-6.67824
-6.99684
-3.13475
-3.00181
-2.78772
-3.39261
-3.67943
-3.32071
-3.14725
-6.31238
-5.10518
-6.3311
-6.93898
-6.30075
-5.67709
-6.7061
-6.83803
-6.67359
-5.57663
-14.8878
-78.5362
-44.4434
-30.0281
-31.1241
-34.5785
-81.5195
-67.982
-31.8879
-24.9208
-18.6152
-34.1718
-27.6617
-23.963
-22.7409
-20.7212
-17.3626
-12.0396
-24.7361
-87.5669
-9.97209
-36.2683
-141.55
-132.129
-123.415
-97.6189
-126.382
-142.082
-170.281
-119.421
-115.449
-2.9043
-2.63358
-2.92957
-2.33754
-3.54018
-2.30884
-3.16179
-3.16682
-3.04044
-2.98237
-2.92069
-2.82613
-162.071
-135.624
-145.848
-475.647
-495.914
-475.99
-471.704
-456.791
-458.456
-465.578
-477.162
-493.075
-488.213
-502.884
-480.716
-476.699
-465.506
-478.102
-488.004
-464.061
-478.876
-467.776
-497.004
-476.174
-476.37
-444.455
-467.734
-474.362
-457.39
-483.316
-506.889
-493.678
-497.914
-487.011
-481.34
-492.688
-483.298
-473.469
-487.044
-481.456
-474.051
118.958
-15.69
11.378
-2.2784
-17.2004
-20.1833
-35.8577
-58.3753
-55.2802
-81.1033
-135.923
-16.9527
-54.2321
-155.728
-177.345
-57.9376
2441.44
2818.49
2630.78
2615.99
2621.77
2704.53
2820.73
2784.87
2658.85
2590.57
2618.82
2677.24
2625.68
2752.11
2259.13
-73.9357
-42.3157
-50.701
-178.888
-15.2251
-73.8559
0.844084
0.818753
0.805372
3.16747
3.27171
3.11599
3.30469
3.39084
3.61525
3.2041
0.822033
0.790018
0.804181
-1.32008
-1.29163
-1.39697
3.09365
3.0284
3.21753
-1.64756
-1.75048
-1.52864
0.835618
0.853084
0.807351
0.832598
-4.5988
-4.52521
-4.44135
-1.37144
-1.34221
-1.26607
-1.2373
1.59321
1.56722
1.54174
1.60082
2.93163
2.9211
3.07899
3.01635
1.28234
1.27575
1.30789
1.29177
1.32054
1.30466
1.31577
1.31015
1.30493
1.3082
3.08647
3.12455
3.15479
3.21759
1.54133
1.51227
1.71299
1.64819
1.68412
1.65492
1.63677
1.64231
1.65718
1.55504
1.28192
1.27606
1.32152
1.31248
1.31015
1.30316
3.07311
3.38916
3.17586
2.95812
3.23548
2.97577
2.90996
3.20063
-1.33998
-1.2679
-1.34414
-1.26481
46.1082
31.6001
52.8502
39.4049
-2.57651
-2.5552
-2.52788
-1.5063
-1.55318
-1.25941
-1.6466
9.06949
7.95663
6.36787
6.85771
4.69827
4.84635
4.33267
4.49184
-4.13847
-3.75864
-4.68821
-12.0569
-11.7578
1.91184
2.02882
1.93006
1.88001
11.279
2.74518
4.35132
22.367
-3.41804
-3.12876
-2.93247
-3.0378
-2.98462
-3.01467
3346.6
2863.9
2655.16
2324.21
-10.227
-4.04781
-5.36157
-4.38598
0.619203
0.479231
1.15736
1.19656
13.4043
8.51527
13.1501
12.8794
-2.42654
-2.45764
-2.39488
-2.41846
-0.748667
-0.663904
1.62441
1.66315
1.54019
1.49061
4.74869
4.61698
4.68373
4.68261
0.733598
0.763061
0.984748
0.979089
6.85344
7.09357
-93.4899
-86.1242
-2.68616
-2.64901
-2.6918
-2.62458
3.48085
4.00395
2.76959
3.22657
3.28123
3.03617
2.55264
2.63839
-0.464373
-0.396521
-2.69644
-2.71669
-2.68376
-2.71681
2.16855
2.04465
2.2306
2.00125
-2.56401
-2.63357
-6.62201
-6.74001
1.40248
1.39013
73.4201
30.0207
79.0384
24.4713
2056.13
1938.65
2603.17
-14.692
3.25885
-3.22786
5.96906
0.871176
1.42325
37.9215
36.0311
-15.1753
-37.8436
175.995
30.8843
16.8342
2.78301
7.86113
37.2716
52.8012
-2.3796
-2.41789
21.6264
11.0442
1.07077
3.29972
-1.26394
-1.9108
-6.14925
-5.78944
-6.65148
-2.82775
-2.86892
-2.82208
-2.79865
-4.54496
1.14003
1.15007
1.1155
1.13706
1.11264
1.08422
1.1412
1.11429
4.33478
7.16276
3.52661
5.51029
0.920817
0.904472
0.940365
0.907425
4.28079
4.23172
5.83152
6.54708
4.2526
4.30685
47.4864
15.9277
-0.397118
-0.474914
-15.1993
-5.56652
4.31927
4.34818
4.29982
4.36087
-1.31095
-13.0774
-2.42745
-5.17645
38.2631
-48.2328
0.970321
1.00649
0.91263
0.971346
5.71849
5.87025
6.28842
6.31436
1.46606
1.44706
-1.83218
-1.86282
-1.85525
-1.89623
-1.17681
-1.17586
-172.421
-170.626
-132.242
-135.577
-2.8652
-2.95942
-2.69424
-2.86662
87.1486
52.7125
260.352
84.0749
-6.87543
-3.36542
-7.24824
-7.1835
21.4203
0.450518
4.33683
4.30364
3.00623
3.13961
3.21675
3.3066
-6.46163
-5.54558
-6.38438
-6.21668
-2.15553
-2.22264
-2.04564
-2.12081
-0.788768
-1.14299
-2.39456
-1.24139
-2.89874
-2.91726
-5.55425
-4.92742
-385.363
3.26257
1.95401
19.4813
6.64189
-2.52209
-3.88205
-4.09608
-4.7428
-7.07554
-6.88705
3.70281
3.7545
-1.40322
-1.42351
2.96531
2.94848
2.86162
2.87079
0.728321
0.685528
1.27184
1.20733
-1.99879
-3.60674
2335.04
2401.46
2807.4
-1.48919
-1.65902
-1.59292
-1.65804
1.17045
0.397109
1.57764
-0.00298866
-2.20759
-2.20061
-2.15954
-2.08468
2.77858
2.74783
-4.62862
-4.68687
-4.6195
-5.06019
3.96569
4.02457
3.93176
4.01152
-0.498895
-0.442209
0.666498
0.514567
-1.29626
-1.32971
-1.40861
-1.52222
1.66754
1.62385
-0.1785
-0.130487
-1.93235
-2.00606
-1.9782
-2.02248
-2.00253
-1.97713
10.971
7.11286
8.67614
-1.0752
-2.72196
-3.1029
-2.18435
-1.61584
-2.67096
-2.66217
-2.7093
-2.71245
-2.20297
-2.21108
-2.09934
-2.16503
2.74171
2.87219
2.8156
2.65292
0.960527
0.93178
1.00347
0.960319
0.931169
0.958257
0.957595
0.998782
1.3083
1.28498
1.35248
1.33979
1.28812
1.31065
1.34176
1.35371
-3.08585
3.13807
3.18046
7.94564
22.4004
28.8786
48.9838
-1.62408
-1.59298
-1.54655
-1.6293
9.22675
12.3052
-1.14242
9.00262
-10.8708
-10.6168
-12.7445
-11.9204
27.6766
18.5686
40.3478
27.6249
-5.86336
-5.97978
-5.28218
-5.13916
-1.65392
-1.71205
3.81269
3.83389
12.8605
25.1927
1.77831
3.12639
2.04329
3.64093
-1.10253
-1.35144
-0.803468
-0.863508
-0.804436
-4.68428
1.48796
4.28697
-73.5522
-78.2172
-4.66332
-5.55193
-2.05503
-2.11972
-7.1036
0.119498
-70.7123
-53.3082
-1.87361
-1.87551
4.96036
-9.07036
3.46065
3.49596
3.38088
3.36764
-65.6907
-53.6722
3.5023
3.39213
3.3592
3.33638
2.27457
2.31793
-2.77764
-2.80696
10.5937
6.38956
-12.7703
-0.390164
-0.568052
-4.15987
-4.90859
91.3345
110.562
52.0141
46.655
-0.999613
-1.32318
2.08835
2.16147
2.04439
2.14655
0.864284
0.872678
1.02623
1.00533
-1.9079
-1.86696
0.894145
0.900088
0.991746
1.04541
-2.94012
-2.94765
-2.92669
-2.92448
-2.2046
-1.94881
-1.59629
-1.79905
4.43502
4.472
2.40259
2.35562
2.43849
2.36214
-2.25759
-2.41181
3.10334
0.649591
16.4327
9.12003
1.16972
1.16391
4.7133
4.6614
4.82715
4.86486
4.65092
4.73497
4.93725
4.87705
0.785555
0.723192
-2.74913
-2.47485
-0.775091
0.0287625
0.0954458
1.0803
0.0132521
-0.0324781
0.0284665
-0.0415856
1.15436
1.16266
-2.46363
-2.46007
-6.26468
-6.6007
-7.2712
-7.13446
0.972378
1.00626
-11.176
-15.59
-2.99721
7.53878
4.04684
4.02924
3.92811
3.95245
2.70921
2.7262
99.2657
86.8396
59.5984
48.0214
-0.562121
-0.476249
-0.623413
-0.510274
1.72214
1.75286
1.64121
1.64953
-4.82195
-5.08101
-2.1134
-2.15115
-15.2363
-14.8018
-14.2866
-14.1923
-2.11219
-2.15031
45.957
30.5755
62.357
48.5009
2.72831
2.71174
1.60844
1.60406
11.078
0.718986
-9.98175
-7.43578
-1.80012
-1.8507
-46.7205
-40.7686
-70.8244
-68.0398
-1.10508
35.8487
13.1325
-3.7563
-50.6435
-52.2078
-0.322981
-0.452059
-0.895407
-0.620553
247.147
265.037
205.927
244.864
118.279
138.882
109.242
122.594
2.66563
2.91575
-2.27151
-2.23192
-2.34913
-0.0389596
-4.73405
-4.38736
-5.06656
-4.19399
-3.67284
-4.62538
-3.75596
-4.59135
-2.27257
-2.23316
-1.92359
-1.93406
1.43751
1.44634
-5.32482
-5.32861
-7.32314
1.07753
1.06267
4.25314
4.21132
4.29373
4.23661
1.32211
1.30769
4.14503
4.14272
4.09486
4.09125
-1.94194
-0.471335
-1.33676
-0.679982
-406.988
-394.992
1.17027
1.17348
2.99545
2.97521
2.64316
2.63783
2.80324
2.84399
0.529446
0.603031
-2.14335
-2.18896
3.93653
3.78865
1.87769
1.11399
-0.547026
-0.518415
-0.441417
-0.500151
-0.378102
-0.315239
1.49475
1.31682
1.07399
1.07524
-4.4892
-4.01567
-4.58256
-4.06629
-335.453
-339.475
8.80911
5.31748
27.4382
13.2619
-2.13861
-2.18594
-1.37465
-1.45611
1.49727
1.52692
1.5585
1.58839
3.20692
3.26175
4.58257
4.56504
4.51826
4.44626
-1.10928
-1.13394
17.1049
4.4833
4.69292
8.65375
-4.65176
-4.99548
0.557774
0.521881
0.463954
0.486568
-1.50895
-1.61059
-2.38576
-2.36312
-2.38936
-2.34998
-0.976304
-1.17159
-1.98339
-1.90247
-379.778
-4.0545
-4.54651
-5.84701
1.49908
1.48329
2.04715
2.23436
-51.8981
-70.0583
-3.41138
-3.42465
-1.07706
-1.08939
-1.20379
-3.09338
-3.1424
-2.10324
-2.2016
-2.24416
-2.21463
1.26036
1.25611
10.1186
7.98956
27.9378
29.7392
-7.3915
-91.9161
-1.7597
-1.82421
1.58232
2.04872
0.795963
0.663494
2.53564
2.55078
-3.51937
-3.56138
-3.18296
-3.38358
2.4962
2.49864
3.74388
3.83006
0.381593
0.485061
3.88572
3.87529
-0.7214
-0.370598
-0.472266
-0.427586
0.290037
2.88293
-1.2232
-1.91757
0.155866
1.36354
1.09331
1.11357
-2.78851
-3.0186
-1.61589
-2.49245
0.318777
1.15548
2.49593
2.49943
-3.63858
-4.53552
15.6349
38.2746
1.31393
1.3008
2.37745
1.88827
1.34912
1.31885
171.093
159.879
230.12
200.278
1.48725
1.47514
143.852
166.038
187.4
195.029
3.88029
3.9174
0.713898
0.692207
-1.68395
-1.68214
0.890708
2.16855
-2.34636
-2.33902
-2.73494
-2.71585
-2.39646
-2.36679
-3.92686
-4.11528
-4.43413
-4.34664
1.17051
1.16953
1.15106
1.15865
5.20185
5.3281
-1.80484
-1.75229
5.19273
5.32256
70.4907
71.5908
78.9717
68.7616
3.6724
3.68536
-0.116831
-0.0674939
-3.73438
-3.53437
-3.02446
-3.01298
1.32131
1.28955
-0.813703
4.706
-9.99408
-26.3819
-7.46864
-6.694
4.74546
4.28928
4.61462
4.30068
0.884235
0.7997
-2.11836
-2.09782
3.67154
3.68541
4.06757
18.1435
1.14839
1.15875
-1.80412
-1.05621
-1.83823
-1.86702
-3.35996
-3.4081
-2.71864
-3.18099
4.88779
4.86553
-1.30394
-1.23117
392.64
230.571
208.716
132.707
10.5774
13.6608
-13.9833
-14.3512
-1.55588
-2.474
4.87486
4.87114
-0.751522
-0.797414
-6.03833
-6.32068
-0.342972
-0.630815
-1.95612
-1.95265
4.63897
4.6209
1.58292
2.2784
1.83148
2.16321
4.68896
4.59073
-0.818312
-1.11012
1.23801
1.22788
1.06964
1.04099
-9.65353
-9.99589
-60.7446
-67.5031
11.6311
6.45002
-3.40249
-0.150857
-1.76279
-1.76561
-0.425092
-0.622235
-1.90269
-1.89335
0.532491
0.62603
1.07997
1.08808
-0.686846
-0.670479
100.377
69.9908
-2.86491
-6.13812
-43.1651
-49.9348
-56.4457
-88.1404
-87.4112
1.78238
2.03607
-2.86802
-2.87926
-2.88121
-2.86876
-2.87063
-2.92969
0.604239
0.706404
1.10186
1.12242
4.62053
6.75964
1.09953
1.1244
-4.49295
-4.57928
3.68616
1.72679
-2.79289
-2.90863
1.08789
1.09325
1.16333
1.17172
7.59222
-5.0452
4.98464
5.00978
7.28433
-4.94876
-2.02505
-2.07237
-1.92726
-1.8163
4.14277
2.69626
-2.83308
-2.81969
-1.19307
-1.13779
-1.11858
-2.1412
-2.11216
-2.12902
-2.10071
-2.74196
-2.72667
-2.27181
-1.97985
-2.81318
-2.90695
-1.77506
-1.73725
-1.7379
-1.77606
3.90877
3.90077
7.0423
18.6929
3.90889