/*--------------------------------*- C++ -*----------------------------------*\
| =========                 |                                                 |
| \\      /  F ield         | OpenFOAM: The Open Source CFD Toolbox           |
|  \\    /   O peration     | Version:  v2012                                 |
|   \\  /    A nd           | Website:  www.openfoam.com                      |
|    \\/     M anipulation  |                                                 |
\*---------------------------------------------------------------------------*/
FoamFile
{
    version     2.0;
    format      ascii;
    class       volScalarField;
    location    "0.35";
    object      p_rgh;
}
// * * * * * * * * * * * * * * * * * * * * * * * * * * * * * * * * * * * * * //

dimensions      [1 -1 -2 0 0 0 0];


internalField   nonuniform List<scalar> 
24700
(
2825.33
2804.71
2870.58
2790.74
2792.33
2879.14
2848.7
2831.98
2774.66
2774.79
2798.8
2801.68
2790.62
2822.14
2814.79
2810.35
2807.2
2855.22
2844.02
2807.81
2891.2
2889.26
2814.83
2807.44
2913.3
2852.01
2860.48
2825.18
2855.83
-1.88955
-0.752415
0.135168
-3.55605
-2.33769
-0.481671
1.01359
0.590326
1.15144
0.790232
1.47979
1.61559
1.46545
0.794345
3.35358
3.45587
3.46808
3.32842
3.35785
3.4222
3.44553
1.91343
1.9091
1.91116
1.94603
1.9102
1.96604
1.93904
3.57142
4.0241
1.48091
13.3459
19.2703
3.13584
5.24095
0.706744
0.77356
0.765839
0.700841
0.777074
0.672824
0.8339
0.109387
0.109155
0.0596465
0.126914
0.103683
0.0812009
0.122417
1381.34
191.505
2690.59
1376.68
145.673
2124.61
2594.56
0.0417224
0.0899143
0.0341009
0.0926476
0.0395906
0.0659809
0.0588408
0.274938
0.287211
0.271393
0.272111
0.249426
0.2804
0.261626
2.62263
2.69814
4.15041
4.66624
3.62961
2.57922
7.60929
0.931131
2.1256
1.51852
1.65941
3.42455
2.67365
6.649
191.997
236.713
205.877
296.623
290.31
236.362
287.195
186.556
181.048
158.269
-0.286088
0.909772
0.912276
2.13259
3.73544
-0.242966
4.88333
6.61352
-0.744568
0.391879
2.46964
11.0585
0.00432885
-0.0734304
-0.0711624
-0.0596593
-0.0606247
-0.0185902
-0.0808689
0.275961
0.254975
0.274378
0.293458
0.278347
0.266578
0.2826
3.43941
3.44476
3.34785
3.35042
3.32042
3.41388
3.42352
5.08068
5.05294
5.02752
5.06363
4.97922
5.04956
5.09714
6.2396
6.20848
8.21669
6.65959
7.45229
6.885
9.71655
21.4581
60.9414
46.0644
23.038
20.6957
62.9314
15.4211
28.6515
10.9502
10.0952
-4.01982
-4.24545
-2.34476
0.0205043
453.063
523.227
118.324
37.721
42.3428
245.24
147.613
5.05448
5.03537
5.03987
5.18778
5.11859
5.2496
5.09435
4.00718
4.02754
4.01417
4.12344
4.1473
4.05874
4.06112
1909.47
1791.6
1999.28
1806.99
1974.64
1995.82
1929.98
2.48177
2.47804
2.58459
2.55859
2.47724
2.50726
2.55852
4.5456
4.57949
4.53085
4.7105
4.87731
5.5391
4.68759
5.38107
5.48216
5.35882
5.32904
5.45213
5.30491
5.35588
5.79462
6.00286
6.19622
5.73145
5.65012
5.95572
6.00797
824.33
524.357
489.595
877.023
866.23
706.034
795.29
114.94
251.591
122.793
136.395
194.873
323.08
135.223
-65.8879
97.7591
-34.4678
162.35
97.1214
7.79972
1.78564
0.304587
-0.948362
-3.2029
-2.42242
-0.715166
-6.01619
-6.02308
-4.76233
-4.08405
-3.86479
-4.99487
-4.88269
-6.0539
-6.61524
-6.3356
-6.15239
-6.5428
-6.76054
-6.0634
-1.631
-1.26103
-2.32317
-1.57398
-1.15536
-0.85861
-1.77875
1.74375
0.0135351
1.67178
1.51942
-0.53486
1.6222
2.28751
3.22454
2.48545
3.92961
3.64826
8.63898
4.20281
2.75975
5.57348
5.46795
5.60785
6.21807
6.42707
6.81621
5.74845
5.21957
5.25593
5.69445
17.8109
10.4463
7.80742
10.3351
4.02805
3.45462
3.79773
3.35466
5.35131
7.20164
5.33958
0.344456
0.364423
0.278454
0.309013
0.281156
0.292126
0.290017
0.366559
0.521843
0.364274
0.432448
0.364938
0.561448
0.379043
1.39614
1.40417
1.47573
1.41071
1.84412
1.43773
2.23681
5.94843
2.19246
2.79607
2.08705
3.11921
2.29571
7.87302
10.1147
11.3382
10.2025
11.1471
10.7507
11.0602
10.5703
37.2439
26.1311
12.2317
11.875
11.9627
22.2813
37.2341
8.11602
8.08461
8.15267
11.008
14.2071
11.891
7.96009
1.81267
1.59562
2.51338
1.6613
1.6784
0.916452
2.76166
0.0577935
0.557137
0.137588
0.121648
0.0760942
0.374983
0.0502494
0.0590103
0.0682334
0.067884
0.0473113
0.0501526
0.0579537
0.05634
0.270929
0.286857
0.27422
0.249059
0.271602
0.280026
0.261414
0.387493
0.360976
0.37874
0.440846
0.361533
0.359794
0.411206
2143.78
1786.05
1272.48
2138.84
2152.71
2099.43
2010.26
6.00955
5.47047
5.43007
5.45641
5.56372
6.85178
6.84796
5.33979
5.24316
5.21926
5.34787
5.29268
5.29198
5.33312
967.097
990.838
979.346
974.864
1034.23
989.033
1014.75
906.447
923.673
859.06
706.275
935.068
516.158
529.818
748.776
505.62
755.317
660.316
523.787
538.303
588.072
499.597
658.132
636.645
457.353
463.38
389.273
406.96
501.484
481.728
424.097
2.67068
-0.117573
-0.0297329
-3.53398
-3.13532
-1.90162
-0.0504017
5.1894
5.13272
5.09495
5.29249
5.19587
5.18968
5.35546
5.21607
5.23626
5.22197
5.19467
5.20997
5.2213
5.20667
5.14982
5.17216
5.152
5.12394
5.14411
5.16099
5.13735
0.916457
1.50583
1.54276
0.934917
1.08749
0.933655
0.785236
11.4238
11.2718
8.25449
10.865
7.95111
10.8378
11.2017
1.00492
0.951013
2.53285
6.17031
1.96761
3.03981
7.97279
5.0051
7.56904
4.68906
4.55403
4.53109
8.057
4.74216
111.807
113.211
112.27
114.03
112.748
112.435
108.76
61.7043
63.4076
48.0694
22.9944
64.5921
51.559
41.6941
0.019455
0.0268697
0.0269616
0.0331186
0.0278412
0.0292599
0.0238145
0.0319334
0.0385378
0.0353657
0.0410525
0.0333112
0.0398856
0.0328943
1.69091
1.77682
1.70025
1.59964
1.66399
1.70825
1.65572
5.67718
5.56058
5.59965
5.44876
5.48742
5.54055
5.63477
5.95323
6.09392
5.8657
6.12383
5.44022
7.13738
5.84863
10.2298
7.8632
13.7601
9.8201
9.6589
9.20986
9.804
961.63
998.715
1023.58
945.99
972.341
1014.25
981.142
919.709
895.284
894.096
847.044
842.773
834.896
888.902
-2.99343
-2.93922
-4.36413
-2.7901
-2.48206
-3.25589
-4.294
4.246
-4.9251
-1.21413
3.42843
1.41449
0.893201
-0.323561
5.47739
5.42726
5.42165
5.38778
5.44376
5.40873
5.38796
6.33323
7.10586
6.42403
17.9678
12.2793
10.4405
7.45024
946.39
950.396
960.173
911.646
860.099
936.572
952.493
1.43558
1.56888
1.5294
1.63063
1.51521
1.95646
1.63178
0.176271
0.470047
0.362313
-0.206006
0.424842
1.02786
-0.27863
4.58996
4.03817
5.51778
3.77219
3.64164
5.25574
3.75559
275.142
365.213
273.855
268.466
263.053
427.038
333.467
430.347
427.954
427.626
423.759
431.109
122.678
138.032
75.9225
377.716
386.351
389.455
146.582
15.8594
126.592
14.2921
42.8902
225.875
200.536
188.74
111.487
297.478
184.17
0.0235856
0.0246324
0.0199047
0.0233812
0.0270344
0.0263038
0.0215545
0.100455
0.0854788
0.166628
0.0453427
0.0877878
0.0511198
0.110085
1.04767
1.11707
1.04232
0.999568
1.04155
1.08328
1.0213
1.08375
1.01455
1.03468
0.996996
0.982816
1.01605
1.05186
4.48217
4.29283
4.67938
5.99301
4.53956
6.29816
4.27283
5.2315
3.94093
4.04222
3.79499
5.0451
5.26259
5.19249
5.21359
6.68509
7.15361
5.34284
4.96094
5.09844
5.66705
7.27665
7.04965
7.30484
15.7419
8.33881
26.3523
11.437
699.258
981.097
958.653
638.239
787.349
981.028
960.894
636.41
741.244
868.083
588.448
852.07
840.574
833.276
889.24
881.067
926.795
881.452
860.771
505.827
403.642
330.612
33.1314
234.32
171.451
431.01
0.521862
1.7451
1.67761
2.67477
1.41019
1.21779
1.01797
6.63846
8.62136
4.90374
12.3485
22.4278
10.3904
16.6052
5.41404
5.40738
5.41412
5.41418
5.43154
5.41158
5.42964
5.94144
6.04434
6.399
7.51367
9.68014
6.5698
7.52021
6.5731
8.12587
11.6927
8.93606
6.32306
4.86563
6.68695
2.02061
2.08493
2.01876
2.99176
2.31389
2.632
2.13882
2.70118
3.38106
5.50002
2.57834
2.69204
5.39721
6.05879
848.277
874.659
840.102
621.16
234.927
599.419
441.521
850.37
138.027
360.056
874.136
191.33
54.4002
14.8758
32.5047
53.5063
54.2108
23.1135
54.6785
1.236
1.16119
1.18569
1.58067
3.55536
1.3737
1.23275
0.227567
0.251924
0.241577
0.212156
0.225531
0.239314
0.229439
0.00702497
0.0065914
0.00134795
0.00903528
0.00687201
0.0066608
0.00267817
0.00764672
0.00763055
0.00754368
0.00470354
0.00676909
0.00935218
0.00114398
0.00760289
0.00757194
2544.01
2588.52
2529.54
2604.65
2537.56
2600.86
2543.64
0.331239
0.390243
0.331862
0.324234
0.316474
0.352068
0.323365
0.634435
0.652566
0.683194
0.600933
0.593595
0.619867
0.642066
0.888386
0.922028
0.982508
0.951467
0.868365
0.969991
0.877992
1.41883
1.52498
1.57084
1.15455
0.958213
1.28415
1.29816
2.69477
3.0238
2.73545
3.47982
4.11482
4.40567
4.59612
5.88329
3.9162
4.2729
4.11787
5.1504
3.84908
4.81745
8.75454
34.5895
31.0095
25.2997
18.5964
31.393
12.0704
353.748
1141.38
364.425
719.973
423.329
1150.33
341.545
9.80459
12.9961
18.4873
8.3775
7.06595
7.07193
16.2323
12.9113
-94.3913
-9.31378
159.306
72.0648
-3.88317
-19.834
85.9363
30.1992
18.0504
6.6664
20.6309
174.153
22.2147
205.513
14.203
2.00875
5.51123
5.58823
5.63684
5.45829
5.43196
5.46732
5.4885
360.75
379.6
382.224
400.486
386.13
387.639
372.496
97.4095
466.755
491.752
71.2183
16.7487
26.6952
94.2388
5.13688
7.07438
7.73305
3.28427
4.8877
4.87655
5.80225
5.47725
4.36507
4.57663
5.34211
5.87426
3.6005
3.43957
856.949
471.263
444.287
851.911
465.158
456.483
641.663
592.665
889.086
860.195
2.802
3.88945
2.24431
3.10228
2.31025
3.9086
3.31127
0.00408076
0.0130857
0.0223867
-0.00211099
0.000366978
0.00714997
0.00436225
0.0258759
0.00577369
0.00134889
0.0154803
0.00666388
0.00325453
0.0106516
0.022602
0.0590205
0.0210903
0.0161312
0.00139114
-0.0411954
-0.00520655
0.0138473
0.0124384
-0.0130016
0.00637384
-0.00677052
0.0346176
0.0118711
-0.0692514
-0.0297657
0.379757
0.396053
0.366574
0.351585
0.347121
0.37379
0.365232
0.424401
0.291323
0.37039
0.333726
0.42609
0.290602
0.427464
2.83684
2.59616
3.50305
2.92963
2.55662
3.17741
2.49343
64.1392
419.005
116.98
533.026
82.3268
559.605
38.9288
27.1425
49.9939
22.5369
30.1004
35.0719
33.8113
16.0212
13.6305
11.9338
14.1258
33.7716
18.4309
20.6729
14.0617
174.309
316.635
85.4385
39.3442
84.1872
66.2319
78.6012
5.26273
5.35907
5.33857
5.32296
5.33981
5.39479
5.3106
64.6615
132.083
261.67
101.742
74.2759
47.4398
140.63
20.6606
26.0882
134.165
65.4321
167.529
-21.9003
34.3403
28.9141
1.92993
1.95921
1.95603
1.96444
1.95218
1.96282
1.94726
1.99023
1.9443
1.96636
1.97756
1.93868
1.94004
1.97255
2.24533
2.2908
2.27692
2.29129
2.3179
2.26232
2.29277
3.29712
2.94603
3.38794
3.2455
2.57642
2.96914
2.51546
3.56475
3.59297
3.76611
3.78816
3.052
3.00751
2.78466
6.44154
6.53849
6.81854
7.08876
6.81092
4.59465
6.31986
132.97
134.88
296.758
282.561
290.954
281.66
99.9093
21.8785
27.6451
25.4981
10.7668
12.8497
20.8318
11.8213
21.2183
154.883
1006.43
15.0684
15.7957
20.289
39.5281
49.835
69.0394
53.206
53.3637
125.574
45.3451
35.8666
2.48923
3.35092
2.91662
2.06216
3.34913
4.9035
3.7096
0.42094
2.95126
1.98056
0.654625
0.543573
1.68727
0.31688
0.453854
0.367299
0.466162
0.490148
0.455733
0.414515
0.490913
1.09648
2.76207
4.21709
0.770508
0.425191
0.848017
1.67539
0.0197761
0.040437
0.0459213
0.0396592
0.0185044
0.0520301
0.037953
0.0348075
0.00790438
0.0357249
0.124153
0.126027
0.106633
0.151717
0.13438
0.123575
0.143042
3.63106
2.10219
3.18415
0.192388
3.40883
1.4344
-0.660281
1154.88
892.121
500.959
528.823
191.901
165.753
1023.8
86.2911
50.4017
44.968
47.4615
42.4538
48.1237
82.2
6.19303
6.43701
6.14428
6.22612
6.60815
6.90819
6.24295
1.91481
1.90044
1.87311
1.90506
1.9049
1.91438
1.87995
1.94111
1.95528
1.95556
1.92469
1.93677
1.94229
1.9457
2.09345
2.06589
2.03539
1.97819
2.02391
1.98809
1.9435
98.1545
96.5887
112.619
107.977
208.849
109.378
83.1629
4.08155
5.51535
3.81043
4.91501
3.92676
4.57641
4.31923
1.65355
4.18947
0.840443
0.831601
0.822037
3.79442
1.31743
0.316591
0.352165
0.362563
0.400044
0.377677
0.376777
0.334935
0.0228336
0.0186672
0.00661614
0.0428888
0.0418565
0.03538
0.038942
0.202607
0.211895
0.21691
0.187093
0.198587
0.210672
0.204482
-1.64533
-1.55718
-1.86795
-0.774216
-0.346981
-0.664733
-1.21675
101.655
96.4206
102.117
107.023
185.255
175.961
96.9128
330.234
284.21
325.289
317.369
326.049
323.395
261.329
5.99243
6.26508
6.27615
5.91667
5.76615
5.90776
5.67335
5.42079
5.34413
5.33747
5.25728
5.28505
5.26523
5.32768
5.16706
5.15083
5.16417
5.12394
5.0432
5.14884
5.1274
5.19396
5.23003
5.22182
5.23237
5.1879
5.23152
5.16546
5.23851
5.2904
5.32637
5.25258
5.19058
5.19586
5.21565
5.35256
5.37249
5.37206
5.35449
5.33381
5.34879
5.36457
5.55389
5.42532
5.46504
5.56788
5.52774
5.45845
5.47778
1111.64
862.949
930.48
1193.3
503.488
1175.49
532.91
700.773
1333.05
1348.76
1505.62
1074.66
298.299
312.428
457.284
160.964
1084.09
1360.45
2.24215
2.21388
2.7458
1.63999
1.90341
2.46895
1.82153
1.73414
1.74005
1.73877
1.71291
1.69643
1.71942
1.72516
1.93753
1.93707
2.06841
2.07394
1.88397
1.93689
1.87973
2.22471
2.20606
2.25902
2.67171
2.30193
2.21139
2.21169
3.548
3.71631
3.4882
3.86958
3.428
4.15849
3.38106
926.846
900.927
876.61
1123.36
895.552
966.98
1155.41
904.647
1253.31
889.558
2.44716
2.37506
2.69797
2.23693
2.09359
1.99041
2.98921
2143.59
2154.62
2133.43
1257.49
1859.73
2135.21
2136.49
4.51741
9.22393
2.48627
3.75385
2.48857
12.2225
6.58587
1.05353
1.17916
1.16758
1.02688
1.05518
1.13428
1.16191
0.560192
0.526531
0.512051
0.48638
0.494741
0.507599
0.529911
0.396501
0.380772
0.366719
0.347053
0.352276
0.366112
0.374549
0.0476023
0.0520404
0.0355733
0.0574574
0.0380948
0.0102942
0.0588824
0.0481392
0.0543603
0.123116
0.0834793
0.076689
0.0385975
0.0795647
0.0675135
0.107903
0.0230238
0.0458648
0.0669063
0.0841943
0.105463
0.128868
0.180028
0.122065
0.115258
0.0465711
0.0876226
0.127697
0.100064
7.73993
6.05801
7.25964
4.01387
3.37739
3.32647
11.3098
-3.33452
-4.03785
-3.20981
-4.30694
-3.31539
-4.27685
-3.9015
47.8242
60.9182
67.6173
121.844
256.353
253.987
183.631
260.93
259.832
161.6
87.9812
91.8226
5.46408
7.84346
6.34633
7.14162
6.05693
8.58281
5.75716
45.8188
66.5659
57.4881
144.642
377.229
386.707
167.222
5.22418
5.23612
5.21631
5.20996
5.19351
5.22057
5.20646
8.83641
5.58744
5.98305
8.85985
7.22678
6.2986
6.67463
-111.061
-15.2668
-15.1972
80.0025
22.506
48.2529
2.18758
2.5587
1.77331
1.63893
1.779
2.03967
1.87912
35.0543
34.4279
31.4508
53.8415
31.3645
61.7654
24.3051
1094.41
1111.78
1149.94
1291.93
1199.97
1261.68
1323.06
1226.39
1259.16
1058.66
2.59218
2.62434
2.50488
2.85385
2.73935
2.76332
2.91053
0.126377
0.302547
0.556485
0.64169
0.447438
0.363443
0.262323
0.854067
2.54174
1.04185
1.7124
0.982593
1.73298
0.479127
1970.47
1879.69
1823.23
1928.1
1966.16
1904.25
1936.77
1.46187
1.53515
1.48512
1.36985
1.41905
1.46285
1.42851
1.04971
1.00171
1.04132
1.12033
1.05968
1.03275
1.08541
1.19891
1.2607
1.22042
1.17253
1.1542
1.22246
1.18607
0.635491
0.598477
0.600096
0.681269
0.652843
0.620656
0.642423
0.528562
0.518666
0.484907
0.464561
0.448016
0.492894
0.491312
0.200267
0.185979
0.245392
0.212141
0.18578
0.19219
0.239355
2.72762
2.4596
1.20968
0.585665
1.08706
1.20119
0.433558
-1.81272
-1.73434
-1.42175
-0.772544
-1.35498
-1.21075
-1.89328
170.358
134.654
124.372
151.216
229.407
228.937
220.604
80.4468
189.044
152.316
226.115
228.296
221.181
226.002
262.514
257.766
267.706
258.173
260.94
263.88
265.084
261.469
267.01
194.3
7.22709
9.78783
7.09528
11.7532
22.0254
8.6147
6.43753
2.87419
2.99676
2.7303
3.19239
2.28301
2.68273
2.55237
3.97992
3.50712
4.27498
4.45296
4.23153
3.74073
4.73685
5.31892
5.62047
5.5475
5.25106
5.46808
5.16842
5.00839
5.43752
5.12647
5.11543
5.3169
5.56326
5.64134
5.68549
4.9015
5.28892
5.24569
4.45297
4.89038
4.5546
4.8987
6.19928
6.96856
6.09838
10.5439
15.5563
10.7042
7.15191
528.462
492.439
531.805
19.4272
304.739
61.9979
356.48
49.6452
88.7525
52.5428
63.4242
29.0953
54.1109
80.4718
120.938
163.344
91.0985
65.1643
55.6953
62.7897
-86.542
35.9272
46.5029
37.6963
48.9058
50.2971
-80.011
54.1924
55.6019
46.5494
20.177
112.932
90.9563
13.2136
4.3227
4.72086
1.68846
2.84672
4.1251
2.7045
-0.428254
-0.054763
-0.294908
-1.0029
-0.450209
-0.21237
-0.684568
388.819
608.853
613.248
401.535
562.499
633.429
607.201
672.738
651.826
687.514
257.933
477.837
511.474
641.946
-10.3545
-9.56077
-11.0675
-12.3632
-11.4871
-11.2022
-10.9083
34.664
34.6159
33.8201
35.5553
67.8206
76.4131
29.7965
2.1548
2.1426
2.16951
2.17764
2.20932
2.17414
2.19111
6.76967
8.0142
6.45444
8.52185
6.39016
8.45988
8.44331
4.32605
7.72392
2.25484
2.33286
1.93457
4.83843
3.24692
62.3388
28.0119
33.0727
295.734
781.499
37.2778
48.0992
1.68757
1.58929
1.64706
1.78074
1.71672
1.66393
1.70051
0.00384772
0.0797465
0.0216811
-0.137791
-0.0537305
-0.0122808
-0.0627039
12.6679
12.0217
12.5363
11.7626
12.9881
8.70933
5.17985
221.065
133.066
223.657
227.954
218.546
6.88733
6.97136
6.90208
6.05207
4.35634
6.94904
6.16732
6.32274
6.4436
6.87759
6.8609
6.43713
6.8758
6.83372
1.86981
1.87874
1.88082
1.86204
1.86628
1.8852
1.87433
1.91125
1.88622
1.9061
1.90355
1.89877
1.87396
1.88848
120.5
98.6806
-18.7747
888.806
1011.55
890.589
1025.95
1167.2
1038.87
1015.29
1161.92
1146.04
1101.55
1172.75
1205.34
1295.74
1115.31
930.16
1002.24
1024.84
1339.68
1261.27
1208.14
313.124
282.928
364.809
295.519
398.578
453.768
391.5
236.099
332.816
356.737
340.209
275.832
237.641
346.389
320.784
160.875
222.853
352.535
454.37
549.923
452.817
478.718
299.471
1791.11
2019.97
1312
1771.56
1173.68
1466.2
1521.31
1320.07
1979.09
1574.79
2201.14
1727.68
865.05
713.351
1544.48
932.383
849.046
695.279
1438.67
1771.46
1167.16
1232.19
1034.6
1043.61
-8.07355
-9.74671
-9.1413
-10.2415
-9.80365
-10.1155
-9.24844
-0.821895
20.4828
1.88988
-2.08297
6.46238
17.5842
0.426059
3.59653
3.83361
3.54813
3.58337
5.37218
3.63089
5.63861
2.18661
2.20957
2.1718
2.18982
2.49817
2.14016
2.24398
1.8447
2.0387
1.90743
1.92435
1.98801
1.91078
1.85472
1.99613
2.02142
2.02009
2.02526
1.99698
2.03008
2.02088
2.20857
1.8544
1.93093
2.0602
2.75219
2.16177
2.95471
2.07668
2.13209
2.14934
2.23965
2.17323
2.19081
2.13131
4.29118
7.54746
4.39033
11.0191
7.36304
10.3003
10.8825
17.1364
55.3578
18.4162
99.4452
31.9601
106.659
47.5326
89.598
102.035
108.213
94.7658
75.0384
35.4804
35.2011
76.9879
81.2108
89.7323
34.8836
55.4755
37.5127
3.88694
3.83104
3.84448
3.78662
3.8195
3.86075
3.82063
4.2998
4.29658
4.33749
4.2582
4.2813
4.27513
4.30676
923.843
957.644
874.467
962.553
951.745
947.379
960.388
1.85984
1.84899
1.85856
1.84403
1.83459
1.85159
1.87407
1.87801
1.8842
1.86837
1.87123
1.87116
1.8882
1.87473
1.85864
1.85261
1.84759
1.85464
1.86041
1.85539
1.84913
90.3146
-46.5473
90.956
158.785
78.4898
58.3999
146.859
93.7921
155.751
75.216
74.5939
-33.0342
-125.822
9.18257
-153.593
50.8441
6.49898
-9.6809
-9.98396
-9.7448
-9.17422
-8.05746
-9.91811
-8.73513
-11.2795
-12.0557
-12.3922
-11.2102
-11.3006
-11.5667
-12.18
445.761
463.091
494.316
472.509
472.154
533.967
498.793
499.112
421.584
485.873
528.976
258.04
315.236
386.76
246.091
444.668
252.25
407.13
389.343
343.827
308.276
771.472
456.509
635.396
-4.24661
-7.30571
-5.84115
12.1585
-2.7539
-5.39758
-1.09918
184.034
-90.4275
110.012
30.7082
-87.3684
49.4305
22.8522
-80.2201
30.1174
75.2699
175.887
56.3963
59.1662
156.158
104.994
27.928
22.819
73.659
53.364
87.0001
-19.1109
-3.07889
-4.42068
-4.51515
-3.28622
-3.04343
-4.33809
-4.13201
-0.463221
-0.548517
-1.2284
-0.351897
-0.129644
-0.318697
-0.756674
1.88028
1.79944
1.80854
1.81286
1.81234
1.86407
1.8765
1.84799
1.82779
1.84896
1.80382
1.8149
1.83097
1.82157
1.94646
1.97006
1.94762
1.94105
1.959
1.95216
1.94957
4.13198
4.05869
4.12344
4.06502
4.04733
4.08893
4.07212
3.03638
3.01807
3.04267
3.08384
3.15553
3.10511
3.10974
2.31267
1.94578
2.02618
5.79745
3.14313
3.37884
4.3893
1.78727
1.28902
2.11875
-0.765801
-0.393171
-1.0815
-1.2282
-3.87808
-3.93235
-4.14274
-3.88071
-4.4172
-3.93047
-4.26725
-0.172862
-0.0175215
0.20575
-0.268647
-0.413917
-0.0346374
-0.19121
2.51967
-1.13328
0.632572
2.00884
-0.264067
-1.56517
-0.262221
-3.08625
-2.93368
-1.84084
86.9911
30.5667
63.5423
78.2418
76.1154
61.2021
27.7358
40.9531
76.3622
83.2186
88.8392
74.0293
80.0028
24.5425
64.6281
11.0496
11.3317
11.2149
12.7261
10.6485
13.5657
18.9096
2862.23
2851.84
2858.8
2864.25
2855.3
2841.91
2793.9
2842.1
2865.89
1.24865
1.54268
3.13732
89.083
29.6697
0.842311
0.275484
4.6205
-0.0204987
-0.0460125
0.056051
0.71035
2822.47
2878.62
2848.62
2817.49
2816.8
2818.41
2821.44
2816.77
2806.59
2819.04
2798.02
2801.69
2808.5
2812.14
2814.73
2818.06
2848.83
2817.35
2827.02
2800.87
2815.41
2816.73
2815.71
2816.97
2818.04
2820.59
2816.89
2818.78
2816.17
2812.13
2808.14
2803.04
2796.85
2788.17
2814.11
2822.34
2811.46
2840.87
2807.25
2783.47
2810.45
1703.73
720.759
2842.77
2903.55
2870.9
2682.97
2707.35
208.89
214.205
188.134
135.862
253.11
215.255
115.472
94.5376
212.145
2489.17
2850.31
2661.03
2625.55
2645.92
2728.95
2833.37
2794.42
2683.46
2605.19
2633.44
2680.43
2657.39
2785.47
2311.3
195.377
183.282
217.616
10.0463
68.3532
196.889
1.90662
1.89993
1.88922
4.98381
5.05674
4.51106
4.75523
4.8414
5.03906
4.65491
2.11671
1.95625
2.10161
0.9286
0.954795
0.867626
5.6875
5.45349
4.99984
3.78102
6.31159
4.00981
2.02583
2.04574
1.91693
2.01574
2.73476
2.74807
2.83792
0.879012
0.897028
0.966122
0.985868
3.05268
2.51168
2.49761
3.06365
4.7128
5.05492
4.84426
5.11001
1.85105
1.90148
1.93536
1.93358
1.92543
1.87795
1.87721
1.84227
1.87497
1.87431
4.81495
4.88031
4.81539
4.84925
2.88828
2.66894
5.44014
5.2851
4.45201
3.70912
3.79196
3.93911
4.79035
3.61687
1.934
1.93967
1.92601
1.92319
1.93722
1.8793
5.40049
5.07479
4.65233
4.55526
4.71374
5.49839
5.66229
4.92352
0.996026
1.04731
0.988448
1.04699
56.182
37.8084
68.8511
45.247
0.20331
0.217879
0.225057
12.2827
5.36089
29.7647
9.82572
10.356
9.83402
8.52975
11.3083
5.73153
6.21495
6.08516
7.05298
53.5643
105.335
12.5048
-11.5797
-11.259
7.08436
6.91178
9.51931
6.57511
405.103
164.903
200.563
417.581
-0.254413
-0.18297
0.0903423
-0.0323458
0.491039
0.130726
3377.18
2911.76
2671.87
2357.19
102.874
104.685
68.7726
40.4636
5.29392
4.29182
2.98535
2.55672
62.8829
57.5989
60.5021
94.817
0.145841
0.112215
0.14135
0.124138
1.44969
1.50868
1.90763
1.92256
1.82097
1.76097
10.5336
8.74487
7.38507
6.60648
2.49441
1.82582
2.14351
1.80613
13.2356
35.0624
2851.26
2858.52
0.156068
0.174942
0.160885
0.20063
10.9391
8.70811
19.9818
13.1591
5.04723
6.31367
4.6856
8.1695
1.64433
1.69234
0.0539089
0.0485545
0.0573016
0.0483483
17.8625
9.45072
15.0024
10.2798
0.258501
0.207221
-1.40978
-1.54465
1.87916
1.88549
881.743
752.319
888.696
821.277
2130.14
2014.99
2633.63
-6.60968
17.7646
30.8322
13.3052
73.8463
79.5297
388.508
428.342
135.846
61.155
359.402
55.1395
63.8197
24.3866
12.1878
77.1501
89.2932
0.153158
0.128829
246.366
128.266
94.3784
170.768
75.8655
98.3034
-2.67499
-2.08726
-2.36216
0.0644936
0.0417086
0.065755
27.8367
21.0015
2.07404
1.96733
1.86588
1.87921
1.84223
1.83542
1.84528
1.84834
5.21888
8.88247
4.28029
8.07834
1.96935
1.98059
1.96737
1.96257
6.01316
5.63252
23.4222
26.0211
5.68393
5.6509
724.348
668.33
1.69317
1.63351
972.437
904
5.18086
5.15674
5.22696
5.2867
888.012
973.957
6.50317
6.36847
2269.08
2693.5
2.06279
2.17837
2.10846
2.14986
10.4867
12.4391
23.0309
12.6318
1.90546
1.88287
0.397496
0.385059
0.363872
0.349997
1.10955
1.10688
2848.65
2850.44
2859.56
2846.54
-0.385618
-0.423379
-0.340175
-0.468729
236.38
75.702
316.888
126.418
-4.01537
-0.500794
-4.41004
-4.34974
1195.01
566.445
5.21367
5.27301
5.74272
5.50704
6.15371
5.41955
-3.30811
-0.883067
-5.75589
-5.53809
0.190509
0.130093
0.274157
0.196425
12.6845
21.8072
56.5789
14.2688
2.8306
2.79077
-5.04643
-4.43733
2821.28
1159.12
496.529
1507.99
936.352
83.1207
44.0073
38.6951
88.8481
-4.23101
-4.22253
5.92612
5.65467
0.840598
0.833066
4.2196
4.20541
4.16096
4.15444
2.63153
3.29452
3.78371
3.5646
-0.61411
-2.54659
2409.07
2475.49
2855.26
2.35358
1.01159
0.60682
0.520992
8.81027
20.4989
5.36653
7.09803
0.198122
0.187316
0.256862
0.304897
4.67316
4.86837
-1.68961
-1.99291
-0.545581
-0.564686
4.91075
4.95075
4.87973
4.93418
2.98767
3.22689
5.37215
5.00771
0.580991
0.536893
0.554716
0.976527
1.97063
1.91266
1.85982
1.8952
3.60627
1.92891
1.31895
0.862028
0.631892
1.09884
47.6017
160.055
453.577
469.296
1.87645
4.42804
3.47654
3.83678
0.0553636
0.0594776
0.0445132
0.0458933
0.185825
0.194687
0.290297
0.251417
6.80035
6.89638
5.04407
4.86472
2.05071
2.0185
2.06391
2.05088
2.06589
2.06865
2.05972
2.15096
2.22154
2.21475
2.27392
2.27011
2.21422
2.22179
2.26784
2.25334
-0.170114
4.33419
4.36556
533.783
563.372
541.199
588.715
5.42319
5.29382
3.38447
2.96255
147.759
44.5513
466.825
446.801
-10.1772
-10.0705
-12.1503
-11.3294
558.49
540.496
575.844
525.513
-4.82385
-4.82979
-4.53202
-4.5105
36.9519
13.765
5.48309
5.27489
57.312
40.8184
66.3981
29.2302
30.6648
27.833
11.2994
6.96763
11.444
11.3881
2007.37
2082.6
2098.2
2136.81
2835.41
2860.89
-2.85505
-4.56581
144.303
182.681
1546.8
1580.95
88.4377
77.3553
1.34858
1.60086
86.6533
81.6496
5.24423
5.01054
5.03438
4.83989
2875.08
2886.93
5.3064
5.66258
5.83397
6.8295
3.74607
3.77832
0.0297938
0.0056356
110.043
301.351
-12.2797
4.51143
3.6281
18.4463
10.4222
921.156
853.453
892.84
848.861
1.52308
2.26465
3.61473
3.67058
3.5786
3.65296
4.36033
5.0595
4.0124
5.83818
3.27797
3.17536
3.67978
3.28646
3.33147
3.38338
-0.0619497
-0.0773336
0.000854976
0.00165175
1.0935
1.58082
1.11142
1.56978
5.25386
5.202
3.86525
3.84788
3.87118
3.8119
8.65278
11.1915
6.23063
3.41831
20.6837
19.1647
1.91195
1.90836
5.05364
4.98701
5.17637
5.19643
4.97653
5.07565
5.26089
5.25154
1.38802
1.50674
5.26735
10.0148
97.662
109.845
157.985
159.369
2.44514
2.42738
2.6355
2.64514
1.83741
1.85903
0.108887
0.110933
-3.01927
-4.67298
-5.64771
-6.34994
2.07869
2.11106
2187.45
1244.58
2278.11
510.557
5.13574
5.103
6.5326
5.24583
4.07429
4.09582
902.566
928
882.149
897.741
1.55204
1.61897
1.49914
1.58414
2.72034
2.78988
2.64683
2.70023
39.356
13.3681
0.272942
0.253208
-14.2525
-14.0365
-12.3913
-13.3851
0.274143
0.254049
290.267
417.896
379.097
423.986
4.09254
4.07078
1.87528
1.95447
1151.78
1332.07
1132.75
1290.88
0.515198
0.484155
2855.9
2854.18
2850.61
2860.88
1.16142
375.973
282.716
181.255
264.787
19.8843
10.5118
10.4125
7.34986
11.5722
996.047
987.591
973.688
959.214
1028.17
318.393
307.239
297.87
102.927
50.6848
0.192331
0.21315
7.18505
12.5271
-3.77148
-3.45894
-4.36662
-3.12211
-1.43164
-3.44349
-2.44319
-3.01386
0.191277
0.211908
0.55451
1.23968
1.83522
1.84647
17.5697
12.8779
94.1441
2.36929
2.3549
5.09101
5.06554
5.11709
5.08714
2.29441
2.26774
5.03248
5.03904
5.00397
5.01114
78.4073
139.77
38.7943
83.5828
2770.16
2782.16
1.92417
1.9131
4.243
4.22992
10.1832
7.53202
7.95696
7.97067
97.6005
65.0809
0.465251
0.436745
31.0606
42.6663
7.44577
6.76517
2.04937
2.58077
2.7861
4.36863
2.33395
2.31264
19.3187
24.8741
2.32463
2.26462
-1.49502
-1.13842
-1.72482
-1.19183
2841.78
2837.75
10.5737
6.35393
30.7003
17.4814
0.469971
0.439764
5.95373
6.9918
2.66328
2.59901
3.7668
3.50984
8.28041
17.3763
5.87319
5.83566
5.7515
5.70924
6.34894
5.63811
442.996
8.92333
8.377
313.153
-4.12341
-4.57855
1.92541
1.9259
4.64831
2.38692
10.7859
13.457
0.159418
0.168662
0.155048
0.17184
51.1118
38.5425
0.339439
0.405646
2797.37
-1.72952
0.947438
-3.45801
1.84059
1.84335
7.33957
7.25922
182.209
91.9132
9.77786
9.20751
1.19146
1.18331
1.0975
1.23938
4.35118
8.66477
3.16514
0.232786
0.240615
1.8731
1.88494
126.015
76.719
1042.2
1176.19
1284.63
952.216
0.490217
0.432905
101.005
22.5746
6.1033
5.78829
3.94145
3.94979
-0.637779
-0.6569
-0.296063
-0.473797
4.00171
4.00685
5.78302
5.76235
3.45398
3.84241
5.19603
5.48969
18.6863
32.7274
25.4051
34.2121
72.9226
316.275
8.68732
8.01959
58.7351
38.9762
2.87623
2.88684
8.00447
6.69892
4.31562
4.33796
69.4782
188.764
3.98965
3.96675
4.94376
-1.4123
800.793
1104.41
2.09857
2.07029
7.98585
11.7815
2.19278
2.1024
1008.93
962.954
1074.98
1019.42
1.85399
1.83349
920.678
1003.77
1005.69
1039.74
4.98568
4.9431
2.62634
2.60435
0.300893
0.294259
63.2997
14.754
6.57603
3.63408
0.0302646
0.0337363
1.25539
2.19282
0.364899
0.0797125
-0.0443837
-0.189434
1.98948
1.98116
1.99454
1.98696
5.56681
5.74004
2.79648
2.16375
5.54303
5.7084
384.654
709.02
398.831
1118.02
4.72852
4.72851
1.93596
1.9639
7.43012
2.58725
2.99623
4.02933
2.28728
2.26249
181.796
179.765
158.691
451.343
-4.02979
-2.92892
6.33053
5.60513
5.90942
5.55382
2.12237
2.26766
0.273012
0.280326
4.70246
4.71444
645.066
242.3
2.30853
2.23858
4.62505
3.79607
0.485006
0.467349
-0.0212973
-0.620367
0.470923
0.949359
5.3781
5.33472
1.77332
1.61782
416.054
295.645
215.249
150.452
999.248
471.219
-4.57594
-6.84446
50.357
32.1468
5.36449
5.34032
19.745
26.808
-1.23376
-2.58881
4.59905
4.40107
0.560046
0.557747
5.8931
5.90564
31.4269
17.1221
23.3616
13.3127
6.8879
6.24945
20.2753
28.4303
8.1016
5.44169
2.70812
3.5828
-9.16591
-9.49469
15.585
4.51544
322.451
305.481
2153.91
2488.43
1.04856
0.516468
9.14548
8.91426
0.527664
0.543437
3.13651
2.58022
1.89757
1.90135
6.53644
9.06099
1094.88
1068.05
6.98871
11.1239
2849.89
2852.74
2873.41
2864.42
2865.49
5.33789
5.47831
0.00422008
-0.0139692
-0.021634
-0.0175044
0.544339
0.406665
3.1694
3.34502
2.02745
2.0292
379.66
325.31
2.07289
2.03696
1.89959
-0.214378
118.864
105.798
0.577536
-0.0257632
1.97417
1.92775
2.41568
2.42586
249.536
548.09
5.40987
5.41553
526.432
543.758
0.72993
1.04674
1.77209
2.96896
52.5768
72.0554
1.44899
0.880212
1.09333
1.1358
1.14794
0.264914
0.278712
0.269452
0.282494
0.0211352
0.0207226
4.13284
6.06862
-0.28495
-0.326778
0.649078
0.679967
0.679319
0.648083
4.8939
4.89065
51.9487
46.2503
4.86925
4.866
7.33307
7.48959
4.8644
2.0515
4.37342
3.75364
0.365056
0.317454
0.0596255
0.0554027
2.14129
2.00668
4.45779
4.42881
184.644
675.498
166.998
633.965
32.4167
34.06
4.54995
8.39364
16.1715
15.7573
51.1366
38.7606
67.0348
45.1445
0.398045
0.241325
2.14917
2.20191
22.6247
16.4807
19.4836
22.4814
0.32626
0.828264
27.9873
28.1702
4.84153
7.39852
7.01241
6.78531
730.702
663.885
2.18921
2.10905
428.027
300.619
5.97124
6.75511
1924.12
2116.52
4.44084
4.47251
0.388394
0.401539
2.21623
2.12078
-10.1802
-9.69147
9.54103
6.8264
1221.65
1246.09
5.14245
5.15484
1.11669
1.12405
2.29114
1.41386
2141.3
2038
4.44817
4.39236
5.15785
5.12167
46.193
20.2635
15.0432
16.2973
1.43897
1.57193
759.99
774.355
917.777
723.112
5.14077
5.17629
2.1697
3.18668
55.0913
57.0202
-3.76527
-3.54295
4.43572
4.39252
3.83171
0.538524
123.098
70.7056
1.28127
1.26491
6.58097
7.63982
1.76573
1.76765
5.13463
5.12931
83.3029
415.908
0.0520125
0.0471158
0.131679
0.193701
44.9308
74.8603
52.0909
-3.00764
-2.63544
-3.19507
-2.51746
-0.417633
-0.54578
80.3915
82.663
949.545