/*--------------------------------*- C++ -*----------------------------------*\
| =========                 |                                                 |
| \\      /  F ield         | OpenFOAM: The Open Source CFD Toolbox           |
|  \\    /   O peration     | Version:  v2012                                 |
|   \\  /    A nd           | Website:  www.openfoam.com                      |
|    \\/     M anipulation  |                                                 |
\*---------------------------------------------------------------------------*/
FoamFile
{
    version     2.0;
    format      ascii;
    class       surfaceScalarField;
    location    "0.35";
    object      phi;
}
// * * * * * * * * * * * * * * * * * * * * * * * * * * * * * * * * * * * * * //

dimensions      [0 3 -1 0 0 0 0];
oriented        oriented;


internalField   nonuniform List<scalar> 
49400
(
-5.66156e-06
7.03168e-09
5.61654e-06
3.79857e-08
1.30571e-05
3.598e-06
-2.23166e-05
1.28618e-05
2.02297e-07
-3.42128e-06
1.73141e-05
-8.27629e-06
2.02244e-05
-2.00477e-05
-2.0768e-05
5.09439e-05
-3.41231e-07
8.08146e-06
1.95874e-05
-4.99855e-05
-1.56847e-07
-6.17195e-07
-1.22896e-05
2.37062e-07
1.21438e-05
-9.1293e-08
2.62939e-05
1.15555e-05
-5.01389e-05
2.59137e-05
-1.31244e-05
1.50759e-06
2.37606e-05
-1.3263e-05
4.72299e-08
2.94646e-05
-3.11721e-05
5.68859e-05
-2.68271e-05
4.41616e-07
2.64019e-05
-1.64187e-08
9.19311e-06
1.56146e-05
-5.16348e-05
4.9361e-07
9.14112e-06
4.11644e-05
2.27297e-05
-4.82795e-05
1.73231e-05
5.02431e-05
7.6747e-06
-7.39582e-06
2.14729e-07
-3.70653e-06
2.05224e-05
6.23398e-06
9.09993e-06
1.98506e-05
8.84623e-06
4.68428e-07
-2.00285e-05
4.9397e-05
2.90528e-07
-8.85125e-06
4.85787e-05
-1.39511e-05
-2.57764e-05
8.68106e-05
-2.54913e-05
-7.01706e-05
-4.62246e-05
-8.21682e-05
-2.2005e-05
1.60999e-05
-8.04596e-06
2.58886e-05
-7.33849e-05
-7.16645e-05
4.15398e-05
-0.000127944
1.52873e-05
9.79082e-06
6.36641e-06
-3.14446e-05
-5.23613e-07
8.65688e-06
7.15408e-06
8.77737e-06
4.89836e-07
-1.20687e-05
-5.20691e-06
2.6053e-05
-9.46832e-06
-2.11058e-06
-9.94963e-06
1.33996e-05
-1.30515e-05
2.10393e-06
-3.01261e-07
-1.98316e-06
1.80499e-07
-3.84292e-06
-2.42793e-06
8.37478e-06
-5.10541e-06
9.61238e-07
2.0553e-06
2.75877e-06
-6.79724e-06
2.2912e-06
-5.54009e-08
-2.0893e-06
1.95257e-06
-4.43594e-06
-1.9497e-06
-1.47405e-06
-1.57072e-06
4.99447e-06
4.83608e-07
-4.04828e-07
-2.02848e-06
-7.09303e-07
-2.81139e-07
-2.44246e-06
1.97161e-06
6.60211e-08
6.40875e-07
-5.11181e-06
-1.1514e-06
1.55229e-06
-1.21983e-06
-1.16166e-05
-1.09886e-05
-6.12227e-06
2.87275e-05
-7.84878e-06
-1.47959e-05
1.10281e-05
-2.2992e-05
4.1546e-06
8.83995e-06
1.03568e-05
-3.39927e-05
1.90933e-05
7.74732e-07
4.98364e-06
-1.76188e-05
1.79547e-05
1.72409e-06
-1.08243e-06
-1.52174e-06
8.80078e-07
-8.79173e-07
3.69673e-07
2.23359e-06
-2.63043e-06
6.68833e-07
1.98976e-06
5.04042e-07
-4.01555e-06
4.82898e-07
2.38694e-06
-7.16831e-08
9.24253e-07
-2.19807e-06
-4.30944e-07
4.11212e-07
1.74273e-07
-1.54542e-07
7.04133e-07
-8.67912e-07
-2.67166e-07
-1.18532e-06
2.30066e-06
4.87651e-07
-1.35728e-06
1.72039e-09
-4.30234e-07
6.50718e-07
6.655e-07
-2.28105e-06
-5.17513e-07
-7.09902e-06
-1.18254e-05
-8.43705e-06
2.73615e-05
5.3604e-07
-6.01087e-06
-1.62419e-06
-1.3941e-05
2.65156e-06
7.42207e-06
3.86954e-06
-1.73025e-05
9.11153e-06
-3.31365e-06
-1.1917e-05
1.25914e-05
-2.19884e-05
9.83541e-07
-3.06613e-07
-1.26891e-06
5.9198e-07
-3.41894e-06
-1.78081e-06
6.18329e-06
-4.69981e-06
9.74258e-07
3.27124e-06
2.42155e-06
-6.9617e-06
1.94077e-06
1.92245e-06
-2.91055e-06
3.07051e-06
-5.18881e-06
5.05733e-07
7.45839e-07
1.01415e-06
-2.26573e-06
5.1186e-07
5.52722e-07
-5.58849e-07
5.90624e-07
6.67075e-07
3.95484e-07
-5.97709e-07
7.9285e-07
-8.95936e-07
1.9585e-06
5.43277e-08
-9.93146e-08
1.72545e-07
2.80484e-06
-8.5261e-08
-2.29151e-06
-4.2807e-07
-9.01325e-07
-3.26752e-06
6.97368e-06
-4.45342e-06
3.46683e-06
-1.77497e-06
2.38047e-06
-2.897e-06
3.34298e-06
-5.54602e-06
1.21177e-07
-4.57164e-08
-1.95177e-06
1.07595e-05
9.17218e-06
4.10057e-06
-2.40322e-05
-6.41196e-07
7.68969e-06
3.71099e-06
9.70388e-06
-1.1729e-06
-1.53979e-05
-7.08698e-06
3.21888e-05
-9.85057e-06
-6.72028e-06
-7.08001e-06
7.68272e-06
-1.283e-05
9.90697e-06
-8.61324e-08
-9.04654e-06
-7.74298e-07
-2.41377e-05
-6.79167e-06
4.08364e-05
-1.39725e-06
-2.28266e-05
-3.66529e-05
3.90028e-05
-3.74724e-06
3.27071e-05
-9.21865e-05
6.03543e-06
1.76251e-05
3.82466e-05
-8.84983e-07
1.77358e-05
4.17281e-05
-4.3665e-06
0.0001003
3.41649e-06
-6.6672e-06
-1.22629e-05
1.55136e-05
-1.21018e-05
-1.37181e-05
2.92364e-05
-6.12019e-06
-1.26488e-05
-9.44055e-06
1.29701e-05
-9.64975e-06
1.58887e-05
-3.79781e-05
7.18374e-07
-1.46635e-06
4.3442e-06
-8.64212e-06
3.48438e-05
1.72466e-06
-2.79263e-05
4.11208e-05
-5.12293e-05
-1.40008e-05
-3.75862e-05
3.9099e-05
-3.15174e-05
1.78219e-06
-1.95182e-06
4.20625e-06
-4.03662e-06
-2.37837e-06
1.55665e-06
2.60391e-06
2.97779e-06
-7.30798e-06
1.19202e-06
-3.42866e-06
3.79328e-06
-4.28461e-06
8.08054e-06
-7.55206e-07
6.76851e-07
-1.20608e-06
6.50437e-07
1.76663e-07
-4.96965e-07
-3.30135e-07
-7.91775e-07
-2.578e-07
1.70001e-06
-1.31733e-07
-4.83379e-07
3.20585e-07
1.9568e-07
-1.01323e-06
5.11565e-07
-5.21115e-07
-4.43965e-07
6.97729e-07
-3.80018e-07
3.77644e-06
2.35862e-07
-4.71731e-06
7.0501e-07
-1.86308e-06
-2.21353e-06
7.85305e-06
7.1847e-08
-1.69907e-06
-1.70873e-06
2.01754e-06
-2.36966e-07
2.59781e-06
-6.00561e-06
-2.04764e-06
1.85165e-06
-4.16714e-06
1.72088e-06
5.31431e-06
8.08247e-06
-1.51177e-05
4.43417e-06
9.511e-06
-1.22243e-05
3.61346e-06
6.13502e-06
2.67991e-06
-8.56916e-06
9.50271e-06
-9.69371e-06
1.85086e-05
-6.90063e-07
5.07353e-07
-1.17676e-06
-8.96353e-07
-4.07528e-06
1.59519e-06
3.37644e-06
-6.20345e-06
3.03426e-06
2.27284e-06
2.047e-06
-1.23257e-05
1.04221e-06
-1.45673e-06
2.00971e-06
-2.0037e-06
6.42235e-06
-2.52228e-06
3.55284e-06
-1.93201e-06
2.32998e-06
1.94144e-06
-2.04001e-06
-2.2314e-06
-1.31057e-06
-4.46047e-06
8.10102e-06
-7.12318e-06
7.75405e-06
-5.12314e-07
6.37599e-06
-7.90369e-06
4.44135e-06
-7.18506e-06
-4.32414e-07
4.13288e-07
-1.1796e-06
1.64104e-05
1.69149e-06
-1.17609e-05
-6.34091e-06
-1.28271e-05
-6.9083e-06
3.61458e-05
1.56796e-06
-1.27036e-05
-1.36305e-05
1.21778e-05
3.0206e-06
6.47579e-06
-3.28098e-05
-1.05664e-05
1.58359e-05
-1.58516e-05
6.24472e-06
6.42529e-06
4.27927e-06
-1.69493e-05
1.04153e-06
7.68993e-06
-2.48674e-06
6.99891e-06
4.67911e-07
-1.06146e-05
-6.91728e-06
2.45308e-05
-9.92532e-06
-2.21408e-07
-6.53196e-06
7.30461e-06
-1.2178e-05
-1.31847e-06
-1.40748e-06
8.18781e-07
1.90717e-06
9.57356e-07
-5.44028e-07
-1.7318e-06
-1.58393e-06
1.13381e-06
1.91244e-06
-1.78806e-06
-1.70832e-06
-3.38934e-07
3.38518e-06
1.19922e-06
-3.53131e-06
1.67907e-06
1.08518e-06
2.35102e-06
1.01652e-06
-4.45272e-06
2.81799e-07
6.27451e-07
1.75926e-07
1.08453e-06
1.54829e-06
-1.35235e-06
-6.31164e-07
2.61097e-06
-1.68637e-06
5.09948e-07
1.15938e-06
-1.82923e-06
1.61274e-06
-1.23064e-05
-1.53279e-05
-9.27795e-06
3.69123e-05
-3.99072e-08
-1.79035e-07
-1.20875e-05
-1.48442e-05
-5.23634e-07
-1.48341e-05
1.51291e-05
-4.74029e-07
9.00537e-06
-3.59269e-05
1.14272e-05
-1.7266e-05
1.72783e-05
-3.65919e-06
6.6656e-07
3.3411e-06
-3.48472e-07
5.78532e-06
3.71074e-06
-1.31553e-05
6.12494e-06
3.26943e-07
-4.14285e-06
-2.32799e-06
9.81194e-06
-4.8536e-06
3.62275e-07
4.59179e-06
-5.73465e-06
8.38873e-06
-4.64117e-06
-8.41242e-06
-8.30699e-07
1.38843e-05
-2.77647e-06
-4.6396e-06
2.7749e-06
-4.10975e-06
-7.07914e-06
8.32829e-06
3.73374e-07
-1.33413e-05
3.91299e-06
7.1902e-06
6.44082e-06
-1.01772e-05
9.52311e-06
-1.01046e-05
-4.0046e-06
3.55689e-06
1.05523e-05
4.99751e-06
5.21971e-07
-1.56241e-05
-4.13242e-06
5.12533e-06
1.19544e-05
-4.26061e-06
-1.18262e-05
4.53447e-07
1.66263e-05
7.91426e-06
-1.16529e-05
1.19246e-05
1.21885e-06
4.85201e-06
1.83042e-07
-6.2539e-06
5.06572e-06
-6.11008e-06
2.26321e-06
-4.22991e-06
1.41476e-05
-8.78841e-06
6.2333e-06
2.73816e-06
5.45136e-06
-2.04937e-05
4.16115e-06
-4.81987e-06
6.16454e-06
4.78276e-06
-5.80872e-06
-3.60553e-06
4.63149e-06
-1.37118e-05
3.95195e-06
1.45426e-05
4.44188e-07
-1.99647e-05
1.12114e-05
-4.66075e-06
-1.01562e-05
5.31788e-07
1.53111e-05
-8.68453e-06
1.31683e-05
-1.29011e-05
2.59049e-05
2.68334e-05
2.89653e-05
-8.17036e-05
3.71592e-06
-1.41826e-06
2.36073e-05
2.40712e-05
6.47807e-06
2.75343e-05
1.26547e-08
-2.19581e-05
7.30997e-05
2.12584e-06
2.999e-05
3.33844e-07
-6.96121e-07
-2.96278e-05
-3.801e-05
-3.665e-05
0.00010465
-3.60553e-05
-1.62084e-06
-3.64901e-05
-8.55984e-07
3.53468e-05
-0.000101465
-1.5645e-06
2.29414e-05
1.58707e-06
-2.36694e-05
-8.59055e-07
-1.6139e-05
-1.37012e-05
5.27815e-05
-1.64676e-05
1.9157e-06
1.88802e-05
1.03696e-05
-4.57175e-05
1.99994e-05
7.96511e-07
-1.82087e-05
2.4507e-05
-3.15085e-05
-2.37107e-05
-1.79464e-05
-1.74767e-05
5.91338e-05
4.79783e-07
-2.42338e-05
4.33241e-08
-1.77137e-05
2.47065e-07
1.85738e-05
1.04981e-05
-4.67856e-05
1.96174e-05
1.55815e-05
-2.93172e-05
1.77222e-05
8.92422e-06
9.61202e-06
9.98784e-06
-2.85241e-05
2.20977e-07
-2.32166e-07
8.93541e-06
1.14342e-05
-1.6012e-06
1.53882e-05
-1.6378e-05
7.57655e-07
-8.62987e-06
3.29535e-05
-9.69385e-06
1.24982e-05
-1.6084e-05
-1.58711e-06
9.37271e-06
3.24339e-07
-8.10994e-06
1.40507e-05
-1.21569e-05
-3.4809e-06
-7.23732e-06
3.06607e-05
-8.19861e-06
9.08071e-06
-5.57761e-07
5.22982e-06
-2.15384e-05
9.06926e-06
-1.59963e-05
1.09126e-05
-4.87801e-06
-2.14914e-06
9.56014e-07
6.07113e-06
7.78977e-07
4.96581e-07
-6.15356e-06
9.77183e-07
-2.34735e-06
-6.07864e-06
3.8184e-07
6.67398e-06
-3.56269e-06
-4.8633e-06
5.59912e-06
-8.66523e-06
6.93698e-06
2.32589e-06
-4.6206e-06
-1.14187e-06
3.43658e-06
-9.55469e-06
4.89465e-06
6.98593e-06
5.56762e-06
-1.97429e-05
1.03589e-05
-7.21028e-06
-4.29052e-06
-1.32133e-06
1.51168e-05
-6.92072e-06
1.0494e-05
-8.56338e-06
-2.34969e-06
8.4567e-07
-4.28927e-06
5.79329e-06
3.34726e-06
-2.59191e-06
-3.10504e-06
-4.47859e-06
8.67152e-06
-2.79766e-06
4.31677e-06
-4.11101e-06
3.68999e-06
-9.59269e-06
1.36316e-06
-2.15176e-06
1.39066e-06
-1.45955e-06
-9.4743e-06
1.14919e-07
1.08189e-05
-1.35129e-05
1.47575e-05
-2.70415e-06
8.72963e-06
-3.17168e-05
1.45773e-05
-1.35239e-05
-9.3848e-07
-4.08911e-06
2.94853e-05
-1.78836e-05
2.85519e-05
-2.26778e-05
7.02326e-06
-7.02705e-07
-8.10181e-06
1.78125e-06
-7.90312e-06
-6.416e-06
2.13424e-05
-1.43154e-06
-7.17429e-06
-5.82884e-06
8.88845e-06
-4.49115e-06
6.76655e-06
-1.97697e-05
-3.53821e-06
6.01066e-06
-4.87347e-06
5.87398e-06
5.195e-06
3.98544e-06
-1.50544e-05
-1.1112e-07
6.93888e-06
-9.53781e-07
5.25377e-06
-1.69888e-07
-6.24091e-06
-4.69236e-06
1.6187e-05
-7.01894e-06
6.08135e-07
-4.69757e-06
6.9441e-06
-7.73107e-06
-2.13371e-06
-1.2802e-06
5.75753e-07
2.83815e-06
7.73729e-07
-5.19758e-07
-2.38768e-06
-9.46525e-07
4.40061e-07
1.70809e-06
-8.74127e-07
-1.78049e-06
6.95599e-08
2.07859e-06
1.18929e-06
-2.58318e-06
1.83461e-06
7.71187e-06
2.07362e-06
-1.45879e-06
-8.3267e-06
-7.36344e-06
-7.88688e-06
2.29622e-05
-1.0356e-05
5.06616e-06
-8.39053e-06
9.34731e-06
-2.41558e-06
6.49238e-06
-2.32096e-05
-5.82231e-06
7.28273e-06
-9.6859e-06
-1.2409e-06
5.16932e-06
-7.70762e-06
3.7792e-06
7.18239e-06
-1.56557e-06
-6.85772e-06
-7.23866e-06
1.95904e-05
-5.52191e-06
1.13935e-05
-7.43721e-06
8.69454e-06
-2.10742e-05
-1.00442e-06
5.15931e-06
-1.75062e-08
1.96544e-05
1.21569e-05
8.6525e-06
-4.04639e-05
-1.11073e-06
1.71861e-05
3.57903e-06
1.22237e-05
-1.17748e-06
-1.41189e-05
-6.93325e-06
3.32758e-05
-1.076e-05
-4.53636e-06
-1.23505e-05
2.26033e-05
-1.44579e-05
1.10852e-05
3.51594e-07
-1.26232e-05
1.18635e-06
-1.11082e-05
-6.32554e-06
2.8519e-05
2.45293e-07
-1.10019e-05
-1.52203e-05
1.6015e-05
-5.49432e-07
1.40593e-05
-4.02815e-05
-9.65492e-06
1.93444e-05
-8.21878e-06
9.52207e-07
1.35329e-05
-1.25052e-05
-1.97989e-06
1.11731e-05
-1.10374e-05
8.16431e-07
-9.43062e-06
3.41367e-05
1.09939e-05
6.48773e-06
1.07437e-05
1.06665e-06
-5.98963e-06
7.30267e-06
-1.20071e-05
2.12129e-06
-9.22832e-07
5.2816e-06
-6.48007e-06
-3.83506e-06
2.20789e-06
3.74847e-06
5.63362e-06
-1.03915e-05
4.83845e-07
-4.59584e-06
6.31988e-06
-4.35577e-06
8.58808e-06
9.51018e-07
-2.5184e-08
1.9888e-06
-3.16441e-06
-2.43832e-06
2.61053e-06
2.99221e-06
9.17462e-07
5.58994e-06
-9.67181e-06
5.57214e-06
-7.093e-06
6.43638e-07
-6.02055e-06
7.98744e-06
-4.89302e-06
8.52886e-06
1.07889e-06
-1.5095e-06
1.75801e-06
-1.23463e-06
8.94251e-07
1.39331e-06
-1.05293e-06
2.7229e-06
-4.06945e-07
-3.55058e-06
6.31245e-07
2.9859e-06
-2.59583e-06
3.73939e-07
3.6152e-06
-3.02459e-07
-3.3463e-06
1.64568e-06
-2.35509e-06
2.65087e-06
-5.25609e-07
-7.05019e-07
7.00613e-07
5.30015e-07
-4.36054e-07
5.0569e-07
-5.95246e-07
1.00761e-06
-2.14869e-06
-4.75661e-07
-8.70571e-07
2.04684e-06
-5.64834e-07
6.19188e-07
1.1238e-07
-1.71525e-07
2.49423e-07
1.81092e-06
2.98617e-07
-1.98244e-06
-1.27099e-07
-1.70351e-06
-1.88667e-06
5.4011e-06
-2.89512e-06
1.49022e-06
2.00841e-06
1.95866e-06
-5.94951e-06
2.0833e-06
-2.01987e-07
-9.55506e-07
1.15214e-06
-1.89197e-06
1.17298e-05
-1.09484e-07
-1.1507e-05
-1.13348e-07
-1.39009e-05
-9.76012e-06
3.53908e-05
-1.37841e-05
-2.26207e-07
1.32417e-05
9.50711e-06
-3.42558e-05
1.36329e-05
-5.04573e-07
-8.05406e-06
1.19269e-05
-1.23311e-05
6.00193e-06
2.22233e-06
-3.02595e-06
-5.19831e-06
-3.12417e-06
-6.97531e-07
9.82363e-06
-3.34179e-06
2.43995e-06
7.30552e-06
6.98834e-07
-1.13461e-05
2.32643e-06
7.41904e-06
-4.46637e-06
6.09527e-06
-6.79348e-06
2.62754e-06
8.92286e-06
-3.16123e-06
-8.38917e-06
6.70758e-06
2.76685e-06
-6.84689e-06
-1.18479e-06
1.68152e-05
-1.34972e-05
5.61658e-06
1.06474e-05
1.40675e-06
-2.17508e-05
-6.22108e-06
1.06529e-05
-7.97556e-06
-9.36853e-06
-1.92849e-06
6.50634e-06
4.79067e-06
5.2532e-06
2.45333e-06
-1.70751e-05
-1.22372e-06
4.54844e-06
7.48621e-06
-8.02429e-06
-6.85646e-07
-2.73574e-06
1.47704e-05
8.54156e-06
-1.41125e-05
1.23122e-05
7.39875e-06
2.77597e-05
1.04721e-05
-4.56305e-05
1.23148e-06
-4.35075e-07
6.60234e-06
2.00987e-05
8.89243e-06
5.78056e-06
-5.61526e-06
-6.00376e-07
-2.24238e-06
1.46253e-05
5.93453e-06
-1.74825e-05
5.93269e-06
-1.26184e-05
1.63105e-05
-3.49865e-05
4.24668e-05
-4.19968e-05
5.80646e-06
-4.74147e-07
-1.44797e-05
3.49114e-05
1.35671e-06
9.39981e-06
-7.33317e-07
-1.0734e-05
2.06754e-06
-1.01301e-05
-5.16614e-06
2.46961e-05
-1.01301e-05
-7.3336e-07
1.63747e-05
8.83805e-06
-3.59468e-05
1.30765e-05
5.36577e-06
-1.04337e-05
1.8344e-05
-1.17257e-05
-1.14254e-05
-3.00099e-07
9.65707e-06
2.06839e-06
8.77126e-06
-3.19223e-05
7.7378e-06
-9.56294e-06
1.84382e-05
-1.88261e-05
1.87273e-06
1.1873e-05
5.08038e-06
1.32957e-05
3.17723e-06
-3.52991e-05
3.45317e-06
1.17153e-05
7.67721e-06
-5.88797e-06
1.66393e-06
-8.22923e-06
2.76217e-05
7.56061e-06
-1.02714e-05
1.12044e-05
-3.09818e-07
-4.31619e-06
-2.64493e-07
4.89051e-06
-3.36712e-06
4.84626e-06
-1.78896e-06
1.94545e-06
-9.62877e-06
5.3511e-06
-5.14482e-06
-4.70775e-07
-3.05779e-06
1.32994e-05
-3.50188e-06
5.29036e-06
-6.70125e-06
-1.42396e-06
-1.17651e-06
1.42391e-06
1.17656e-06
3.6556e-07
1.68108e-06
-3.47061e-06
2.14657e-06
-2.95752e-06
-1.8085e-07
-1.68177e-06
3.28653e-06
-1.92548e-06
2.92119e-06
3.13717e-07
-5.58116e-07
7.78518e-07
-1.4462e-06
-1.19083e-06
1.53029e-06
1.10674e-06
9.49047e-08
1.61412e-06
-3.15522e-06
1.42738e-06
-2.52331e-06
-2.07999e-07
-2.10919e-06
3.84748e-06
-2.07173e-06
2.97046e-06
-1.9489e-07
-2.62718e-07
-8.767e-07
3.92022e-06
-6.20487e-06
-3.03654e-06
5.3212e-06
-1.06489e-05
4.96707e-06
9.602e-06
3.33735e-06
-2.01911e-05
1.14317e-05
-7.11535e-06
-7.35287e-06
-1.31255e-06
1.80654e-05
-8.09657e-06
1.17511e-05
-1.18746e-05
-3.67652e-06
-4.75572e-06
-4.46782e-06
1.29001e-05
-1.34013e-06
-6.36243e-06
4.02604e-06
-5.13342e-06
-9.62436e-07
4.24695e-06
5.11592e-06
-1.44963e-05
6.26676e-06
-2.98225e-06
2.7704e-06
-4.0169e-06
4.56933e-06
1.3132e-06
-2.0966e-06
-1.38361e-06
2.16701e-06
-3.70708e-06
1.6991e-06
3.32118e-06
8.14971e-07
-6.61866e-06
4.15452e-06
-1.7565e-06
-3.78163e-06
-6.01215e-08
6.38165e-06
-3.65641e-06
5.29539e-06
-4.59794e-06
-9.38988e-06
-7.52351e-06
-6.22262e-06
2.3136e-05
-5.78864e-07
-1.11105e-05
2.29951e-06
-7.65239e-06
-4.49989e-07
8.07993e-06
7.3116e-06
-2.30439e-05
9.82642e-06
-2.19648e-06
7.64072e-06
-1.14396e-05
1.12445e-05
-9.73481e-06
-1.38287e-05
-7.10853e-06
3.0672e-05
3.68663e-08
-9.30098e-06
-4.70696e-07
-1.30152e-05
-7.76603e-07
2.33107e-05
2.34533e-05
-5.97792e-05
2.37172e-05
-1.1831e-06
-3.79531e-06
2.04039e-05
1.03571e-05
1.20211e-06
1.67949e-05
-1.01174e-05
-7.87963e-06
1.32464e-05
-1.2218e-05
1.73714e-07
-3.54217e-06
3.35834e-05
1.77977e-05
4.46645e-06
-3.44822e-05
1.59561e-05
2.01534e-06
1.69329e-05
-2.25838e-05
2.93468e-05
-2.4327e-06
-1.62456e-06
-5.39609e-07
4.59687e-06
5.25673e-07
-1.36382e-06
-1.59455e-06
-1.55298e-06
4.54088e-07
2.69588e-06
6.69706e-07
-4.91856e-06
1.60276e-06
1.54721e-06
1.77545e-06
-2.46957e-06
2.8386e-06
-2.70569e-06
-1.4873e-06
-7.58772e-07
4.95176e-06
5.41307e-07
-1.49675e-06
-1.75025e-06
-1.48557e-06
5.39572e-07
2.2099e-06
5.27261e-07
-4.22272e-06
1.25539e-06
1.49407e-06
1.50438e-06
-2.47387e-06
2.00101e-06
5.06379e-06
8.83716e-09
-5.15779e-06
8.51617e-08
-4.97284e-06
-5.38179e-06
1.54184e-05
-6.02527e-06
1.06127e-06
3.63058e-06
4.15332e-06
-1.29417e-05
4.03549e-06
-3.19751e-07
3.38946e-07
-1.68525e-06
-1.533e-06
-2.17214e-06
-1.11343e-05
7.28447e-06
6.02198e-06
-6.70443e-06
7.52374e-06
-2.99145e-06
9.89493e-07
-1.88282e-05
-1.3102e-05
-1.62332e-06
2.22491e-05
-6.34956e-06
-9.74393e-06
-9.97819e-06
1.56393e-05
-1.53383e-05
-1.25114e-06
4.11308e-06
6.23887e-06
-9.10081e-06
7.58293e-06
5.47409e-06
-1.43082e-05
3.9747e-06
7.72131e-06
1.58845e-06
-1.0768e-05
1.31543e-05
-1.2635e-05
2.19448e-05
-7.6367e-07
-4.53027e-06
-7.15979e-06
-1.04248e-05
-5.0718e-06
-2.0493e-06
1.75459e-05
7.00614e-07
-9.45378e-07
-1.01801e-05
-2.76259e-07
-4.09492e-06
-1.04958e-05
4.51872e-06
5.70078e-06
-2.82426e-07
-1.43083e-05
6.92725e-06
-8.15506e-06
9.39667e-06
6.76748e-07
6.73232e-06
-6.77982e-06
-6.29245e-07
3.74991e-06
-4.12152e-06
1.04836e-06
-2.12338e-06
1.26056e-05
7.04275e-06
2.38163e-06
-1.35459e-05
5.09325e-06
2.99786e-06
-8.11331e-06
1.10832e-05
-1.25115e-05
-5.26898e-06
-2.7766e-06
-9.77269e-07
9.02285e-06
1.92968e-06
-3.19004e-06
-4.00863e-06
2.29973e-06
-3.14664e-06
-6.73392e-06
2.51224e-06
6.5214e-06
1.76824e-06
-1.16488e-05
3.22704e-06
-4.64884e-06
4.76202e-06
-2.53541e-07
1.66882e-05
-2.55467e-07
-1.61792e-05
1.15504e-05
-5.67792e-06
-6.12604e-06
-6.51862e-06
3.47572e-05
-2.34547e-05
2.29953e-05
2.03867e-07
7.91948e-06
-4.75533e-05
1.23429e-05
-1.01013e-05
2.88196e-05
8.04236e-08
-1.6975e-05
2.8925e-08
1.68657e-05
-2.24146e-05
2.07949e-05
1.70005e-06
1.02687e-05
-4.96583e-05
2.40674e-05
-2.34046e-05
-6.33854e-07
-1.14765e-05
5.24095e-05
-2.32219e-05
3.25404e-05
-3.63578e-05
5.48984e-07
-1.70343e-06
-8.27595e-07
1.98204e-06
-1.21493e-07
-1.06793e-06
1.7384e-06
-6.42637e-07
-1.18228e-06
9.21958e-07
-3.48378e-07
-1.40117e-06
4.93672e-07
2.41032e-06
2.06763e-06
-2.64189e-06
1.07662e-06
-1.29716e-05
-2.75415e-07
1.3818e-05
-5.71028e-07
1.20827e-05
8.93778e-06
-3.39921e-05
-5.29891e-07
1.23372e-05
1.69249e-05
-1.69678e-05
-4.8705e-07
-9.79664e-06
3.90588e-05
1.23911e-05
-2.04211e-05
1.64125e-05
2.41128e-07
-1.88785e-05
1.94323e-05
-7.94968e-07
-1.52782e-05
1.53529e-05
1.66371e-07
1.15138e-05
-4.56704e-05
-1.90861e-05
-1.16285e-05
4.60675e-05
-1.94292e-05
5.09487e-07
-1.5593e-05
2.33969e-05
-2.35084e-05
-2.89757e-06
-2.81973e-06
7.73841e-08
5.63992e-06
1.16493e-06
-1.61944e-06
-2.44306e-06
-2.76751e-06
1.1127e-06
2.61327e-06
-3.28793e-06
-2.09285e-06
-7.42853e-07
4.46882e-06
3.06586e-06
-7.97322e-06
2.40039e-06
-2.73677e-06
-4.14602e-06
-6.86494e-06
1.37477e-05
-1.62503e-06
-6.08593e-06
4.97419e-06
-2.14011e-06
-3.63093e-06
-2.8131e-06
9.28498e-06
-8.612e-06
7.73291e-06
-1.41769e-05
1.22953e-06
4.17451e-07
3.64957e-06
-1.37273e-05
-5.88613e-06
5.117e-06
1.44964e-05
7.23817e-06
-1.51094e-07
-2.08143e-05
-5.5617e-06
6.91374e-06
1.25395e-05
-8.71572e-06
-9.38553e-06
-4.29732e-06
2.37506e-05
6.76539e-06
-1.56322e-05
7.58508e-06
-8.67522e-06
4.38064e-07
8.73161e-06
-4.94451e-07
7.05771e-06
4.11137e-06
-1.98443e-05
7.44179e-06
5.39907e-08
-1.47383e-05
-1.11537e-05
3.46236e-05
-1.40045e-05
-1.22822e-06
5.86551e-06
-1.57587e-05
2.15359e-06
-5.58223e-07
1.25119e-05
-1.18997e-05
1.05447e-05
-1.03397e-05
-7.63236e-07
2.52102e-05
1.20983e-05
-4.38423e-05
-1.40001e-05
1.50584e-05
-8.01616e-07
-1.35827e-05
-6.74153e-07
-1.12779e-05
-4.38577e-06
3.07221e-05
-1.06534e-05
-1.42606e-06
2.70036e-05
2.18944e-05
-6.24806e-05
2.7188e-05
-8.58543e-07
-1.16973e-05
3.44995e-05
-4.56299e-07
1.51722e-05
-2.58126e-06
-1.4017e-05
-1.38849e-05
-1.32648e-05
1.62008e-05
-5.51721e-06
-2.77381e-05
3.68153e-05
-3.45257e-05
-1.0858e-05
-1.97933e-05
6.51771e-05
9.71671e-07
-3.07256e-05
-4.77185e-06
5.32017e-05
-6.35234e-05
6.40805e-05
-1.43042e-06
7.31998e-07
1.36364e-06
-6.65216e-07
2.16359e-06
5.05119e-07
-4.09913e-06
1.11021e-06
1.78538e-06
-2.63577e-06
-6.63701e-07
4.66311e-06
-1.40163e-06
-1.89936e-06
1.25891e-06
-2.15542e-06
1.70541e-06
-1.54684e-06
1.44917e-06
-1.47904e-06
1.57671e-06
5.14932e-06
-4.38102e-06
-2.31514e-06
-1.02662e-06
7.62511e-06
2.46414e-06
9.41008e-07
-4.88419e-06
7.7291e-07
3.26794e-06
3.25486e-06
-6.69488e-06
3.00115e-06
4.71338e-06
-1.85078e-08
-4.85118e-06
1.56313e-07
-5.2995e-06
-3.0811e-06
1.3094e-05
-6.0685e-06
7.50491e-07
6.99867e-06
4.54541e-06
-1.63953e-05
7.07401e-06
8.09652e-08
-5.78381e-06
9.77672e-06
-7.3069e-06
-4.17493e-06
-5.49653e-06
-2.16361e-06
1.18351e-05
-6.52665e-07
8.44845e-07
-4.36711e-06
-5.3987e-06
-7.31769e-06
6.01607e-06
2.14646e-06
3.55501e-06
-1.52398e-05
5.77922e-06
-7.62291e-06
9.63168e-06
6.77976e-08
-4.1249e-06
3.98429e-06
7.28144e-08
-4.23421e-06
-1.41393e-07
4.4434e-06
2.40724e-06
-1.07663e-05
5.53459e-06
-3.61269e-06
-2.0633e-06
-2.97798e-06
1.2956e-05
3.19701e-06
-4.40246e-06
4.20332e-06
-1.85443e-06
1.57248e-06
-4.40493e-06
4.68687e-06
2.94607e-06
-1.02998e-06
-3.77051e-06
-3.75994e-06
8.27849e-06
-3.73765e-06
5.18357e-06
-2.47591e-06
5.37069e-06
-1.28789e-05
-8.72775e-07
2.29641e-06
9.29909e-08
6.28341e-06
-4.47089e-06
-7.99949e-06
6.18697e-06
-1.35069e-05
2.53159e-06
1.72588e-05
-3.77272e-06
-1.42051e-05
1.59674e-05
1.61628e-06
-2.55832e-05
5.70691e-06
1.64474e-05
-1.18392e-05
2.00777e-05
-1.39956e-05
-3.72325e-06
4.90717e-06
8.98447e-06
-1.01684e-05
9.66055e-06
8.37997e-06
-2.17638e-05
3.83487e-06
1.07328e-05
6.07972e-06
-1.00313e-05
7.78646e-06
-8.78258e-06
2.55951e-05
3.06433e-06
-4.71567e-06
3.26622e-06
-1.61076e-07
-8.41832e-06
1.09961e-08
8.5684e-06
-9.97389e-06
1.13968e-05
-1.584e-06
8.87914e-06
-2.72714e-05
9.29054e-06
-9.76173e-06
4.82188e-07
-5.88912e-06
2.37481e-05
-6.27526e-06
1.1783e-05
-7.15785e-06
1.48332e-05
-1.43331e-05
-1.79235e-08
-1.66081e-05
5.51894e-05
1.23618e-05
-3.38528e-05
1.31706e-05
-8.26695e-07
8.34542e-06
6.77944e-06
2.29063e-06
-1.25003e-06
-7.82003e-06
-3.45187e-06
3.00485e-07
9.93082e-06
-2.97573e-06
1.81449e-06
5.66239e-06
-2.45023e-06
-6.18789e-06
1.14716e-06
6.32973e-06
-5.33539e-06
6.78303e-06
-9.03565e-06
-8.7183e-06
1.97481e-07
7.46251e-06
1.05831e-06
6.71363e-06
4.48202e-06
-1.9914e-05
-2.62894e-07
7.174e-06
1.0376e-05
-7.4348e-06
-3.20405e-06
-3.25832e-06
2.08083e-05
7.41621e-06
-1.0369e-05
1.16204e-05
-1.0164e-07
-1.96528e-06
-4.04033e-06
6.10725e-06
-2.58381e-06
-4.00806e-06
6.49024e-06
-1.84624e-06
-2.70285e-06
-1.39587e-06
3.18029e-06
-3.63066e-06
2.47353e-06
-6.57226e-06
4.29161e-07
-1.25693e-06
-1.13764e-06
2.1042e-06
-1.78298e-05
1.71176e-05
-1.39206e-06
-2.20191e-05
2.15574e-05
2.56584e-06
1.54397e-05
-5.52885e-05
-2.06772e-05
-1.5196e-05
5.29908e-05
-2.11443e-05
-9.24917e-07
-1.09008e-05
1.72623e-05
-1.66055e-05
2.62809e-06
1.20754e-06
3.04614e-07
-4.14025e-06
-1.15435e-06
1.34135e-06
2.44109e-06
1.13664e-06
-1.08345e-06
-2.85742e-06
2.95894e-08
3.96448e-06
-1.08128e-06
-2.85959e-06
-2.24982e-06
3.62075e-06
-3.02649e-06
-1.55514e-05
-1.51883e-05
-1.08497e-05
4.15894e-05
-3.86845e-07
-1.28029e-05
-2.36166e-06
-1.50615e-05
-5.1363e-07
1.75453e-05
9.64652e-06
-4.22533e-05
1.73904e-05
-3.58695e-07
1.04326e-05
-1.3589e-05
1.69733e-05
1.47647e-05
5.59194e-07
-1.47816e-05
-5.42316e-07
-1.58927e-05
-1.20981e-05
4.27555e-05
-1.73424e-05
2.00896e-06
1.65235e-05
1.38964e-05
-4.52015e-05
1.82246e-05
-2.24343e-06
-9.59929e-06
1.57258e-05
-1.30453e-05
-6.26907e-06
-2.30974e-06
2.28182e-06
6.29699e-06
3.09673e-06
-2.06586e-06
-7.29994e-06
-3.03724e-06
3.82423e-06
7.6292e-06
3.82689e-07
-1.10491e-05
-7.07132e-08
1.15241e-05
4.188e-06
-5.87117e-06
6.3991e-06
1.1382e-07
-1.57464e-06
4.96694e-07
9.64124e-07
-2.45625e-06
3.09494e-07
2.26057e-06
-1.70887e-06
-2.32202e-06
-1.1801e-06
2.74908e-07
1.40189e-06
6.04731e-07
-8.20708e-07
-1.74612e-06
2.66035e-06
-3.18008e-06
-6.78551e-06
7.65417e-07
6.40277e-06
-3.82682e-07
6.17241e-06
4.2764e-06
-1.72343e-05
6.07266e-06
8.65169e-07
-1.19897e-05
-8.58756e-06
2.698e-05
-1.29589e-05
5.86528e-07
4.88314e-06
-1.35656e-05
2.36824e-06
1.06673e-06
1.03165e-05
-1.05181e-05
8.74198e-06
-8.65e-06
9.74754e-07
2.14267e-05
1.47863e-05
-4.25387e-05
-7.4293e-06
-2.31825e-07
5.34448e-06
6.56321e-07
-5.76898e-06
7.3502e-06
-8.40574e-06
8.23719e-07
-3.5012e-06
1.61959e-05
-7.61612e-06
6.70125e-06
1.57119e-06
5.16767e-06
-1.85528e-05
6.84088e-06
-1.00789e-05
1.00409e-05
-5.42092e-06
5.95231e-07
5.0542e-06
-2.28509e-07
6.28995e-06
4.76939e-06
-1.64803e-05
5.78691e-06
1.09827e-06
-6.75386e-06
-4.24349e-06
1.60515e-05
-5.91901e-06
-1.06336e-06
3.28818e-06
-4.4378e-06
4.8316e-06
-9.3742e-07
-3.87987e-07
1.03656e-06
2.88847e-07
5.99229e-07
1.51618e-06
-3.05283e-06
1.44858e-06
-1.23734e-06
-7.94108e-07
-1.25682e-06
3.08749e-06
-1.58811e-06
1.08285e-06
4.1189e-07
-4.83823e-07
6.03653e-07
-4.64359e-07
2.89563e-06
-2.82612e-06
3.94846e-07
4.80269e-06
-3.68265e-06
-1.5844e-06
-3.95071e-06
-5.51706e-06
1.94149e-06
-8.45027e-06
-4.3173e-06
7.61431e-07
-7.89286e-06
-8.21904e-07
-1.53834e-06
-2.09779e-07
2.57002e-06
-1.00491e-07
-8.71049e-07
1.49635e-07
-6.32029e-08
-1.57562e-06
1.28226e-06
-2.90505e-06
7.51739e-07
-3.27391e-06
4.34639e-06
-2.57567e-06
-7.05635e-06
-2.13496e-06
-3.77755e-06
-3.04108e-06
1.05576e-06
-6.0669e-06
-1.23818e-05
-1.02097e-05
-1.04998e-05
3.30914e-05
-3.72636e-07
-1.29876e-05
9.78444e-07
-1.00212e-05
-5.61195e-07
9.74194e-06
7.65533e-06
-2.74185e-05
1.06543e-05
-1.47358e-06
5.4965e-06
-1.08288e-05
5.65099e-06
8.72142e-06
-4.54686e-08
-9.40383e-06
7.2788e-07
-6.77664e-06
-5.73576e-06
2.12338e-05
6.45128e-08
-6.88662e-06
-8.5422e-06
8.60891e-06
-2.19918e-09
5.80824e-06
-2.12371e-05
-6.48031e-06
9.35345e-06
-1.00759e-05
-7.65427e-07
4.65093e-06
9.54278e-07
-4.83979e-06
6.9011e-06
-5.74502e-06
-1.92151e-06
-2.86223e-06
1.44143e-05
-6.9747e-06
5.26952e-06
2.65946e-06
3.11776e-06
-1.49322e-05
5.10515e-06
-7.73241e-06
7.51244e-06
-7.29395e-07
3.64259e-06
-5.37027e-06
2.45708e-06
4.1592e-06
-7.37353e-07
-4.15124e-06
-4.57197e-06
1.23738e-05
-3.90274e-06
5.28322e-06
-2.11784e-06
4.554e-06
-1.2608e-05
-1.55142e-06
2.26268e-06
-2.3677e-06
4.88235e-06
1.90697e-06
-3.13917e-06
-3.65016e-06
-1.87601e-06
5.26217e-07
6.23214e-06
3.12362e-06
-3.09266e-06
-8.89708e-06
2.85185e-06
9.16885e-06
1.17802e-06
-1.31677e-05
-6.05987e-06
9.43794e-06
-8.02102e-06
3.72148e-06
-7.35585e-07
-3.99019e-06
1.0043e-06
-1.41417e-06
2.56273e-06
2.57292e-06
-1.44775e-07
-2.00498e-06
7.64791e-07
-3.07096e-06
-1.68402e-06
-2.75119e-06
4.52028e-06
-9.14143e-07
7.2569e-07
-4.12988e-06
1.75291e-05
5.4665e-06
-6.71225e-06
-1.62833e-05
-1.04416e-05
-2.43969e-06
3.04104e-05
4.21766e-06
-9.19279e-06
-1.34058e-05
9.58289e-06
8.04052e-06
-5.81973e-07
-2.20166e-05
-1.28299e-05
1.99731e-05
-2.01241e-05
1.19871e-05
5.876e-06
9.14608e-07
-1.87777e-05
-2.55957e-06
5.61856e-06
8.92814e-06
5.42308e-06
-2.10665e-06
-9.1435e-06
-1.19706e-06
1.57636e-05
-4.74353e-06
-6.50663e-06
-8.24034e-06
1.26618e-05
-1.20693e-05
-6.56016e-06
-7.59006e-07
4.90959e-06
2.40958e-06
4.99527e-06
4.27476e-06
-1.58302e-05
2.55086e-07
3.98117e-06
4.92011e-06
-6.04523e-06
1.3802e-06
-3.84839e-06
1.27497e-05
4.03664e-06
-5.80711e-06
5.09784e-06
1.74125e-05
-4.2135e-07
-1.81771e-05
1.18588e-06
-1.93816e-05
-1.60496e-05
5.28437e-05
-2.19094e-05
2.10647e-06
1.76994e-05
1.65366e-05
-5.24131e-05
2.13777e-05
-2.49238e-06
-9.29081e-06
1.46189e-05
-1.46636e-05
-1.08455e-05
2.27293e-07
1.07771e-05
-1.58814e-07
2.40205e-05
7.09868e-06
-4.19647e-05
2.39792e-05
2.68577e-07
-3.97972e-05
-3.44981e-05
9.82745e-05
-3.85012e-05
-1.02738e-06
-6.65576e-06
-1.70653e-05
-3.80583e-05
1.08347e-05
-1.84824e-07
-1.0831e-05
1.81026e-07
-1.95361e-05
-6.726e-06
3.70969e-05
-1.89115e-05
-8.09415e-07
7.24602e-06
-3.88512e-05
2.07742e-05
-3.89765e-05
3.94966e-05
3.83861e-05
-9.61488e-05
-1.39983e-06
1.63048e-05
3.84593e-05
-9.67288e-05
-9.19329e-07
-5.18342e-07
-3.05053e-06
7.63857e-07
3.54397e-06
-1.25729e-06
4.75808e-06
-2.39922e-07
-7.56869e-06
5.75306e-06
-2.31123e-07
-2.49524e-06
-7.24803e-07
6.76402e-06
1.60469e-06
-5.35723e-06
1.9503e-06
-5.8553e-07
6.97856e-06
-1.33684e-05
-1.34762e-05
-8.74038e-06
3.5585e-05
-9.27516e-08
-1.36007e-05
3.25006e-07
-1.34373e-05
-1.31695e-07
1.8003e-05
1.36654e-05
-4.51057e-05
1.8546e-05
-6.7474e-07
9.58828e-06
-9.52351e-06
1.93939e-05
1.66705e-05
2.0116e-05
1.24476e-05
-4.92341e-05
6.78139e-07
1.70733e-05
-1.08091e-06
1.98904e-05
9.03722e-07
-1.96402e-05
-1.26601e-05
4.93736e-05
-1.96516e-05
-1.06942e-06
1.3604e-05
-2.08081e-05
2.08343e-05
1.45928e-05
1.78068e-05
9.72357e-06
-4.21232e-05
5.14113e-08
-2.792e-07
1.48206e-05
1.69463e-05
9.11959e-07
1.87896e-05
-1.7452e-05
-1.6168e-06
-1.10194e-05
4.46295e-05
-1.33646e-05
1.92915e-05
-2.1093e-05
-6.82521e-06
3.60397e-06
6.48437e-06
-3.26313e-06
1.06802e-05
-1.4689e-07
-1.73585e-05
4.71281e-06
9.57137e-06
-1.12382e-05
-3.05712e-07
1.80283e-05
-5.89149e-06
-8.60982e-06
8.5964e-06
-1.46348e-05
1.30035e-05
-4.67436e-06
-1.13105e-05
-2.79885e-06
1.87837e-05
-6.55859e-07
-4.79672e-06
7.78218e-07
-1.31699e-05
1.20355e-06
-5.64476e-06
-1.86426e-05
2.14885e-05
-1.87446e-05
8.30311e-06
2.7966e-05
-5.98805e-05
1.05269e-05
7.51701e-06
1.56431e-06
-1.6238e-05
6.81484e-06
-5.14286e-06
-3.79594e-06
-2.47237e-06
1.14112e-05
9.48877e-08
-4.37863e-06