/*--------------------------------*- C++ -*----------------------------------*\
| =========                 |                                                 |
| \\      /  F ield         | OpenFOAM: The Open Source CFD Toolbox           |
|  \\    /   O peration     | Version:  v2012                                 |
|   \\  /    A nd           | Website:  www.openfoam.com                      |
|    \\/     M anipulation  |                                                 |
\*---------------------------------------------------------------------------*/
FoamFile
{
    version     2.0;
    format      ascii;
    class       volVectorField;
    location    "0.35";
    object      U;
}
// * * * * * * * * * * * * * * * * * * * * * * * * * * * * * * * * * * * * * //

dimensions      [0 1 -1 0 0 0 0];


internalField   nonuniform List<vector> 
24700
(
(0.0186041 -1.74936 0.0188935)
(-0.00735969 -1.69577 0.0105344)
(-0.00540447 -1.6434 0.00198105)
(0.0732087 -1.44478 -0.0172206)
(0.032401 -1.55933 -0.0384277)
(0.0802245 -1.51185 -0.0563652)
(0.0577047 -1.56328 -0.0484508)
(-0.010495 -1.48953 0.00478562)
(0.0811658 -0.896483 -0.0189537)
(0.025847 -1.39629 -0.0230895)
(-0.0025554 -1.46788 -0.0218954)
(-0.00358182 -1.49904 0.00444409)
(-2.07986e-05 -1.48518 -0.0208827)
(0.00418579 -1.47107 -0.0191956)
(0.00589603 -1.48449 0.00346837)
(-0.00164806 -1.49527 0.000573915)
(-0.00221581 -1.48959 -0.016457)
(-0.00466199 -1.57106 0.0179209)
(0.0329073 -1.54375 0.0210903)
(0.00210559 -1.67318 0.0959765)
(0.0437519 -1.45206 0.00385306)
(0.00870209 -1.4975 -0.00075449)
(0.0250161 -1.44538 0.00845655)
(0.00404952 -1.57527 0.0533582)
(0.0519787 -1.43801 -0.0020925)
(0.00753831 -1.51471 -0.00579081)
(0.0465186 -1.20848 -0.00203445)
(-0.0112591 -1.50032 0.0102706)
(-0.0266245 -1.50388 -0.030854)
(0.0678496 3.62987 -1.11385)
(0.0520945 3.75759 -1.03468)
(0.0186158 3.54671 -1.04263)
(0.0310646 3.81167 -1.25057)
(0.010587 3.85297 -1.14664)
(0.127756 3.38959 -1.08604)
(0.0300768 3.49744 -1.01318)
(-0.0641099 1.67663 0.648739)
(0.102271 1.32657 0.519125)
(0.0683773 1.33893 0.00356833)
(-0.061773 1.51033 0.100663)
(-0.220467 1.66129 0.186723)
(-0.125799 1.73994 0.579951)
(-0.295821 2.03377 0.631007)
(0.0050273 -0.27671 -0.0676434)
(0.0331274 -0.490201 0.0290052)
(0.0502104 -0.673519 0.0906554)
(-0.00484499 -0.341292 0.0156833)
(0.00272224 -0.219011 -0.00261494)
(0.0282823 -0.395282 0.0122178)
(0.0286555 -0.608079 0.0507571)
(-0.00267725 -0.0299777 0.264712)
(0.00667204 -0.0693299 0.361906)
(-0.0561555 0.0324207 0.128942)
(0.0258632 0.0150361 0.327792)
(0.0094695 0.0470583 0.269693)
(0.0352959 -0.000101837 0.263339)
(-0.00185974 0.0424004 0.149154)
(0.153454 -2.11699 0.332691)
(0.225341 -2.56268 1.86562)
(0.947711 -2.02158 -0.900129)
(0.27244 -1.71444 -0.723607)
(-0.743365 -1.40177 -0.286754)
(0.712521 -1.7346 -0.782293)
(-0.690976 -1.51002 -0.794118)
(0.0128409 -0.20656 -0.116506)
(-0.0908748 -0.183699 -0.042336)
(0.14234 -0.172871 0.145261)
(0.0163321 -0.197011 0.0252369)
(-0.0258822 -0.21629 -0.104173)
(-0.00714958 -0.0128314 -0.0572995)
(0.275759 -0.0698951 0.0971814)
(-0.067238 -0.00158669 0.0219674)
(0.00330953 0.111172 -0.0175254)
(0.0207197 0.148518 -0.0540906)
(0.0941325 -0.049678 0.0823116)
(0.0668597 0.0487949 0.122079)
(0.101041 -0.0552777 -0.0666235)
(0.161014 -0.133229 0.0406556)
(-0.0112495 -1.41809 -0.0773072)
(-0.0275859 -1.04001 0.0127666)
(-0.0250338 -1.48041 -0.0630718)
(-0.0853758 -1.56755 -0.0338749)
(0.0843067 -1.28583 -0.127269)
(-0.0390893 -1.5073 -0.121007)
(-0.0534661 -1.52803 -0.0896479)
(0.0179014 -0.111398 -0.177614)
(0.0476755 -0.352063 -0.0165747)
(-0.0103127 -0.543702 0.0670479)
(-0.0723412 -0.34562 -0.113781)
(0.0413043 -0.237892 -0.114369)
(0.00936413 -0.39708 -0.0528847)
(-0.0655804 -0.55577 0.030196)
(-0.000236842 0.0498082 0.11525)
(0.0251347 0.0198083 0.0823558)
(0.0028388 0.083293 0.108944)
(-0.024331 0.0969697 0.0403218)
(-0.0124194 0.098168 0.0617336)
(-0.00913276 0.0501294 0.0325354)
(-0.00929758 0.0737241 0.0845693)
(0.0477323 0.389694 -0.0823717)
(-0.0881837 0.322913 -0.173824)
(0.0962428 0.223951 -0.240432)
(0.122635 0.0675239 -0.447138)
(-0.140039 0.0642576 -0.295511)
(-0.0698716 0.165944 -0.402029)
(0.13904 0.137347 -0.509013)
(0.011473 1.42816 0.288368)
(0.0338497 1.38949 0.232726)
(0.0140066 1.54322 0.104109)
(-0.00456098 1.56977 0.219927)
(-0.0716961 1.58748 0.330127)
(0.0538371 1.37177 0.196176)
(0.00574456 1.34942 0.234666)
(-0.0582609 2.49891 -0.0919439)
(-0.026137 2.70916 0.0654989)
(0.0132572 2.73241 0.158277)
(-0.00512201 2.55483 0.0985883)
(0.0057754 2.4638 0.0187139)
(0.000844685 2.38284 -0.008268)
(-0.00866235 2.52971 0.0628117)
(0.0331779 2.13879 -0.000717509)
(0.0782365 2.63582 0.0549879)
(0.0157396 2.67241 0.0550078)
(-0.0685026 2.0835 0.938509)
(-0.0452251 1.94926 1.20967)
(0.031938 2.19781 1.26409)
(0.157048 1.88031 0.455057)
(0.0134614 1.98572 0.44392)
(0.103447 1.48984 0.537841)
(0.0194942 1.8805 0.356175)
(0.121646 1.4598 0.609104)
(0.239953 1.14589 0.904656)
(0.202072 1.58194 1.0576)
(0.0121796 1.74803 0.999161)
(-0.177404 2.21353 0.680824)
(-0.0272646 0.194203 -0.475242)
(-0.00455985 0.284753 -0.429162)
(0.0207153 0.108262 -0.407858)
(0.0183491 0.200259 -0.393412)
(-0.0156794 0.272788 -0.433233)
(-0.0188781 0.201829 -0.456436)
(0.00958595 0.110372 -0.389931)
(-0.00175441 0.0916002 0.0372865)
(0.00682125 0.0997896 -0.0157892)
(0.0309193 0.0947735 -0.0410067)
(-0.00844696 0.047832 -0.00167969)
(-0.0192163 0.0584765 0.0155758)
(0.00465431 0.0828527 -0.0197909)
(0.0295458 0.0648815 -0.0406781)
(-0.0259279 -0.651267 0.0656121)
(-0.0277925 -0.4596 0.017971)
(-0.00693888 -0.214802 -0.0778443)
(-0.0154479 -0.172068 0.00283082)
(-0.000127602 -0.292814 0.0113905)
(-0.0240412 -0.36754 0.00711372)
(-0.000146763 -0.591631 0.0269333)
(0.0456682 0.484647 -0.833335)
(-0.00781357 0.653978 -0.850879)
(-0.00839285 0.663063 -0.986714)
(0.0249726 0.519131 -0.953087)
(0.000940969 0.647648 -0.97684)
(0.0187259 0.629848 -0.889721)
(0.065178 0.437563 -0.845036)
(-0.0464133 -0.0607611 -0.611964)
(-0.140377 0.161798 -0.60645)
(-0.03073 0.202799 -0.614347)
(0.131529 -0.123987 -0.359497)
(0.0442362 -0.233387 -0.435986)
(0.0393608 0.0947659 -0.42554)
(0.223853 0.148794 -0.473625)
(0.00741476 -0.224521 0.33668)
(-0.0508901 -0.262153 0.479129)
(-0.0253593 -0.427074 0.507965)
(0.0117727 -0.515878 0.393454)
(-0.032513 -0.385594 0.339711)
(-0.0576584 -0.354565 0.370608)
(-0.0543877 -0.671412 0.523031)
(0.0103226 -0.372861 1.89057)
(0.0329009 -0.267955 1.94271)
(-0.0403001 -0.121944 2.00487)
(0.0976679 -0.122596 1.59928)
(-0.204899 -0.258911 1.60329)
(0.0518211 -0.346064 1.83745)
(0.0118411 -0.461613 1.93996)
(0.0100576 -0.000101534 1.0147)
(0.0265709 -0.125323 0.972639)
(-0.0193061 -0.216309 1.0935)
(-0.00416536 -0.108008 1.22774)
(0.0387583 0.0654001 1.31361)
(0.0425163 -0.0690133 1.0833)
(0.0412708 0.0333294 1.17471)
(0.101604 -0.0787588 -0.0859184)
(-0.0268373 -0.0499771 -0.0964591)
(-0.0150684 -0.19272 -0.191274)
(-0.100781 -0.182814 -0.0403066)
(-0.0142137 -0.233037 -0.0859493)
(-0.145982 -0.156738 -0.0486798)
(-0.019339 -0.159528 -0.0580761)
(0.00184261 -0.234305 -0.068681)
(-0.00594876 -0.06114 -0.0251698)
(-0.0132446 -0.200294 -0.0954124)
(-0.00289503 -0.178 0.0134072)
(0.0222643 -0.235972 0.027522)
(0.022528 -0.205693 0.023267)
(0.00697252 -0.170329 -0.0327795)
(0.00587366 -1.98314 0.00811293)
(-0.00761892 -1.97324 0.0356547)
(0.00838249 -1.99138 -0.0185966)
(0.00458562 -1.96869 0.0281779)
(-0.00677768 -1.93049 -0.00822465)
(0.00202531 -1.9574 -0.0164791)
(0.00740185 -1.95984 0.0146216)
(0.00715951 -0.545168 0.119445)
(0.00870514 -0.658097 -0.0328679)
(0.0293724 -0.704205 -0.00521305)
(-0.017587 -0.582157 0.0158009)
(-0.0295683 -0.609194 -0.0306445)
(0.00121606 -0.655757 -0.0405809)
(0.0180737 -0.67047 -0.0281269)
(-0.0135975 -0.735237 -0.380837)
(0.00120909 -0.743812 -0.41271)
(-0.0518704 -0.696517 -0.36158)
(-0.0285855 -0.695938 -0.317057)
(0.0256197 -0.75846 -0.367456)
(-0.0903942 -0.724106 -0.366725)
(-0.0457167 -0.752801 -0.375626)
(0.0070164 0.572836 -0.815932)
(0.00425015 0.465978 -0.855124)
(7.39065e-05 0.703306 -0.778602)
(-0.00741885 0.639425 -0.972324)
(-0.0123306 0.700222 -0.899625)
(-0.000940644 0.613197 -0.976158)
(-0.00127657 0.659335 -0.926751)
(-0.00771278 0.0390719 -0.75164)
(0.148027 -0.0443143 -0.752809)
(0.0674716 -0.0343923 -0.71538)
(-0.064267 0.152909 -1.05879)
(0.0387925 0.14095 -1.17376)
(0.185321 0.076502 -0.990229)
(0.0992378 0.0946163 -0.914306)
(-0.00381881 0.667093 0.678908)
(0.014245 0.930733 0.763315)
(0.0360683 1.13729 0.764557)
(0.0120338 1.00139 0.536633)
(0.0158114 0.855285 0.604803)
(0.0441691 0.982888 0.649437)
(0.0288216 1.0531 0.611135)
(-0.159258 2.2298 -0.370696)
(-0.615641 1.38199 0.0105422)
(-0.293223 2.02114 -0.0816699)
(0.0389222 2.42401 0.115778)
(-0.100704 1.98565 0.212621)
(0.0629896 1.99322 0.0535649)
(-0.00140319 -0.0179109 -1.87728)
(0.103603 0.0153426 -2.80736)
(0.210283 0.117317 -2.99403)
(-0.0259031 -0.095741 -3.07787)
(-0.0216685 -0.033359 -2.73047)
(0.0245872 -0.0200034 -2.91774)
(-0.0842178 -0.0539415 -2.82363)
(-0.0386383 0.0120201 -2.81725)
(-0.0340245 0.296497 -2.81511)
(-0.00627179 -0.0427094 -2.8)
(0.147343 0.106058 -2.73449)
(0.0887535 0.00142016 -2.83498)
(-0.00930747 -0.024643 -2.89871)
(-0.0280843 0.106714 -2.9553)
(-0.100424 0.049367 -2.77071)
(0.00677024 0.0311281 -3)
(0.0257099 -0.00929453 -2.89566)
(0.070052 0.0360445 -2.89444)
(-0.0408434 0.0337743 -2.80959)
(0.0307281 0.106784 -2.89331)
(0.0199417 -0.198879 -1.56152)
(-0.021594 0.209107 -1.13042)
(-0.0235109 0.00986902 -1.20831)
(0.0560837 -0.0600729 -1.976)
(0.00414202 0.10502 -1.62614)
(0.0501586 -0.0150477 -1.6506)
(0.0918198 -0.137955 -1.9233)
(0.0261073 -0.114399 -1.6019)
(-0.205574 0.112333 -1.62244)
(-0.170438 0.11213 -1.74862)
(0.0889616 -0.0348341 -0.986052)
(0.0183227 -0.0244712 -1.21038)
(-0.175182 0.068024 -1.32784)
(-0.113507 0.0889526 -1.3223)
(-0.0142904 -0.36166 0.14865)
(0.061294 -0.340655 0.343312)
(-0.0290494 -0.408831 -0.0439706)
(-0.0383275 -0.312958 0.430892)
(-0.00710437 -0.349334 0.80582)
(0.0599931 -0.402056 0.746531)
(0.00646014 -0.424274 0.544255)
(-0.0432707 -0.483939 0.390243)
(-0.0494652 -0.408784 0.881848)
(0.182551 -0.216198 1.16396)
(0.183548 -0.299504 1.01317)
(0.0529835 -0.491418 0.741642)
(0.109156 -0.355649 0.933553)
(0.351889 -0.124918 1.12122)
(0.0350919 0.458987 0.3046)
(-0.0222938 0.380266 0.412805)
(0.0784054 0.434518 0.320999)
(-0.123293 0.179963 0.518466)
(-0.030616 0.158018 0.425939)
(-0.0363095 0.289409 0.359029)
(-0.1253 0.216602 0.410152)
(-0.0345766 -1.58232 0.0491214)
(-0.114134 -1.23728 0.0403504)
(0.00125004 -1.63027 -0.0136403)
(0.053116 -2.13379 -0.0425249)
(0.0195458 -2.04532 -0.0501106)
(-0.0376569 -1.85644 -0.01069)
(0.0373016 -2.03224 -0.0237746)
(-0.0427314 -0.0989763 -1.07334)
(0.0332872 -0.172853 -1.16482)
(-0.00139587 -0.28013 -1.1436)
(0.0165613 -0.171999 -0.993865)
(-0.0891983 -0.261204 -0.998643)
(-0.0223937 -0.107675 -1.05065)
(-0.123789 -0.147878 -0.960556)
(-0.0075688 -0.803051 -0.0489553)
(0.0231451 -0.845215 -0.037143)
(0.0053828 -0.821089 0.0282006)
(-0.00160884 -0.796466 -0.0143442)
(-0.0343082 -0.758128 -0.0359959)
(0.0245951 -0.836101 -0.0709198)
(-0.0291989 -0.796388 -0.0708039)
(0.0465011 0.147923 -0.149073)
(-0.00532225 0.132106 -0.165459)
(-0.00345787 0.172431 -0.0913266)
(-0.0330414 0.0683181 -0.163643)
(-0.0301773 0.103472 -0.132226)
(-0.0688229 0.086313 -0.0992927)
(-0.00591754 0.108087 -0.136954)
(-0.0164247 1.24777 0.271977)
(0.0232416 1.1521 0.292846)
(0.0678287 1.173 0.23457)
(-0.0044016 1.1729 0.150605)
(0.00302033 1.26666 0.0378084)
(0.0468302 1.1069 0.161107)
(0.0817008 1.20246 0.0616242)
(-0.0388814 1.04512 0.232941)
(-0.000881215 1.17912 0.250313)
(-0.0119597 1.13794 0.246342)
(0.0789108 1.12515 0.404794)
(-0.0131969 1.05023 0.274876)
(0.0919757 1.09697 0.428429)
(-0.0199884 0.982136 0.324558)
(-0.0693404 2.13778 0.313381)
(-0.0279932 2.31027 0.185526)
(-0.0117819 2.09665 0.149331)
(0.0146638 1.97146 0.182989)
(-0.0313219 1.72184 0.276417)
(-0.0631449 2.15011 0.236067)
(-0.0882354 1.93145 0.355412)
(0.0677636 1.97545 0.108856)
(0.00380308 1.85063 0.0236375)
(-0.00938047 1.74665 -0.0980064)
(0.0184099 1.61836 0.0151111)
(-0.0315856 1.82744 0.0959488)
(-0.0262219 1.85932 0.0151338)
(-0.0286208 2.09148 0.0733351)
(0.0667928 1.56443 0.077093)
(-0.00429213 1.9468 0.133668)
(-0.0375752 1.7066 0.110546)
(0.00345431 1.78388 0.0322744)
(-0.0341225 1.90787 0.0309628)
(-0.0628268 1.70531 0.0214664)
(0.0316428 1.60743 0.027865)
(-0.0102914 0.468936 -0.338437)
(0.00781196 0.581145 -0.376269)
(0.0577556 0.484451 -0.316519)
(0.00499844 0.562665 -0.367515)
(-0.0576027 0.514407 -0.425449)
(-0.0551467 0.388752 -0.358305)
(0.0292788 0.474023 -0.337297)
(0.00122283 0.4915 -0.408782)
(0.00240861 0.510962 -0.44511)
(0.00444579 0.490729 -0.380254)
(0.00442919 0.462844 -0.424777)
(-0.00541566 0.454287 -0.37961)
(0.0126222 0.47406 -0.459872)
(-0.0035454 0.447977 -0.382486)
(0.000198972 0.209858 -0.145517)
(-0.00539537 0.174998 -0.156027)
(-0.00424401 0.192988 -0.151631)
(0.0109906 0.192324 -0.173794)
(0.0049747 0.167146 -0.187044)
(-0.000527118 0.163403 -0.175009)
(0.00587481 0.181688 -0.165251)
(-0.00261917 0.0882535 0.102695)
(-0.0242138 0.0224987 0.0761252)
(0.000110921 0.0526155 0.109341)
(0.0125976 0.103348 0.0557126)
(0.0224476 0.0981237 0.0316451)
(0.00953153 0.0515419 0.0235288)
(0.00888335 0.0774327 0.0787295)
(0.00357149 -0.0190304 0.292877)
(0.0135435 -0.0206154 0.264545)
(-0.00955379 -0.0788931 0.280524)
(0.00542186 -0.0510656 0.339209)
(-0.00985284 -0.0113073 0.33196)
(-0.0112644 -0.0127173 0.313418)
(-0.0209521 -0.073327 0.323254)
(-0.00235902 -1.9025 0.0150392)
(-0.0017148 -1.92383 0.00734799)
(-0.00692589 -1.94428 0.0207773)
(-0.00227649 -1.86646 0.00539193)
(0.00139716 -1.87085 -0.0124491)
(0.00337711 -1.89584 0.000549737)
(0.00327588 -1.91195 0.0322887)
(-0.0421985 -0.768979 -0.369803)
(-0.0904596 -0.782987 -0.404675)
(0.0216689 -0.585382 -0.429043)
(-0.0280271 -0.645605 -0.200082)
(-0.00809973 -0.631999 -0.377149)
(-0.125803 -0.616905 -0.380033)
(-0.105984 -0.55047 -0.305328)
(0.0326924 0.857804 -0.512187)
(0.000274291 1.16181 -0.428116)
(0.0109602 1.01391 -0.464302)
(-0.0240617 1.18583 -0.553733)
(-0.00516816 1.09572 -0.606593)
(0.0328144 1.0517 -0.5154)
(0.0627844 0.923936 -0.534014)
(0.0439959 0.839773 0.224574)
(0.017583 0.899387 0.189658)
(0.00698721 0.788706 0.227434)
(-0.0820615 0.918078 0.0394113)
(-0.0495934 0.838953 0.0931107)
(-0.0494885 0.942451 0.102153)
(-0.0140005 0.853974 0.139805)
(0.00323676 1.20744 0.234249)
(-0.000620179 1.0799 0.154418)
(-0.00361524 1.22744 0.230728)
(-0.010443 0.908992 0.00883542)
(0.0106508 1.0153 0.0738469)
(0.0300937 1.04513 0.0577175)
(-0.0223216 1.14012 0.151514)
(-0.0442221 1.19902 0.181349)
(-0.0139908 1.09727 0.111242)
(-0.224194 0.630355 -0.00374125)
(-0.0632498 0.921896 0.0337674)
(-0.0125154 1.03198 0.0351675)
(-0.00856779 1.75926 0.327213)
(-0.00381964 1.6652 0.235424)
(-0.00422658 1.45309 0.0636896)
(0.0209018 1.94288 0.186094)
(-0.010851 1.86158 0.255861)
(0.0170063 2.00736 0.309564)
(0.0415936 1.98575 0.167469)
(-0.193097 0.880552 -0.0828999)
(0.0357772 1.34704 0.0639487)
(-0.0803675 0.300591 0.0155235)
(-0.16078 1.14867 0.110617)
(-0.150626 1.40169 0.110937)
(0.182259 1.87296 -0.315912)
(0.256659 1.7352 -0.792602)
(0.221036 1.97402 0.228159)
(-0.436885 2.01827 -0.136097)
(-0.120635 2.0674 0.3484)
(-0.10395 1.41809 -0.517298)
(0.186629 1.765 -0.071704)
(-0.020224 0.0137743 0.694111)
(0.0285438 0.106047 0.43165)
(-0.081458 -0.00958292 0.444468)
(-0.0337394 0.0297028 0.727074)
(0.0321303 0.0645966 0.710217)
(0.0307156 0.0681624 0.531091)
(-0.0728915 -0.0517497 0.557264)
(-0.00575077 0.240628 0.211015)
(-0.0119343 0.180687 0.153293)
(-0.00100706 0.212075 0.155798)
(0.0235828 0.173056 0.15965)
(0.00840456 0.17831 0.153869)
(-0.0130932 0.142716 0.118484)
(0.010776 0.154149 0.122177)
(-0.00817198 0.251874 0.190058)
(-0.010972 0.186233 0.151925)
(-0.0221252 0.189835 0.135516)
(0.0259555 0.191897 0.156715)
(0.011032 0.209315 0.149079)
(-0.0123039 0.166155 0.102854)
(-0.0091461 0.161082 0.105961)
(-0.00279332 -0.729146 -0.716974)
(-0.0125684 -0.904038 -0.528572)
(-0.053411 -1.08475 -0.249383)
(0.0226177 -1.167 -0.377416)
(0.00600776 -0.972654 -0.501497)
(-0.0118942 -1.04534 -0.445686)
(0.0158918 -1.17744 -0.305118)
(0.0179194 0.229887 -0.693836)
(-0.019206 0.248776 -0.748603)
(-0.00249823 0.178013 -0.724613)
(-0.027828 0.201331 -0.749457)
(0.0168641 0.169854 -0.60669)
(-0.0450702 0.17948 -0.646173)
(0.00595804 0.196566 -0.616592)
(-0.0191402 0.29208 -0.398237)
(0.00517359 0.168678 -0.296448)
(0.0631884 0.108368 -0.349603)
(0.0141809 0.15699 -0.621633)
(-0.0103786 0.0595612 -0.430643)
(0.125504 0.304882 -0.443218)
(0.175631 0.380861 -0.564977)
(0.0136499 1.21805 0.0663609)
(0.0240211 1.27201 0.092519)
(-0.013965 1.1863 0.0381909)
(-0.000458155 1.22559 0.249758)
(0.00951154 1.11134 0.114888)
(-0.0129241 1.24513 0.250667)
(-0.0152374 1.17306 0.155192)
(-0.0497801 1.66275 0.00582536)
(-0.0419579 1.89479 -0.0378959)
(-0.021848 1.07862 0.0358993)
(-0.0484663 1.60174 0.0205218)
(-0.0557191 1.55845 0.055984)
(-0.0597389 1.71163 0.0625033)
(-0.0421421 1.79906 -0.00982278)
(-0.0816904 1.57346 0.49394)
(0.0327249 2.22032 0.00240826)
(-0.100348 1.85804 0.363194)
(0.0734465 1.72092 0.190519)
(-0.00529762 2.01781 0.103878)
(0.0292478 1.61028 0.410251)
(-0.0193149 1.82328 0.290656)
(-0.000623401 0.259969 -0.0853909)
(0.00177438 0.260691 -0.0912561)
(5.96999e-05 0.254222 -0.0752517)
(0.0015343 0.24412 -0.0880091)
(-0.0022873 0.248158 -0.0784722)
(0.00324599 0.25112 -0.0921826)
(-3.92571e-06 0.253345 -0.0847731)
(-0.00438503 0.23871 -0.084965)
(-0.00153535 0.238357 -0.0840059)
(0.000969126 0.238333 -0.0814371)
(0.00621682 0.242279 -0.0888541)
(0.000792434 0.245101 -0.0873866)
(0.00275861 0.243934 -0.0862859)
(-0.000325028 0.245329 -0.0892639)
(-0.00239116 -0.789998 0.010082)
(0.0166414 -0.678101 -0.040372)
(-0.0253655 -0.682421 -0.0585438)
(-0.00471505 -0.72275 -0.0434667)
(0.0312366 -0.670152 -0.0454819)
(0.0347307 -0.609816 -0.0579863)
(-0.00519795 -0.680291 -0.0567466)
(0.0347498 1.08579 -0.355861)
(-0.0075813 1.18259 -0.31929)
(-0.00644225 1.01563 -0.421596)
(0.0116683 1.19648 -0.436403)
(-0.0221646 1.17645 -0.520359)
(0.0673357 1.10205 -0.401388)
(-0.0153716 1.0532 -0.497432)
(-0.0116393 0.857487 -0.540785)
(-0.201206 0.84115 -0.637185)
(0.039115 1.40244 -0.921645)
(-0.210362 0.965248 -0.766696)
(-0.12329 1.24673 -0.917676)
(-0.336236 0.647412 -0.572506)
(-0.324372 0.734863 -0.623267)
(-0.0515735 1.00084 -0.285942)
(0.223403 1.02977 -0.771296)
(-0.00723129 0.666658 0.191998)
(-0.12407 0.913031 -0.371365)
(0.027791 0.731094 -0.531529)
(0.212178 0.681748 -0.641237)
(-0.0893601 0.98295 -0.505975)
(-0.00490367 0.824141 0.0420952)
(0.0109941 0.589401 0.190062)
(0.00575069 0.705306 0.0774828)
(-0.00778234 0.726201 0.140057)
(0.00962573 0.646097 0.177085)
(-0.00120456 0.77464 0.133138)
(-0.0232913 0.896924 0.0980422)
(0.0468732 0.5404 0.236863)
(0.0520041 0.630914 0.186965)
(0.0033996 0.480422 0.330497)
(-0.028733 0.494208 0.310704)
(-0.0347778 0.574949 0.294128)
(-0.0125621 0.631078 0.226354)
(0.0120469 0.534506 0.236916)
(-0.0517429 0.254207 -3.24068)
(-0.00788835 -0.34571 -0.842202)
(-0.0870019 -0.10952 -1.93136)
(-0.0497251 0.0463971 -3.09845)
(-0.0986112 -0.0871881 -2.35322)
(-0.134502 -0.294583 -1.24322)
(-0.142148 -0.112112 -2.28597)
(0.00649887 -0.0120772 -2.76735)
(0.0428179 -0.104735 -2.78868)
(0.0202409 -0.0344886 -2.82575)
(-0.0382549 -0.0676498 -2.8572)
(-0.00652705 -0.0677614 -2.80759)
(0.0601093 -0.0897761 -2.79061)
(-0.00266383 -0.0179955 -2.84874)
(-0.0207843 0.107273 0.370354)
(0.0996479 -0.0242884 0.0724043)
(-0.0617631 0.130078 0.0524627)
(-0.140615 -0.027597 0.160178)
(0.029717 0.100951 0.190211)
(0.0219213 0.0336221 -0.396651)
(-0.174269 0.140351 -0.341649)
(0.0381123 -1.55675 0.0639064)
(-0.0383564 -1.82892 0.0128827)
(-0.0114805 -1.95341 -0.0543946)
(-0.046078 -2.17008 -0.0222954)
(-0.0542313 -2.14997 -0.0371576)
(-0.0562404 -2.07702 0.027213)
(-0.0218837 -1.93306 0.0344958)
(0.00539148 -2.45892 -0.0353567)
(-0.00183642 -2.47395 -0.0329812)
(-0.00197242 -2.45484 -0.0243202)
(-5.64113e-05 -2.47432 -0.0293444)
(-0.00220864 -2.47634 -0.0233565)
(0.0015051 -2.46139 -0.0337242)
(-0.00280875 -2.46468 -0.0247007)
(0.155318 -0.169642 -0.259846)
(0.0211986 -0.153201 -0.199168)
(-0.0301074 -0.272659 -0.244901)
(-0.260654 -0.329073 0.00405496)
(-0.0666818 -0.248857 -0.047943)
(-0.234995 -0.284691 -0.299303)
(-0.16084 -0.225413 -0.253459)
(0.0512412 -0.698903 -0.303804)
(0.057392 -0.570204 -0.180601)
(0.00506631 -0.498882 -0.202198)
(0.00976552 -0.850245 -0.426402)
(0.0523374 -0.786751 -0.384187)
(0.0981208 -0.790474 -0.420135)
(0.123975 -0.934179 -0.466909)
(0.168692 0.796801 -1.27029)
(-0.00189016 0.781236 -1.25331)
(0.0126168 0.584848 -1.27796)
(-0.394132 0.210152 -1.31293)
(-0.164366 0.368734 -1.33331)
(-0.485197 0.423719 -1.29009)
(-0.222259 0.520666 -1.31974)
(-0.0562252 1.00431 0.00219422)
(-0.00767406 1.13831 0.0197625)
(0.0107453 1.19843 -0.027672)
(-0.0284924 1.29124 -0.0117055)
(-0.0224868 1.24429 0.0322925)
(-0.033311 1.21366 0.0266205)
(-0.00604063 1.25423 -0.0153246)
(0.00915814 1.34545 -0.00793608)
(-0.037985 1.28063 0.0441514)
(-0.0107671 1.31763 0.0156613)
(-0.00812723 1.17462 0.0239256)
(-0.0354196 1.21059 0.0416072)
(0.0222015 1.04216 0.0233848)
(-0.0640686 1.57812 -0.00410799)
(-0.150875 1.79921 -0.0187874)
(-0.0642893 1.4929 0.0301974)
(-0.0207558 1.4428 0.0471274)
(-0.0637245 1.59629 0.0384296)
(-0.103536 1.65359 0.048582)
(0.0193131 1.6053 0.1265)
(-0.0634497 1.59974 0.0384882)
(0.000173647 1.42835 0.30382)
(-0.0703171 1.5443 0.193022)
(-0.0677686 1.58876 0.0940363)
(-0.000105818 1.75948 0.134479)
(0.0261408 1.71714 0.121426)
(-0.00811702 1.72287 0.131333)
(-0.0186288 1.72087 0.0846872)
(-0.027723 1.69741 0.0681434)
(0.000720979 0.223042 -0.113205)
(0.00334527 0.239167 -0.0970032)
(0.00686072 0.237957 -0.103051)
(-0.00525369 0.230791 -0.103201)
(-0.00758172 0.237426 -0.0891253)
(-0.00220282 0.243914 -0.0897459)
(0.0016227 0.242845 -0.0980759)
(-0.00969022 -0.169507 -0.230589)
(-0.0517307 -0.68789 -0.0760922)
(-0.0468699 -0.433935 -0.115694)
(-0.0115454 -0.223286 -0.142652)
(0.0247522 -0.0476735 -0.204917)
(-0.0817225 -0.657195 -0.156856)
(-0.0540934 -0.40132 -0.181146)
(0.00669736 -0.843413 0.023272)
(-0.0118856 -0.853315 -0.0249373)
(-0.0246672 -0.851469 -0.0435401)
(0.00687916 -0.901003 -0.0214134)
(0.000822613 -0.856306 0.0157811)
(0.000253046 -0.899755 -0.0137534)
(-0.00323547 -0.906976 -0.0373792)
(-0.0214437 -0.774723 -0.0675812)
(0.00461686 -0.735182 -0.123218)
(-0.0315114 -0.817126 -0.0425716)
(0.0132397 -0.767842 -0.102536)
(0.0147984 -0.81337 -0.0825861)
(-0.00611299 -0.833965 -0.0502632)
(-0.00267075 -0.796803 -0.0712786)
(-0.00678302 -0.670224 0.020164)
(-0.0041729 -0.727286 -0.0189873)
(-0.014802 -0.652239 0.00273763)
(0.0455739 -0.482885 0.150678)
(0.0206466 -0.657795 0.1048)
(0.0326738 -0.622376 0.111088)
(0.0171987 -0.692789 0.132816)
(0.0481414 -0.552025 -0.235156)
(0.000971982 -0.493395 -0.218733)
(0.0130393 -0.498527 -0.194939)
(-0.016891 -0.677486 -0.128486)
(-0.0298459 -0.673064 -0.167007)
(0.00202327 -0.617801 -0.151713)
(0.0247018 -0.674918 -0.201838)
(0.0293781 1.09631 -1.04687)
(0.0688846 0.816995 -0.913772)
(0.109652 0.788535 -0.78692)
(0.0139353 1.52685 -0.662117)
(-0.0387819 1.47994 -0.996311)
(0.167872 1.24194 -0.958033)
(0.275641 1.25359 -0.750286)
(-0.121671 1.08932 -0.556988)
(-0.0546391 1.12688 -0.616457)
(0.00235078 1.98227 -0.809662)
(0.00661516 1.26455 -0.409722)
(0.0452876 1.3797 -0.558021)
(-0.0122285 1.00455 -0.316188)
(-0.0670466 0.949499 -0.302802)
(-0.00757655 1.46241 0.00548982)
(0.0145247 1.3591 -0.0784785)
(-0.0197263 1.47917 -0.106305)
(-0.0059714 1.58455 -0.0362387)
(0.00516983 1.53584 -0.00945995)
(0.0198057 1.46461 -0.0895178)
(-0.0148213 1.56961 -0.111657)
(0.0302988 1.21384 -0.0132024)
(-0.0033973 1.51668 0.0445408)
(-0.010645 1.46976 -0.076526)
(-0.0577452 1.31456 0.0192023)
(-0.0319273 1.44807 0.01028)
(0.00421942 0.412727 0.475728)
(0.00986366 0.313896 0.532328)
(0.00702046 0.275966 0.55466)
(0.0478119 0.450862 0.319331)
(0.00259452 0.34465 0.39194)
(0.0651483 0.44658 0.461476)
(0.0612618 0.588364 0.44965)
(0.0468851 0.09435 0.94505)
(0.0497995 0.115171 0.97881)
(0.0537764 0.0855569 1.02786)
(-0.138433 0.242319 1.31884)
(-0.0522956 0.197898 1.16407)
(-0.0401293 0.180125 1.17134)
(-0.00120302 0.169541 1.05526)
(0.0294505 -0.355844 -0.347325)
(-0.00242702 -0.357216 -0.352444)
(0.0139179 -0.475819 -0.387243)
(0.000593597 -0.322291 -0.17008)
(0.0196708 -0.348775 -0.0892921)
(-0.0146373 -0.239334 -0.29738)
(0.101647 -0.282707 -0.209377)
(-0.0219484 0.226116 -2.81654)
(0.175926 0.126688 -2.92282)
(0.0661574 0.0608882 -2.98381)
(-0.0469894 0.0365387 -2.83347)
(-0.0848537 0.0149631 -2.81332)
(0.0700988 -0.0495873 -2.90184)
(-0.0350726 -0.0688594 -2.85632)
(0.0256036 0.138326 0.260241)
(0.0264485 0.145259 0.251334)
(0.000887799 0.1679 0.206242)
(-0.0158667 0.175399 0.223373)
(-0.0227612 0.154757 0.189313)
(0.0309133 0.150741 0.267928)
(0.0322574 0.140368 0.26516)
(0.047132 -2.21167 0.0374419)
(0.0979898 -1.82915 0.160716)
(-0.0235218 -2.56655 -0.0670374)
(-0.0210781 -2.25779 0.0311052)
(-0.0210963 -2.47727 -0.0155843)
(0.0524301 -1.8532 0.101375)
(0.00156198 -2.24592 0.0194102)
(-0.00341794 -2.29232 -0.082191)
(-0.00806232 -2.30033 -0.0997259)
(-0.0122922 -2.3203 -0.121884)
(-0.00283315 -2.25042 -0.125028)
(0.0196881 -2.15501 -0.123713)
(-0.00036053 -2.2324 -0.107978)
(-0.0106848 -2.28886 -0.111971)
(0.0275183 -0.319203 0.584591)
(0.022818 -0.378731 0.424853)
(0.00240786 -0.386787 0.632951)
(0.0243923 -0.522242 0.328403)
(-0.015993 -0.411627 0.549106)
(-0.0673213 -0.475075 0.226282)
(-0.0450499 -0.351903 0.515022)
(-0.0226144 -0.258729 0.0538029)
(-0.00700061 -0.163225 -0.134039)
(-0.0310068 -0.10617 -0.223783)
(0.0208293 0.0493276 0.0707216)
(0.0733391 0.077217 0.117607)
(0.0454091 -0.1235 -0.193794)
(-0.052524 -0.0701376 -0.254799)
(-0.0871477 0.74955 0.0020603)
(-0.0563793 1.01918 0.0024615)
(-0.069361 0.950735 -0.0272085)
(-0.00969997 1.09885 0.00415153)
(0.042138 1.20723 0.0282064)
(0.0241547 1.23083 0.0031824)
(-0.0168627 1.07979 -0.0313767)
(-0.0330901 1.04983 -0.00469538)
(0.107826 1.35469 -0.027265)
(0.0264135 1.13698 -0.0149344)
(-0.0269432 1.09581 -0.00602234)
(0.0753898 1.33248 -0.0220993)
(-0.00538883 0.877822 -0.0971078)
(0.0229253 0.961487 0.0355847)
(0.0136123 0.876012 -0.072736)
(-0.000258299 0.877946 -0.0813453)
(-0.0154496 0.975638 0.0509561)
(-0.0268781 1.02651 0.0871674)
(0.00329638 0.909465 -0.0779985)
(0.00252404 0.722456 0.20248)
(-0.00682546 1.01392 -0.0317318)
(0.0230895 0.986138 0.086308)
(-0.0652742 0.789146 0.17614)
(-0.0897934 0.731587 0.0993231)
(-0.101815 0.931961 0.0491939)
(-0.0770097 0.997919 0.143184)
(-0.000338839 0.158436 -0.0409698)
(-0.00950811 0.161382 -0.0842484)
(0.00587639 0.156239 -0.0670592)
(-0.00568086 0.1572 -0.0487102)
(0.00189836 0.163042 -0.0551402)
(-0.0117818 0.178085 -0.068791)
(-0.00092751 0.163429 -0.0559725)
(0.00171653 0.227719 -0.0321484)
(-0.00349674 0.234339 -0.0429924)
(-0.00489717 0.22722 -0.0241538)
(-0.00160904 0.22378 -0.0494604)
(-0.0146168 0.215981 -0.0188581)
(-0.00748864 0.216059 -0.0379267)
(-0.0029344 0.169304 0.00756887)
(-0.0027387 0.154169 -0.0076821)
(-0.00216607 0.177121 -0.0037603)
(-0.00896261 0.181237 -0.0392002)
(-0.0123308 0.189271 -0.0153084)
(-0.0036148 0.185387 -0.0211926)
(-0.000999056 0.186006 -0.0395318)
(0.00427938 0.169494 -0.0274099)
(0.0170211 0.132966 -0.0239816)
(0.000772947 0.159363 -0.0670648)
(0.00176481 -1.66034 -0.0379397)
(0.00308529 -1.65008 -0.020479)
(-0.00198079 -1.66155 -0.0551138)
(-0.0035523 -1.62994 -0.0359058)
(-0.00123542 -1.65626 -0.0490071)
(-0.00227208 -1.63542 -0.0278783)
(-0.000145778 -1.6558 -0.040757)
(-0.0153233 -1.2544 0.0523731)
(-0.0148263 -1.17261 0.0407943)
(0.00560893 -1.0871 -0.00619264)
(0.000219185 -1.11833 0.00704438)
(0.0115893 -1.16502 0.0111909)
(-0.00148623 -1.17416 0.00755032)
(-0.00285673 -1.22976 0.00929857)
(0.00139842 -0.749886 -0.146376)
(-0.00465275 -0.813736 -0.0956158)
(-0.00604247 -0.774978 -0.117196)
(0.00110443 -0.775892 -0.137552)
(0.00490702 -0.808225 -0.109223)
(0.00465631 -0.816645 -0.0958101)
(4.09028e-05 -0.788635 -0.119475)
(-0.0126914 -0.670429 -0.135387)
(0.00251052 -0.676101 -0.119903)
(-0.00507743 -0.671683 -0.134852)
(-0.00327042 -0.66932 -0.105041)
(0.0011334 -0.67536 -0.104045)
(-0.000159004 -0.673362 -0.113947)
(-0.00087462 -0.686845 -0.110098)
(-0.00145627 -0.540839 -0.197512)
(-0.0415981 -0.397616 -0.304857)
(-0.00157074 -0.373721 -0.42765)
(0.0406536 -0.550954 -0.431006)
(0.0550739 -0.690778 -0.400395)
(0.0497368 -0.595242 -0.372316)
(0.0611616 -0.679853 -0.264679)
(-0.0934592 0.742087 -0.223426)
(0.18231 0.174402 -0.0320613)
(0.0368559 0.245264 -0.0225252)
(-0.18759 -0.00523701 -0.22713)
(0.0454657 -0.148026 -0.126865)
(0.0606857 -0.313878 -0.250785)
(-0.116253 -0.0831649 -0.241595)
(-0.118764 0.872678 -1.31581)
(-0.0837997 0.726654 -1.63135)
(-0.032829 0.606974 -1.79718)
(0.178123 0.32988 -1.49382)
(-0.0284905 0.488083 -1.15992)
(0.080176 0.68443 -1.5199)
(-0.127534 1.00469 -1.29182)
(0.0392859 1.01739 -0.568408)
(0.00258615 0.985655 -0.439023)
(0.00314732 0.926807 -0.36529)
(-0.00650717 0.867027 -0.310501)
(0.00898456 0.810159 -0.298036)
(0.0104291 0.908778 -0.376191)
(0.0130684 0.818236 -0.324724)
(-0.0225443 0.766505 0.185856)
(0.00532833 0.920703 0.0926183)
(-0.0134854 0.754204 0.159543)
(0.0598077 0.868043 -0.11086)
(0.000123192 0.769633 -0.067381)
(0.0602938 0.983897 -0.0159801)
(-0.0155115 0.888082 0.0762643)
(0.0319287 0.135202 -2.83916)
(0.0140998 -0.150155 -2.83256)
(0.0755803 -0.150812 -2.86064)
(0.069562 -0.251941 -2.73729)
(-0.181462 -0.211873 -2.60645)
(-0.114907 -0.292381 -2.75378)
(0.0102788 -0.254924 -2.84306)
(0.00537615 0.0343827 -3.00302)
(-0.0328636 -0.0123279 -2.87303)
(0.00185958 -0.0419949 -2.77453)
(-0.0924446 -0.0960753 -2.59457)
(-0.128088 -0.119705 -2.65871)
(-0.0856967 -0.0132917 -2.56935)