/*--------------------------------*- C++ -*----------------------------------*\
| =========                 |                                                 |
| \\      /  F ield         | OpenFOAM: The Open Source CFD Toolbox           |
|  \\    /   O peration     | Version:  v2012                                 |
|   \\  /    A nd           | Website:  www.openfoam.com                      |
|    \\/     M anipulation  |                                                 |
\*---------------------------------------------------------------------------*/
FoamFile
{
    version     2.0;
    format      ascii;
    class       volScalarField;
    location    "0.35";
    object      p_rgh;
}
// * * * * * * * * * * * * * * * * * * * * * * * * * * * * * * * * * * * * * //

dimensions      [1 -1 -2 0 0 0 0];


internalField   nonuniform List<scalar> 
6576
(
2817.16
2793.25
2800.52
2806.62
2822.1
2829.47
2804.86
2808.05
2824.71
2815
2854.75
2839.17
2827.43
2836.69
2802.44
2808.85
2775.29
2802.91
2804.81
2850.97
2785.42
2843.69
2847.14
2800.82
2831.67
2861.18
2910.63
2826.28
2789.19
2792.08
2812.45
2772.56
2810.86
2833.4
2825.84
2848.09
2823.42
2850.21
2808.28
2830.23
2795.78
2787.17
2814.23
941.647
623.588
1467.49
760.843
977.835
1513.02
1581.15
1133.29
1377.59
0.206981
-0.0287571
0.113289
0.13503
-1.47846
-2.40238
-0.285119
-2.13805
-0.203582
-0.849265
1.91738
-1.97366
-3.04871
2.29826
0.523579
0.402832
0.281501
0.317676
0.445557
0.210469
0.210015
7.70225
7.30105
8.46906
6.19751
7.66825
8.46738
6.7209
11.7945
12.1026
11.6877
10.1231
8.3683
12.3178
10.4391
-10.2486
-10.004
-5.49767
2.28281
3.02145
-3.25606
-4.17766
-14.2081
-19.2549
-19.7821
-20.1106
-19.3142
-16.2013
-16.2357
109.465
205.211
69.4829
164.222
195.549
121.879
129.759
1198.73
1237.07
1222.93
1115.58
1287.99
1623.93
0.110971
0.0376344
0.0473725
-0.023803
-0.465304
-0.0194675
-0.0466331
715.676
2172.22
2504.13
2597.23
2563.5
2678.8
2579.99
0.440635
-0.219902
-0.0324427
-0.534454
-0.405101
-0.633973
-0.659255
-15.3899
-15.8827
-15.8519
-14.6371
-14.5752
-14.6089
-15.1926
-15.0305
-14.4873
-16.0588
-12.6462
-13.2737
-14.1836
-13.5284
-11.9093
-12.6459
-11.1368
-14.7866
-14.7422
-12.9831
-13.4191
-9.06088
-7.99952
-8.2141
-8.97713
-7.39963
-6.84705
-8.57756
-7.02906
-8.91307
-5.77147
-4.61028
-4.94065
-7.49458
-6.30211
-5.26775
-6.03139
-3.81262
-3.48997
-3.72759
-4.19883
-3.74334
-4.0817
-3.44315
-3.9071
-4.42539
-1.38633
-1.30105
-1.51619
-1.46431
-1.38169
-1.55868
-1.72757
-1.64448
-1.50999
-1.02641
-1.0463
-0.895398
-1.03459
-1.22314
-0.946874
-1.09787
-1.22416
-1.16562
-1.04959
-1.33228
-1.60523
-1.25354
-1.12705
-0.994189
-0.827618
-1.09951
-0.984653
-0.97006
-0.886949
-0.93072
-0.723174
-0.979415
-1.10191
-1.0064
-0.797181
-0.995416
-1.28897
-0.483624
-0.497631
-0.567423
-0.4905
-0.491775
-0.561402
-0.619628
-0.520153
-0.501044
-0.62666
-0.574382
-0.593561
-0.750874
-0.692607
-0.971553
-1.10785
-0.950463
-0.91518
-1.0092
-1.12174
-0.985951
-1.46593
-1.51845
-1.8172
-1.31758
-1.18344
-1.50817
-1.31207
-2.95349
-3.93763
-3.11965
-2.13287
-2.21433
-2.39001
-2.64009
-3.50102
-2.9956
-8.09784
-9.97789
-9.22865
-6.95141
-6.94946
-9.77105
-9.04368
-8.04703
-8.645
-10.117
-6.44153
-5.05668
-6.79594
-8.46112
910.322
986.791
777.126
1098.79
848.492
851.725
1270.01
766.498
1208.37
1142.29
1134.94
1113.69
989.784
899.519
906.309
763.119
645.19
518.826
589.317
628.159
609.424
615.334
694.437
616.563
628.428
1033.8
1073.24
1004.72
681.958
714.917
579.933
777.132
730.764
625.417
719.131
42.6201
38.136
32.8305
77.4505
38.6752
52.5271
74.7907
284.232
115.277
49.9507
80.7457
61.4543
51.5716
51.1989
46.8157
49.0995
4.54038
4.60098
4.81065
4.49817
4.75518
4.92195
4.87932
26.1789
28.5439
26.8899
23.8205
21.1955
24.0222
43.3053
41.7508
58.5332
27.1962
150.799
109.482
48.7984
58.5341
31.1193
50.843
184.584
196.675
235.765
192.98
208.922
390.779
445.086
413.077
226.578
429.538
832.894
408.029
461.692
551.637
352.606
573.835
1204.99
1039.68
1095.89
1292.47
1022.85
536.375
1039.76
1079.44
1357.87
85.9373
27.8182
72.8628
55.8702
114.895
50.9083
104.488
17.3413
11.282
14.1134
11.3425
14.3567
11.4101
15.8428
4.80842
4.68055
4.83568
4.51013
4.58846
4.62922
4.66043
4.7722
4.76989
6.24878
5.97456
6.29257
5.96285
6.26943
5.61373
6.25448
6.00911
5.2346
5.78262
5.02642
5.15171
5.84109
5.46957
5.62148
6.13605
53.9758
96.6688
259.681
120.064
45.315
31.0053
203.866
1439.34
1450.93
1471.06
1245.03
1373.09
1339.51
1471.07
-1.61527
-1.48685
-1.2205
-1.70586
-1.2855
-1.4618
-1.27947
-0.394275
-0.344761
-0.33292
-0.23358
-0.148797
0.0254848
-0.16104
-0.0263039
-0.213583
0.552643
-0.0960971
-0.01302
0.221942
0.558326
0.0166979
0.63127
0.11327
0.0372985
0.361117
-0.334441
0.108486
-0.110929
0.036449
0.669713
0.516883
0.122478
0.460899
0.0778329
0.559894
0.30866
130.636
127.082
230.244
136.574
130.733
131.48
155.501
54.8384
33.266
124.567
229.388
164.801
97.6164
236.546
240.032
230.227
241.391
248.005
218.853
172.226
258.668
222.693
229.374
225.334
151.626
218.015
238.973
237.456
203.63
248.441
107.317
111.329
114.588
193.599
4.71135
-0.0106921
5.49073
4.84694
1.41967
-0.94131
6.12506
5.73231
-1.64904
5.21852
-1.4894
5.80627
-2.7823
4.51321
-2.18706
-0.157276
-2.4287
6.21946
2.52403
5.45059
3.17052
0.478351
2.45103
0.427054
0.267057
1.12806
0.146805
-0.335738
0.295928
0.848881
1.46082
-0.225619
0.708664
1.67135
-1.38436
1.38987
2.21308
0.0406405
1.35962
2.66525
1.00766
0.0996784
0.187975
0.279402
0.295324
0.0793256
0.157184
0.125356
0.163908
0.232222
0.203983
-0.123176
-0.290251
-0.151009
-0.149977
-0.105455
-0.211611
-0.113159
-0.343398
-0.238499
-0.196257
-0.369899
-0.325603
-0.257686
-0.292278
-0.785352
-0.712449
-0.639223
-0.661045
-0.55351
-0.555312
-0.677935
-3.0506
-3.77528
-2.74174
-2.35549
-2.61348
-2.44862
-2.86468
-2.34842
-2.04193
-1.96944
-2.30324
-2.12162
-3.0173
-3.11114
-2.98494
-2.6477
-2.71354
-2.87784
-2.77885
-2.43226
-2.52948
-2.4976
-2.26378
-2.07455
-2.25638
-2.30527
4.27126
2.33381
3.62643
2.65624
2.22402
2.70544
3.61734
3.87732
3.78979
3.99777
3.3667
2.47342
3.68176
2.7602
3.59586
3.94331
4.25416
4.28278
3.53223
4.57742
4.29265
3.64358
4.22915
660.298
669.033
302.119
181.858
250.206
680.748
662.525
713.758
645.076
727.021
721.615
634.375
731.212
708.025
194.083
191.494
729.918
784.031
759.864
541.444
657.031
783.482
790.284
770.908
799.77
782.23
799.53
745.641
706.719
823.307
759.537
765.145
859.325
793.873
797.5
761.383
787.054
754.106
797.933
522.62
510.571
531.888
792.464
509.248
800.318
796.028
598.021
737.146
646.95
674.788
675.214
615.485
708.465
712.065
765.531
693.818
608.735
693.704
559.504
754.147
646.595
713.682
602.514
708.039
555.131
613.265
674.22
618.361
696.25
639.695
654.18
610.229
633.297
287.645
161.961
266.512
350.601
223.431
368.603
281.737
612.005
623.362
614.408
569.85
589.735
692.589
722.801
710.791
85.7988
179.123
115.817
84.3363
156.333
148.542
83.3353
507.499
337.889
379.566
186.44
219.687
817.875
582.206
627.53
805.947
389.034
497.858
816.34
684.577
632.244
1305.19
68.075
118.276
40.4031
103.68
42.9463
125.082
20.7801
391.668
283.133
278.584
289.225
356.94
216.786
123.703
225.991
197.593
511.554
369.458
357.3
31.5753
22.19
-16.6321
31.6478
36.196
68.562
97.5529
18.4346
33.5466
34.6632
162.168
131.678
109.826
137.583
156.995
2.98973
147.275
146.694
116.924
71.395
-37.2555
16.9654
169.022
63.4051
55.161
91.3417
57.9153
40.0111
133.958
27.5476
38.802
71.6401
96.9702
17.4767
19.7159
12.3219
22.3446
23.7615
14.5204
17.0964
13.9441
7.54606
9.60284
8.63666
10.6865
12.8089
12.7981
5.04344
4.93655
4.965
4.99484
4.90574
4.96434
5.00878
4.67993
4.61553
4.74308
4.67395
4.58421
4.54729
4.71231
6.17895
6.28539
5.53881
5.64417
5.51481
5.17468
5.38706
5.3833
5.06466
5.61208
5.09308
5.0764
5.14191
5.2534
5.49705
5.46006
4.76121
4.97213
4.83299
5.06163
5.14042
4.99431
4.96959
4.97179
4.80829
5.45941
5.50839
5.4799
5.53831
5.81439
5.8079
5.85653
-9.37433
-10.2546
-10.4255
-10.2042
-11.515
-11.6758
-10.5058
-7.33738
-6.39749
-6.19869
-7.3036
-6.52483
-5.87615
-6.2805
-6.08624
-6.79413
-8.28803
-9.78101
-9.79233
-6.31871
-7.41778
-4.8583
-6.22798
-7.74805
-7.97042
-6.1508
-2.33523
-3.14176
-4.96719
-1.99832
-3.20416
-3.2804
-1.36597
0.392149
-0.0297205
-0.978427
-0.614683
0.71216
-0.29122
-0.576005
448.105
415.853
265.975
445.506
448.017
428.705
369.911
55.2584
23.181
108.657
142.033
272.79
70.2006
415.58
295.16
258.765
197.249
375.233
496.779
178.513
361.188
382.92
478.897
483.423
172.173
68.7441
181.707
191.431
151.903
143.791
127.229
365.389
312.363
371.791
361.116
242.41
138.908
143.483
1.5278
1.41684
1.03806
1.07858
0.362925
0.527818
1.43146
5.47465
1.5976
7.24621
7.16867
7.04093
3.98159
4.9105
3.41933
3.12604
2.60845
1.37472
2.14046
2.69443
0.810063
1.27208
2.01747
2.6278
0.208972
0.222907
0.295207
0.0549664
0.0646426
0.0667478
0.0272788
-0.146701
-0.31092
0.00248941
-0.0824015
-0.0189322
0.0195746
0.00609049
0.000783279
-0.0254432
-0.0112
-0.0124399
0.00323951
0.00322133
-0.0113646
-0.0050019
0.0011663
0.00716598
0.000645427
-0.0102962
-0.00985243
-0.012249
-0.0235591
-0.0137524
-0.0111464
-0.0275156
-0.0211389
-0.0304567
-0.058455
-0.0462811
-0.0634766
-0.0447889
-0.0312852
-0.0581094
-0.0514856
-0.0305823
-0.457956
-0.427387
-0.5185
-0.346283
-0.345984
-0.383499
-0.353134
-0.937322
-0.905206
-0.804875
-0.919677
-0.824129
-0.886852
-0.793869
-1.49674
-1.49755
-1.7051
-1.36223
-1.4402
-1.58879
-1.56531
-1.95956
-2.12679
-1.79403
-1.96974
-1.7828
-1.82457
-2.28279
-2.22044
-1.76605
-1.9879
-1.8789
-2.05225
-2.23181
-2.04077
2.91806
4.01394
2.92211
2.92866
2.95935
2.92713
5.03535
3.55915
2.89826
1.50464
2.65154
1.69744
2.08797
1.85918
4.75717
2.59993
1.405
1.50197
2.0872
3.47658
4.3103
1.43868
1.37345
3.43623
3.78799
2.066
3.94869
3.21388
2.12458
0.539691
2.3209
5.09777
3.29744
3.73158
4.75443
1.83881
1.8682
2.34908
2.10046
739.11
762.2
772.263
821.842
623.145
765.522
543.501
666.037
638.08
801.932
870.342
818.49
743.698
856.171
646.957
862.06
677.61
602.368
590.288
597.892
862.672
742.525
775.692
726.494
556.762
716.273
623.405
551.168
565.638
611.013
568.728
562.636
742.692
522.996
757.178
783.649
698.651
749.226
707.521
12.7896
14.9519
24.7907
22.6348
15.4661
15.0381
18.827
189.713
71.8313
102.701
57.9377
55.3911
48.0333
18.634
57.5432
21.4819
41.0597
122.745
-58.4973
54.5817
-15.7252
45.8917
-3.13847
10.4804
21.903
2.95573
47.033
78.4737
49.259
24.745
39.3118
29.3552
38.5101
103.988
55.8649
61.3891
95.1947
84.8175
47.1012
89.9582
19.6058
43.8662
53.548
8.08231
7.45064
12.9341
10.7405
10.2594
8.63543
7.84626
10.0472
6.50542
11.7079
9.31614
14.4216
11.8384
9.0285
5.7437
4.94556
5.67436
5.45408
8.40735
4.8809
5.96002
4.9329
4.89231
5.06216
5.11283
5.22505
4.95411
4.90041
236.229
90.4687
417.865
111.246
432.604
74.1124
73.8538
522.658
642.817
804.357
765.736
808.006
807.603
757.675
19.2679
35.2634
26.6803
82.9958
48.7356
29.2585
66.0383
12.9891
10.5682
9.56859
37.3967
10.1545
13.8273
37.4672
8.51043
8.55498
8.0478
7.60542
10.8987
11.0387
10.6206
-16.179
-15.4624
-15.3971
-16.6745
-16.6386
-16.0256
-16.2972
-12.9607
-15.3539
-13.2542
-12.0273
-12.6983
-14.4235
-13.028
-9.3441
-8.69987
-6.91108
-4.8648
-6.48578
-7.29023
-8.57282
-2.16784
-1.85569
-3.02393
-0.00221774
-1.2324
-2.36159
-1.72123
1.56947
5.57085
1.49019
6.07204
3.35134
2.38041
3.16544
1.8225
3.18628
2.76908
0.26018
0.568195
1.79415
1.92656
0.62359
1.5556
349.626
436.501
568.919
351.357
343.311
342.001
366.64
166.632
58.7162
169.743
570.439
555.264
234.051
573.22
345.051
491.557
295.541
492.716
477.171
424.673
275.923
450.705
271.595
442.389
438.522
433.506
441.236
446.034
486.362
472.253
488.35
269.302
260.709
244.985
471.964
434.207
435.874
-0.0455225
-0.217303
0.23186
-0.243073
-0.105699
0.0604722
0.212025
0.164408
-0.119334
0.607869
-0.181554
0.208299
0.605172
0.528123
1.06649
0.904934
0.852302
0.489192
0.784208
-0.328294
0.323145
-0.298413
0.0145664
-0.697299
0.326474
0.299527
0.898689
0.843439
1.02276
0.638865
1.07156
1.21363
0.951614
0.176111
0.223696
0.168239
0.129436
0.214755
0.0602645
0.0351343
0.0889206
0.0560745
0.0851287
0.022465
0.103579
-0.0300654
0.0676541
0.00367971
-0.00138666
-0.0777056
-0.000533097
-0.0770661
0.0123297
0.00384137
-0.0220332
-0.00782159
-0.0126569
-0.020513
-0.0195668
0.0122459
0.0193473
0.000779317
-0.0139384
-0.013202
-0.0192433
-0.0195536
-0.0126125
-0.0262648
-0.025752
-0.0117604
-0.00431155
-0.0133778
-0.0210129
-0.0271268
-0.0354249
-0.0270745
-0.0412361
-0.0639542
-0.036548
-0.00835381
-0.009335
-0.00493585
-0.0240837
-0.0378321
-0.0323765
-0.0397667
-0.0240504
-0.0267287
-0.0331078
-0.0137049
-0.0181744
-0.0145702
-0.0304996
-0.0329615
-0.028163
-0.0189238
-0.0548149
-0.102545
-0.041187
-0.107354
-0.0639154
-0.0319956
-0.0668589
-0.0428293
-0.0687044
-0.0636011
-0.0449534
-0.0596491
-0.0850729
-0.060894
-0.224984
-0.153509
-0.215556
-0.153919
-0.219368
-0.164619
-0.218292
0.231874
0.180471
0.270241
0.164809
0.195434
0.0626555
0.0501926
0.202026
0.305746
0.450709
0.279511
0.300901
0.264832
0.423521
0.190605
0.197921
0.245046
0.198124
0.228787
0.191805
0.180143
20.7026
21.044
20.8817
8.4078
8.05111
8.11352
20.0803
20.8316
14.5692
6.19608
9.00016
15.0606
12.0572
6.2252
6.18761
15.3106
1.43673
0.0475401
2.91896
0.921913
0.0247647
1.5432
3.01793
0.215945
0.167945
0.24565
1.03477
1.2877
0.616491
1.43303
0.231297
0.686975
-0.0196107
0.275491
0.728397
-0.278936
2.30034
-0.164007
-0.404973
0.00640718
0.521607
4.87846
0.654259
2.9627
-0.217516
3.5494
2.13745
4.26853
-0.110429
0.00578222
0.678019
0.130789
-0.721425
-0.0840471
0.597915
1.56721
12.9906
4.48922
9.38219
13.0237
6.37184
3.52475
489.159
486.345
359.658
469.481
429.723
354.28
343.719
264.706
464.708
95.4535
476.38
152.502
201.648
97.6939
20.3707
21.3071
29.338
28.6094
73.0564
23.9743
35.6348
422.087
661.211
519.471
359.792
380.42
374.494
347.005
363.015
296.668
129.684
119.445
462.556
737.403
451.624
460.893
681.844
397.257
441.175
631.277
386.253
769.752
621.969
693.149
678.735
788.187
797.704
524.727
840.596
820.717
524.379
825.12
857.253
863.764
4.84923
4.94313
5.2872
4.97708
4.18518
4.40083
5.25558
66.7398
113.678
54.7615
85.5503
70.5772
34.6623
78.204
48.7435
57.8691
27.1244
110.982
135.972
177.68
86.3541
91.4945
116.788
181.656
130.628
75.1672
99.2277
29.7356
36.7703
18.9974
19.9151
42.3556
34.1118
17.0064
19.6896
10.597
10.5831
18.3809
16.6193
13.4441
13.0522
8.06914
7.99635
7.81404
7.66956
7.82233
7.73456
7.522
157.785
82.6257
164.291
111.554
83.5858
29.4134
49.0124
55.9966
41.2489
11.0487
8.09603
4.10448
107.361
43.3157
509.06
253.363
7.25971
7.75384
7.74694
7.94538
7.77748
7.76551
7.76244
8.00629
7.83877
8.59344
9.25377
8.22063
8.31783
8.49559
7.93652
7.97145
8.06544
8.02389
8.03622
7.55471
7.62976
7.65167
7.32015
7.67198
7.52738
-6.79958
-7.00996
-4.4648
-5.70847
-6.55448
-1.5569
-3.8451
0.466952
-1.25238
0.117498
0.30159
0.314444
2.69288
2.0636
341.141
331.533
442.48
323.299
411.205
509.52
1001.58
295.848
607.431
328.924
490.082
356.837
582.176
321.751
1038.74
995.162
1011.24
1100.36
1073.11
592.429
504.183
613.722
248.314
259.937
980.537
1042.15
1081.56
244.668
676.223
610.297
90.055
224.493
40.9315
417.885
347.844
352.539
497.462
-0.558907
-0.36645
-0.510068
0.125049
0.434206
-0.920862
0.496286
-1.58888
-2.22533
-3.52864
-1.24824
-2.04764
-1.52265
-2.93698
-1.23932
-1.58884
-1.56751
-2.21003
-1.67826
-5.62974
-8.44394
-6.64056
-6.74114
-4.49246
-4.5945
-6.15781
-0.11946
-1.22749
-1.16291
-0.665325
-1.06939
-1.59081
-1.48579
-0.324492
-0.323361
-0.616514
-0.527999
-0.456595
-1.13678
-0.758619
-0.270032
-0.326585
-0.396784
-0.389273
-0.329923
-0.336661
-0.419009
-0.0354468
-0.0236928
-0.0503323
-0.0527243
-0.0386499
-0.0742162
-0.0867345
-0.0651257
-0.0986092
-0.137667
-0.0233733
-0.0153099
-0.0675727
-0.0184696
-0.0365626
-0.0145794
-0.0690463
-0.0703841
-0.0663106
-0.0643301
-0.0610355
-0.0677301
-0.0909555
-0.0449944
-0.215721
0.00543292
-0.0306709
-0.0754976
0.0582015
-0.297597
-0.0254614
-0.118914
-1.29217
-1.46014
-2.12949
-1.66842
-1.72977
-1.89682
-1.77961
891.479
2299.72
2696.6
2631.24
2707.21
2592.81
2523.01
1.93159
1.94778
-1.41408
16.521
0.90205
-2.77394
1.08223
6.64124
58.0374
12.9549
36.7417
2.6173
191.899
22.0651
-0.121498
0.791026
0.0721582
0.125761
0.24518
0.36683
0.271505
0.419649
0.774719
-0.0996523
1.34715
2.01609
0.292776
-0.466598
0.344287
0.3892
0.249934
0.707635
0.493788
0.263658
0.236173
0.161658
0.171135
0.170658
0.173954
0.188842
0.160835
0.16754
0.182531
0.187521
0.323486
0.177485
0.151768
0.252118
0.180628
0.309236
0.991462
0.183457
-0.0214262
0.0918423
0.085418
-0.0600966
0.0869832
0.0515105
-0.08178
-0.0358069
-0.252215
-0.15781
-0.107219
-0.239275
-0.464658
-0.392062
-0.16504
-0.383084
-2.30738
-1.20856
-2.27136
-1.78808
46.0722
28.4197
62.0238
33.4357
77.5853
44.3138
12.1962
140.332
139.427
153.558
414.816
137.55
201.642
519.273
273.053
73.9157
73.237
88.514
76.9427
107.062
83.1007
75.4473
74.349
132.418
705.102
661.88
711.947
151.197
691.244
296.595
613.471
640.357
470.499
261.21
595.575
104.752
86.8927
631.948
381.158
68.5501
437.846
443.717
462.405
425.263
127.933
231.22
20.4825
67.3005
275.852
111.774
754.534
60.2122
74.4393
429.214
103.028
242.456
99.0355
775.912
788.965
732.487
151.589
156.032
147.232
467.841
174.717
133.703
157.036
4.99632
5.16873
5.67215
5.62761
6.05047
5.18125
5.36734
4.87778
4.9271
4.86154
4.82679
4.85535
4.78676
4.80658
10.2481
22.7877
32.0229
16.4617
6.87504
1.33461
11.0378
7.45846
11.6016
8.90826
24.633
9.58077
14.7323
30.7488
1135.2
566.101
1233.52
661.21
735.513
727.202
958.081
71.2882
-144.434
27.3843
-7.41028
212.013
191.219
3.26937
-2.2032
1.26199
1.75019
-1.17037
8.32548
4.49328
18.1129
22.3679
27.3992
58.0489
32.2463
99.5086
47.6865
255.834
409.229
128.342
677.02
1253.29
562.921
256.533
1285.08
638.181
1158.91
1253.61
1053.88
1256.86
1257.86
980.942
1005.07
1021
1339.07
1354.88
1189.25
1351.72
973.326
1159.65
1349.86
24.5884
29.3459
23.2697
36.9114
40.5099
31.8377
59.03
3.089
0.650012
5.53781
11.7751
8.32141
3.8163
7.53143
-4.9223
-3.375
-2.9395
-1.63907
1.59635
-3.59716
-3.48029
-4.65968
-4.31314
-2.29191
-6.80708
-4.94279
-6.56952
-4.25895
-3.16771
-3.15723
-3.3482
-3.01983
-3.17266
-3.29939
-3.1248
-2.89258
-2.7722
-2.70346
-2.81369
-2.766
-2.62325
-2.63193
-2.04571
-2.27186
-1.98513
-2.26349
-2.08143
-1.35756
-1.12399
-1.81938
-1.63034
-1.58241
-1.88549
-2.19746
2315.38
1684.22
2399.11
1884.56
2095.93
465.372
2215.81
3.65926
13.6373
3.18061
3.69804
9.97073
15.1102
6.60879
1.47949
0.157603
0.693227
0.0843675
-0.206897
0.150395
0.383849
0.0404645
-0.644471
-0.163904
0.0732287
0.0176013
0.0499539
0.0109822
0.0487947
0.0264906
0.045127
0.0805203
0.00760441
0.0634344
0.0158228
0.0200354
0.00483682
0.0258266
0.014246
0.0185123
0.00832093
0.00269592
0.00890886
0.0155483
0.0153841
0.0173796
0.0176351
0.0808488
0.100489
0.0776044
0.0694738
0.0873353
0.0758718
0.059048
0.137717
0.252287
0.232648
0.574539
0.318859
0.183697
0.242633
2.33778
2.43795
1.06176
2.06145
2.31968
2.00911
1.5302
-0.597951
-0.794067
-0.902303
-0.120453
0.344488
-0.414825
-0.42576
-1.62664
-1.3242
-1.20652
-0.694331
-0.0914725
-0.52461
-0.258836
-1.13246
-1.29272
1.45898
1.37981
0.711431
1.99228
1.74654
0.610434
0.762265
224.378
212.097
573.471
457.974
701.565
89.854
697.053
144.844
580.838
151.545
652
633.362
639.7
603.576
703.722
648.375
702.501
337.231
580.806
586.785
580.146
346.488
573.614
411.016
138.201
128.739
368.076
259.156
257.476
365.887
247.376
526.145
523.418
85.4746
708.95
139.635
524.573
268.651
244.349
520.754
228.096
528.82
375.497
181.261
252.977
64.15
26.4249
59.4106
68.6209
67.8394
4.88185
4.83088
4.74576
5.14382
5.08058
5.92862
5.83912
5.90019
6.70677
6.01176
6.03626
6.71573
5.13385
5.05082
5.04835
4.92009
5.03231
4.96692
5.07603
5.10192
5.25189
5.27933
5.29502
5.24968
5.09247
5.00691
5.2705
5.45329
5.37503
5.34745
5.32205
5.50077
5.504
5.27432
5.03758
4.98003
5.15023
5.16937
11.9328
10.9001
9.62589
10.1851
9.14403
7.24722
8.514
716.56
141.755
510.599
2778.7
1301.19
2236.95
2212.69
1707.09
2665.51
2246.7
1646.99
751.831
1793.94
1414.6
1795.11
1776.6
1110.87
686.641
642.946
523.087
643
-52.696
389.61
621.642
3538.62
2378.81
803.024
910.498
894.98
1176.84
1206.17
1005.05
1108.44
974.269
552.289
1046.1
1002.27
1080.14
1089.88
1055.98
1032.56
1071.05
802.723
8.65448
8.00804
9.56696
6.23501
6.35807
7.09568
6.63536
7.48888
6.69899
5.92528
8.93926
10.6092
8.16255
7.36614
-2.93145
-2.98617
-3.0261
-2.5855
-2.36045
-2.98317
-2.2413
-2.38242
-3.07933
-2.15674
-3.04583
-3.40661
-1.48757
-2.84885
-1.2075
-1.36474
-1.49882
-2.05278
-1.23488
-1.6149
-1.4237
-1.91869
-1.71603
-1.30248
-2.06138
-1.68612
-1.70527
-2.1968
0.632565
0.634117
0.656951
0.439135
0.922148
0.947717
0.304356
0.515273
0.373541
0.435509
0.36767
0.219347
0.358398
0.335679
0.284304
0.337111
-0.0969294
-0.0168643
-0.0107088
-0.254742
-0.0773443
-0.17307
0.0183711
0.0451861
0.0649274
0.0459266
0.0702077
0.0807614
0.064017
0.0595545
0.0176587
0.0229375
0.0164638
0.0200894
0.00988443
0.024044
0.012972
0.0227859
0.0257125
0.0322462
0.0158784
0.00315387
0.0175089
0.0321119
0.0347249
0.00721173
0.044644
0.0253055
0.0264727
0.0164156
0.00594832
0.0182254
0.0366819
0.0322221
0.0364807
0.0368519
0.317855
0.312027
0.371195
0.332141
0.344958
0.501362
0.431679
0.424064
0.392534
0.26972
0.384526
0.24452
0.480885
0.366817
0.315654
0.358724
2.33536
1.21254
2.52784
2.28745
1.5243
1.75616
1.58192
704.706
588.24
564.54
677.492
713.338
645.763
540.101
559.431
462.645
686.486
682.1
681.29
675.73
649.546
626.428
442.897
391.67
722.744
692.371
720.543
628.219
214.85
470.436
696.769
616.792
671.037
-0.0723079
1.06077
-0.912664
0.362201
1.58128
-0.99026
0.615814
5.06209
4.76172
6.71893
4.60353
4.23852
5.74746
6.27373
56.564
22.3332
16.6194
33.0349
10.0686
19.5053
16.0514
6.53034
8.34657
10.2829
8.70246
8.84414
9.14932
16.581
15.3153
9.43269
20.122
7.84239
10.3881
11.5403
19.5798
4.88445
5.10367
4.95799
6.1779
5.31306
5.02561
5.6668
5.51846
5.6973
5.86008
5.51042
5.78335
5.77576
4.91769
4.78371
4.72257
4.70379
4.61614
4.91351
5.2038
5.21639
5.65609
5.37473
5.43353
5.73298
5.78632
5.15335
5.14778
5.15428
5.21223
5.38632
5.27255
5.36194
5.45301
5.28338
5.48069
5.68795
5.92283
5.61969
5.45148
1307.35
872.867
446.994
406.926
300.004
817.056
-10.4228
209.42
-1.16785
91.933
-571.799
71.1642
447.309
61.6118
198.641
-214.17
-35.8407
204.857
93.292
-223.784
102.237
-119.79
82.9903
-135.283
15.8337
35.5164
228.087
385.581
175.973
137.34
222.055
87.9988
123.221
994.855
1026.6
918.618
887.766
945.792
874.603
963.806
594.658
460.56
512.184
480.461
464.012
575.295
488.164
691.568
654.809
1068.53
795.064
734.499
818.137
174.465
208.899
264.644
841.844
638.757
534.281
254.775
119.269
78.9453
230.692
104.357
109.188
92.5323
128.722
82.1913
96.2906
1.54556
3.33626
1.42979
2.01746
1.47002
3.54179
1.4194
7.64309
6.84468
10.2985
3.71081
1.74164
21.042
12.1175
0.179612
0.20531
0.192781
0.191529
0.193678
0.175596
0.188188
0.0369237
0.0493674
0.0332845
0.169761
0.192904
0.166998
0.162797
0.192547
0.200154
0.178922
0.0458183
0.01997
0.0559041
0.0789537
0.107241
0.0501641
0.0283977
0.0605757
0.0797251
0.0354445
0.00657911
0.038066
0.00734005
0.0234075
0.0184505
0.0502799
0.0454077
0.0485469
0.0499533
0.0566522
0.0500036
0.0713925
0.0430774
0.00857129
0.0461487
0.0648042
0.0489311
0.0442451
0.0371247
0.0618125
0.0777291
0.0392001
0.0736528
0.110358
0.0922383
2.75751
1.95325
0.747296
0.693151
1.0527
2.75952
1.98385
744.364
721.857
754.619
495.6
386.317
725.431
727.998
689.019
711.646
121.143
498.656
721.067
169.299
661.247
706.123
715.829
655.373
-1.10731
-0.678047
-0.634557
-1.14067
-1.29998
-0.879276
-0.845125
0.227298
1.36927
0.620901
2.43189
2.99507
1.83394
2.42866
0.699603
0.147904
0.352065
0.771019
3.31273
3.40861
6.05327
-1.12315
-0.60787
-1.07797
-1.48662
-1.24404
-1.05655
-0.712826
-0.90383
-0.509556
-1.00782
-0.765646
-0.923195
-0.502274
-0.364674
-2.25907
-2.32686
-2.16072
-1.95263
-2.10339
-2.11666
-1.57996
-0.961774
-0.617595
-1.04984
-1.63657
-1.05583
-0.997995
-1.61768
4.72791
3.34663
3.95748
1.25539
2.50138
2.20908
2.90103
1.93543
1.37594
0.636756
0.976116
0.192273
0.184644
0.425814
2.16452
3.37105
5.55275
4.87821
5.55089
3.75232
3.82978
4.03022
4.09631
3.93113
3.68405
3.7841
3.80722
3.91742
3.97067
4.49947
3.99926
3.8896
4.51204
4.07647
4.38723
4.03457
4.27512
4.47398
4.56957
4.67758
4.69883
4.38424
4.44166
4.31336
4.42979
4.35372
4.27579
4.5752
4.46766
4.65008
5.15519
6.19497
6.36867
6.19381
5.12854
5.78948
5.1904
5.83121
6.11147
6.09169
5.97981
6.21031
6.19103
6.06265
6.18642
6.14064
5.82365
5.88527
5.09158
4.98823
5.39074
5.44784
44.0133
70.2219
121.023
164.277
122.262
486.397
81.3995
-221.78
52.1899
-56.5896
128.698
10.8758
92.0831
101.13
-9.43216
159.227
112.358
226.643
83.2233
69.7419
108.807
-147.522
31.8724
-75.1482
108.508
67.1818
30.3133
62.9114
113.126
41.4372
123.835
-12.7041
-100.947
31.6562
-8.80464
31.9659
17.3996
33.4626
-56.5779
28.7945
60.5874
5.56797
5.98554
6.56464
4.44449
5.87512
5.90622
7.79274
3.0671
3.26532
4.27628
2.629
-0.418222
2.1735
3.44718
4.79232
4.52714
3.03369
5.02325
3.57552
3.01465
0.250464
1.65544
3.4092
12.1178
10.5319
6.50964
8.61871
5.8383
5.28101
5.13599
5.57049
5.19115
-3.31489
57.8865
199.998
-18.178
-1.80761
60.8451
1.07507
30.1998
41.3677
90.5542
84.4426
250.804
116.715
329.278
877.179
948.362
1030.53
918.867
893.778
947.268
972.135
899.843
748.465
1032.83
1108.69
1055.81
1002.68
982.869
835.091
1008
828.186
1057.01
1016.01
988.797
1031.65
1024.48
1038.53
1060.44
1045.19
948.8
938.853
964.446
1068.55
1035.11
977.944
988.037
1029.31
1001.97
1025.52
1022.97
951.373
970.91
950.671
1012.92
880.447
320.318
1001.31
1030.6
1052.68
986.794
989.272
1033.57
1042.4
1006.72
991.189
1041.66
615.563
670.8
142.048
243.405
700.306
313.88
104.365
8.93922
574.353
107.298
289.336
677.978
27.4634
214.959
265.116
102.546
310.152
554.414
244.082
103.448
181.162
1512.73
1533.47
1395.88
651.022
1133.71
1422.32
612.189
632.285
760.054
817.684
687.25
305.116
551.782
233.436
258.983
456.202
820.942
533.787
592.599
729.539
134.108
36.6725
127.51
-15.4526
-5.91988
-16.8612
-7.139
129.402
1.72983
148.773
-2.94403
36.6758
-6.63794
10.4963
447.257
479.425
486.655
434.489
528.994
502.354
333.968
7.46565
7.29702
6.90114
6.57178
6.59767
6.8179
6.89072
7.3312
7.07306
7.03657
7.77918
7.02251
7.00276
7.93251
8.82735
8.40787
8.63551
8.43005
8.40535
8.25429
8.09796
8.66109
8.91365
8.46572
7.97431
8.78518
8.22986
7.30568
7.79999
7.92394
1551.15
1527.21
1370.29
213.126
1049.93
1531.94
547.986
1539.64
1433.76
899.374
870.295
1123.12
1549.12
1531.96
1182.3
1139.68
1559.52
1622.88
1098.51
1644.57
803.293
28.1106
151.902
61.3146
19.1842
28.6427
129.167
227.724
7.77295
53.7017
48.611
8.66031
3.70513
3.11187
5.04028
3.33894
3.111
3.2208
6.22468
2.92419
3.97745
2.93831
2.9382
3.83454
3.05873
-0.146252
-0.136174
-0.267809
-0.111938
-0.111683
-0.1204
-0.192244
0.100083
-0.0152277
-0.0390667
0.169902
0.0514483
0.0460349
0.0360094
0.204044
0.183742
0.164077
0.171929
0.18391
0.21038
0.15631
0.32985
0.390588
0.326646
0.343101
0.304212
0.315447
0.375113
0.349224
0.410991
0.338892
0.378735
0.318467
0.286205
0.347508
0.270548
0.290318
0.322863
0.375009
0.324999
0.0894883
0.0788078
0.106678
0.167512
0.125165
0.1201
0.167264
0.0101898
0.0455308
0.0597863
-0.181946
0.181512
0.145207
-0.0282563
-0.801883
-0.0591224
-0.283324
0.0442828
0.12387
0.130834
-0.0721663
-0.109375
-1.40213
-0.403136
0.0239941
-0.311709
-0.0482265
0.139747
0.132533
3.95864
2.95625
0.460056
1.36893
1.53083
1.14929
0.491731
0.260903
0.410481
378.804
351.713
386.765
365.354
362.074
325.662
339.286
359.068
317.157
343.28
350.062
355.489
363.559
351.933
121.33
277.871
1.47297
2.13161
1.46265
1.55523
2.70097
1.82349
1.3907
1.32695
2.78034
311.718
319.179
121.563
33.6889
147.461
92.9572
320.16
-0.189305
0.0216283
0.394798
0.377256
-0.513912
-0.501274
-0.0238499
-0.0741499
-0.319728
-0.0469058
0.0258301
-0.454273
0.166194
-0.0692824
-0.981599
-1.66139
-1.68911
-1.04468
-1.58609
-0.822434
-0.985243
-0.964231
-0.406673
-0.660698
-0.488907
-1.3334
-1.55708
-2.02231
-2.0528
-1.40546
-1.48594
-1.25598
-1.44206
-2.50924
-2.50758
-2.80152
-2.78855
-2.10895
-2.26565
-2.83324
-2.53479
-2.63166
-1.9655
-1.94887
-2.10115
-2.47806
-2.11583
2.55131
0.583877
-0.614825
-0.544196
0.765716
-0.945007
1.14066
1.98824
-0.994761
0.0313687
0.25109
2.10035
-0.89319
-2.02019
-0.22333
1.61573
-0.546669
-2.01305
-0.0230437
1.45484
0.0015079
0.572518
1.13834
0.894768
0.290185
0.122933
1.08593
1.29003
1.30948
1.59296
1.82193
1.37482
1.46275
1.10439
0.989058
6.05441
6.24129
6.46254
0.785615
2.98454
4.70002
2.50805
2.76695
2.64571
2.61588
4.00979
3.59544
2.09782
2.24605
1.63979
2.21353
1.71831
1.65954
2.0621
3.65749
3.92416
3.40506
3.34942
4.18449
4.2741
3.37961
4.17498
4.17946
4.23152
4.09391
4.12455
4.0746
4.14089
4.17455
4.22164
4.33923
4.9647
5.24692
6.16758
4.76502
4.9981
4.9303
4.80731
5.15182
4.73046
4.6173
4.80188
5.19959
5.27584
4.98239
5.03791
5.38157
5.07398
5.65707
6.20101
5.04917
6.00044
6.2051
6.04851
5.221
5.03936
5.03115
5.0531
5.01552
5.00186
5.00756
451.678
152.529
483.763
398.009
20.3797
54.4525
460.035
99.3866
-102.911
-47.7232
221.14
62.5297
144.626
-32.0179
63.1653
-58.8492
73.7179
7.59644
104.266
11.5242
65.0554
-30.357
37.1289
187.15
50.2785
9.19955
-12.2029
-16.4103
44.4521
188.329
58.3715
67.8282
104.115
890.754
944.381
816.13
865.793
887.432
985.899
867.885
878.893
917.572
929.954
989.177
958.302
939.276
913.21
795.046
943.191
903.616
984.489
894.958
947.627
988.892
881.605
1039.48
874.927
908.367
918.029
999.975
737.326
850.266
573.17
486.445
499.581
550.477
853.421
655.086
499.662
767.688
672.596
616.356
700.761
881.638
690.584
786.148
585.216
559.206
22.9206
123.226
86.8642
-3.62462
-6.04756
3.19854
1.96096
7.14209
14.502
35.7422
114.266
69.2361
240.611
30.9527
135.14
198.993
219.508
217.853
352.794
233.843
-116.878
22.9727
27.1921
156.849
-125.105
3.04489
34.6629
36.1383
-19.3574
18.4721
16.5396
37.125
18.3068
1.85993
18.2049
79.5363
10.073
-1.43207
31.2569
19.8027
22.4051
0.634147
21.4543
-5.55899
-8.24309
-5.59808
-5.00869
-8.04195
-9.4976
-6.36103
1.32971
3.21436
4.39093
4.76878
3.79409
6.30805
6.59897
6.16483
3.7247
4.26541
6.11833
6.51724
6.04594
6.08511
5.9652
6.17391
5.94483