/*--------------------------------*- C++ -*----------------------------------*\
| =========                 |                                                 |
| \\      /  F ield         | OpenFOAM: The Open Source CFD Toolbox           |
|  \\    /   O peration     | Version:  v2012                                 |
|   \\  /    A nd           | Website:  www.openfoam.com                      |
|    \\/     M anipulation  |                                                 |
\*---------------------------------------------------------------------------*/
FoamFile
{
    version     2.0;
    format      ascii;
    class       volVectorField;
    location    "0.35";
    object      U;
}
// * * * * * * * * * * * * * * * * * * * * * * * * * * * * * * * * * * * * * //

dimensions      [0 1 -1 0 0 0 0];


internalField   nonuniform List<vector> 
6576
(
(0.0330911 -1.48219 -0.0649998)
(-0.0909519 -1.53411 0.0766598)
(-0.0321669 -1.56706 0.0120496)
(0.0431279 -1.45211 -0.0612912)
(-0.00429979 -1.50673 0.00512448)
(-0.0782295 -1.59661 0.0775643)
(-0.016545 -1.54656 0.0309)
(0.0148872 -1.49719 0.00149588)
(0.0167189 -1.24755 -0.0101154)
(0.0170333 -1.45867 3.67591e-05)
(-0.0115549 -1.51354 -0.0164147)
(-0.0169034 -1.55454 -0.0118221)
(-0.00212956 -1.55045 0.0053348)
(0.00714142 -1.48764 -0.000774835)
(0.0597729 -1.45438 0.0230184)
(0.00825505 -1.82239 -0.0330248)
(0.0661186 -0.85821 0.0337359)
(0.0166302 -1.71857 -0.0168664)
(0.054939 -1.5602 0.0624221)
(0.0171016 -1.47983 0.00298602)
(0.0475569 -1.37443 0.0487231)
(0.00195028 -1.52657 0.0132102)
(0.0101033 -1.46684 0.00790017)
(-0.00489256 -1.49987 -0.0124712)
(0.00202296 -1.59834 0.0170218)
(0.0527656 -1.52828 0.0545041)
(0.0630277 -1.49305 0.0650084)
(0.000198228 -1.45748 0.0140553)
(-0.00582583 -1.58066 -0.0314468)
(0.00471379 -0.96333 -0.00792362)
(-0.0523102 -1.57464 0.0612172)
(-0.0271719 -1.4565 -0.00972803)
(-0.0112564 -1.55513 -0.000522994)
(0.0121713 -1.45834 0.0308637)
(0.0161658 -1.46749 0.0341979)
(-0.0191407 -1.25705 0.00993519)
(0.00180372 -1.64065 0.0125138)
(-0.0139783 -1.56811 0.0103753)
(0.0176808 -1.48096 0.0240165)
(0.0103035 -1.47767 0.018061)
(0.00228048 -1.31477 0.0300819)
(-0.0169996 -1.47709 0.00597583)
(-0.0010791 -1.40762 0.00529503)
(0.564305 2.66032 1.03438)
(0.305215 2.16472 0.413386)
(-0.23814 0.946832 -0.172908)
(-0.0976784 1.8068 0.65407)
(0.109866 2.00952 1.11181)
(-0.297336 0.673506 0.295202)
(-0.127993 0.909713 -0.051061)
(-0.342902 1.09624 -0.0583135)
(-0.245598 1.18282 0.395398)
(-0.0202313 1.69094 -0.747353)
(0.124349 1.59449 -0.0252506)
(0.125772 1.40464 -0.45226)
(0.191396 1.93191 -0.340715)
(0.208025 1.97842 -1.04207)
(0.356363 0.801915 -0.912974)
(0.0571315 1.74513 -0.196827)
(-0.150566 2.12981 -0.845616)
(-0.422006 2.28879 -0.0309588)
(0.170408 1.6969 -1.22124)
(-0.00192767 0.94872 -0.553913)
(0.188627 0.123557 -1.44287)
(-0.257758 1.31899 -0.523311)
(-0.540677 1.90989 0.433238)
(-0.0932835 0.232474 -0.111105)
(-0.0161425 0.19254 -0.0995981)
(0.0367329 0.21761 -0.372687)
(-0.30223 -0.21497 -0.15217)
(-0.253149 -0.0266346 -0.0452379)
(-0.08075 -0.217114 -0.332675)
(0.0153486 -0.125304 -0.415066)
(-0.0375277 -2.03143 0.386405)
(-0.068196 -1.52019 0.26265)
(-0.00313714 -2.59033 0.38065)
(0.0134582 -1.66124 0.0969881)
(0.0583363 -1.98473 0.0539383)
(0.0856256 -2.52166 -0.111513)
(0.0275028 -2.4636 0.0150351)
(0.00681283 -0.770235 0.714897)
(-0.11512 -0.546057 0.748234)
(-0.158956 -0.28666 0.486258)
(-0.191639 -0.912368 0.517343)
(-0.00889135 -1.47667 0.818207)
(-0.202156 -0.894836 0.585818)
(-0.332883 -0.521664 0.247799)
(-0.265068 -1.09656 0.668708)
(-0.57238 -0.758014 0.15969)
(0.213788 -1.1952 0.91875)
(0.0213222 -0.559835 -0.342091)
(0.194704 -0.774478 0.531987)
(-0.206694 -0.535457 -0.704393)
(-0.305319 -0.601163 0.15157)
(0.0176472 -0.0904686 2.98122)
(-0.0174186 0.206046 3.01893)
(0.148669 -0.154009 3.06288)
(0.0626554 0.336673 2.81365)
(-0.0114221 0.0512213 3.21414)
(0.0442223 -0.10109 3.17112)
(0.0314002 0.0560122 3.04209)
(-0.0379774 -0.0404012 3.41383)
(0.0623507 0.0883564 2.86175)
(0.0271435 0.154595 2.37781)
(0.0350038 0.152784 3.00256)
(-0.125122 0.0380731 3.27842)
(0.0222858 0.149731 2.80536)
(-0.112604 0.0393805 2.96432)
(0.115164 0.317762 1.90262)
(0.0421495 0.607916 1.12351)
(0.0669925 -0.0767231 0.828432)
(0.0615933 0.844181 1.93613)
(0.528399 0.107272 0.580266)
(0.210431 0.3301 0.350934)
(0.0715404 -2.36356 0.043714)
(0.00677411 -2.75647 0.0292384)
(0.0829383 -2.68645 0.0395417)
(-0.0422796 -2.85119 0.0632736)
(-0.0258218 -2.89413 0.101301)
(0.0393511 -2.84363 0.0635223)
(0.0469649 -2.8198 0.0762863)
(0.03791 -1.44626 0.070827)
(0.0832127 -1.57399 0.10479)
(-0.0191008 -1.48718 0.016194)
(-0.0270648 -1.53275 -0.0233448)
(-0.0722711 -1.44903 -0.0313952)
(0.130073 -1.6798 0.119057)
(0.179968 -1.46307 0.0658338)
(0.020282 -7.02373 -0.0385318)
(0.00361291 -6.88388 -0.0388886)
(0.0126184 -6.85291 -0.0224373)
(0.0305762 -6.81354 -0.051815)
(0.0448034 -6.97774 -0.0780288)
(0.0171211 -6.4874 -0.0460784)
(0.0172699 -6.81271 -0.044649)
(0.0276345 0.371803 0.96223)
(0.0806376 1.06255 1.46309)
(0.0787951 0.908999 1.26147)
(0.175805 -0.0554167 1.91783)
(0.0858335 0.111059 1.9179)
(-0.00296859 0.96066 2.05947)
(0.158495 0.84481 1.85211)
(-0.048342 -1.29282 -0.248111)
(-0.0228719 -0.472453 1.33283)
(0.11979 -0.514783 0.663665)
(0.165894 -1.51582 -0.11459)
(0.333242 -0.959507 0.567063)
(0.378185 -1.1342 0.308136)
(0.0698544 -1.53481 -0.390261)
(0.210293 -1.28754 -1.84667)
(0.0727713 -1.97525 -1.18172)
(0.131464 -0.726036 -2.32814)
(0.129833 -1.5453 -1.23857)
(0.278023 -0.682352 -1.5884)
(0.168236 -0.412346 -2.215)
(0.303903 -0.984241 -2.01249)
(0.0603263 -1.85772 -1.65696)
(-0.177387 -2.39783 -2.26754)
(0.0151439 -2.25303 -1.56225)
(0.0476681 -1.93995 -1.49482)
(-0.18288 -2.44758 -2.1802)
(-0.139942 -2.54005 -1.47997)
(-0.0586033 -2.27279 -1.15065)
(-0.193297 -2.39488 -1.77732)
(-0.0365022 -2.19169 -1.23833)
(-0.0313448 -2.12134 -1.91067)
(0.20044 -0.939002 -1.95775)
(0.333548 -1.39881 -1.92169)
(-0.183779 -2.305 -2.53848)
(-0.224954 -2.04895 -2.6364)
(0.25517 -1.01788 -2.24905)
(0.340509 -1.60412 -2.45546)
(0.112364 -1.11947 -1.1796)
(-0.0630234 -1.06298 -1.00584)
(0.0484477 -0.983955 -1.19685)
(0.11856 -1.57304 -1.38759)
(0.0213319 -1.3679 -1.18683)
(-0.0519748 -1.46907 -1.09375)
(-0.217011 -1.44033 -0.90967)
(-0.118893 -1.58181 -0.929823)
(0.0403412 -1.68024 -1.1508)
(0.0166369 -0.713346 -0.269151)
(-0.018026 -0.952163 -0.231093)
(0.0203447 -0.981433 -0.317848)
(-0.0266963 -0.827337 -0.212903)
(-0.109575 -1.0524 -0.149901)
(-0.0531982 -1.07459 -0.22425)
(-0.00530327 -1.02119 -0.234154)
(-0.0266165 -0.925083 -0.282838)
(-0.0348965 -1.05997 -0.347168)
(0.0456294 -0.937091 -0.102717)
(0.0149607 -0.918143 -0.0756339)
(0.00106093 -0.868941 -0.0288847)
(-0.149743 -0.781078 -0.176932)
(-0.0276694 -0.927134 -0.21213)
(-0.111656 -0.808533 -0.106603)
(0.0830684 -1.0546 -0.283881)
(0.00789141 -1.46299 -0.100802)
(-0.0037898 -1.0945 0.0446416)
(0.118402 -0.962818 -0.00263634)
(-0.0125339 -0.4401 0.0862941)
(0.0967679 -1.24777 -0.0515715)
(0.286223 -1.27577 -0.11878)
(0.239253 -0.674107 -0.196992)
(0.00946093 -0.942503 -0.405367)
(-0.00919347 -0.722917 -0.14522)
(0.243995 -0.369299 -0.169107)
(0.0813876 -1.03531 -0.0457655)
(0.038584 -1.13145 0.100997)
(-0.0231514 -1.09488 0.111343)
(0.118219 -0.790414 0.012952)
(-0.0393113 -6.85593 -0.147555)
(0.00654907 -6.73651 -0.158815)
(0.0205962 -6.73139 -0.196291)
(-0.021543 -6.98731 -0.265727)
(-0.101614 -7.13019 -0.325163)
(-0.109051 -7.11823 -0.225549)
(-0.0108248 -6.72157 -0.188482)
(0.0536919 -0.356382 0.136378)
(0.0273921 -0.373923 -0.0411725)
(0.0517726 -0.624501 0.046592)
(-0.285945 -0.0763153 0.11518)
(-0.256955 0.178505 0.00898935)
(-0.197596 -0.000871718 -0.0795969)
(-0.161799 -0.38156 0.0235614)
(-0.0523629 -0.0136284 0.00562006)
(-0.0978025 0.0106138 0.012765)
(0.055768 -0.11411 -0.0558073)
(0.0475493 -0.0163371 -0.0842268)
(-0.0100374 -0.0024442 -0.108654)
(0.0211674 -0.213225 -0.115254)
(0.0582207 -0.270173 -0.0348355)
(-0.0128527 -0.321237 -0.180412)
(0.0348487 -0.277241 -0.215239)
(-0.107521 -0.180401 -0.26291)
(-0.0224688 -0.445067 -0.233291)
(-0.0184292 -0.536991 -0.225644)
(-0.0462166 -0.494079 -0.25311)
(-0.242399 -0.45244 -0.327205)
(-0.157867 -0.469754 -1.05113)
(-0.0245696 -0.470892 -0.617694)
(-0.0475409 -0.541886 -0.962752)
(0.140803 -0.28923 -0.743302)
(0.0195972 -0.0830686 -0.722628)
(0.0283656 -0.358769 -0.96548)
(-0.0767349 -0.156385 -0.893107)
(-0.0307756 -0.975722 -1.53261)
(-0.108253 -1.01327 -1.97965)
(-0.0856019 -0.622443 -2.16778)
(-0.00533827 -0.349953 -1.42998)
(0.017798 -0.721236 -1.33875)
(-0.0235535 -0.275576 -1.74084)
(-0.0177097 -0.632808 -1.63738)
(0.0093114 -0.785961 -2.01774)
(0.201579 -0.239071 -2.06753)
(-0.0170247 -1.3988 -2.15117)
(0.0895128 -0.845315 -2.5639)
(-0.116291 -0.511366 -3.06766)
(-0.278458 -1.86622 -2.78546)
(-0.323505 -1.53671 -3.27723)
(-0.353498 -1.43265 -2.92453)
(-0.54214 -1.22242 -3.68899)
(-0.0115049 6.61226 0.328788)
(-0.0686626 6.25693 0.376373)
(-0.0875324 6.02107 0.728516)
(-0.0811682 6.40735 1.10916)
(0.0290966 6.47474 0.699975)
(-0.0882538 6.30438 0.790165)
(-0.164609 6.22279 1.145)
(0.0305235 0.10355 -1.57624)
(-0.410585 0.354848 -1.98052)
(-0.0440834 0.394152 -1.03389)
(0.117231 0.0792369 -1.58608)
(-0.188506 0.454481 -1.77186)
(0.08191 0.756729 -1.06559)
(0.174447 0.505455 -1.07472)
(-0.0963306 0.819146 -1.62307)
(0.0211085 0.337947 -1.41225)
(-0.129527 0.977955 0.0977865)
(0.128197 0.81462 -0.0425823)
(0.056282 1.12404 0.00439279)
(0.104092 0.967289 -0.0432517)
(0.0670688 1.14207 0.0693517)
(-0.0824037 1.21798 -0.242133)
(-0.0223833 1.23716 -0.0558367)
(-0.00435488 1.29895 0.168249)
(-0.00677254 1.28119 0.176842)
(0.00900602 1.42253 0.138147)
(0.0347725 1.54307 -0.00439516)
(0.00085575 1.49272 0.0546239)
(0.0173029 1.38845 0.0751428)
(0.00540604 1.38206 0.0568679)
(0.0488322 1.50271 -0.0351362)
(0.00290155 1.44825 0.0116756)
(0.180711 0.926725 -0.0403832)
(0.200207 0.885923 -0.0281384)
(0.109483 0.965322 -0.099203)
(0.0337204 1.33942 0.00245917)
(-0.0417909 1.1446 0.00309161)
(-0.000620794 1.38303 -0.0491288)
(-0.0080451 1.24307 -0.00827862)
(-0.0199361 1.29246 0.0255092)
(0.000245284 1.42328 -0.0820051)
(-0.00606011 1.29901 -0.0352015)
(-0.100271 1.09681 0.0777521)
(-0.189876 1.07552 0.292864)
(0.045823 1.20079 0.168031)
(-0.0398102 1.10028 0.407095)
(-0.0647744 1.03035 0.133235)
(0.0628324 0.987379 0.180478)
(0.0373952 1.1643 0.51749)
(-0.0188346 -2.07562 -0.0669432)
(-0.0253548 -2.06566 -0.053993)
(0.0159203 -2.0384 0.0049329)
(-0.0158004 -2.04405 -0.0645912)
(-0.014835 -2.04717 -0.0402284)
(0.020008 -2.01361 -0.0245026)
(0.0106286 -2.00564 0.00167038)
(0.0285162 -2.01803 -0.0135474)
(0.0462407 -1.98831 -0.0669466)
(-0.011595 -0.511035 0.576784)
(0.012927 -0.22167 0.554869)
(0.155649 -0.123903 0.401066)
(-0.0149336 -0.43918 0.638077)
(0.164075 -0.272135 0.561741)
(0.0928845 -0.229489 0.43568)
(0.165301 0.0656737 0.332423)
(-0.0841376 1.52483 0.323436)
(0.0264889 1.62328 0.452588)
(-0.0784433 1.4577 0.344286)
(-0.0739822 1.61135 0.421938)
(-0.119091 1.62473 0.56136)
(-0.10406 1.61555 0.218454)
(-0.103061 1.61793 0.26463)
(-0.23697 1.91274 0.119928)
(0.00480985 1.17295 0.660917)
(-0.00641309 1.41548 0.563463)
(0.0357014 1.87803 0.20554)
(0.00484681 1.67048 0.286062)
(0.0455391 1.83497 -0.0182394)
(-0.00827752 1.68032 0.0917395)
(0.114792 1.80686 0.102909)
(0.0910631 1.97005 0.0195521)
(0.0208025 1.83414 -0.126648)
(-0.106926 1.72985 -0.389867)
(-0.00250498 2.00618 -0.212615)
(0.0807889 1.56067 -0.160958)
(-0.0386761 1.50168 -0.369988)
(0.00357845 1.59904 -0.112603)
(-0.0661739 1.47381 -0.095637)
(-0.047464 1.38289 -0.209281)
(0.0722247 1.46441 -0.159118)
(0.105217 0.0848384 -2.91505)
(-0.231345 -0.101874 -1.85831)
(-0.391375 -0.0812967 -0.768458)
(-0.312859 -0.0925408 -2.58641)
(-0.0317202 0.212086 -3.06677)
(-0.248191 -0.0799363 -1.96695)
(-0.0252678 0.132058 -2.3391)
(0.0402223 -0.0248498 -0.564229)
(-0.148165 0.050132 -0.843972)
(0.0928992 0.013558 -0.441814)
(-0.275835 0.112653 -1.40283)
(-0.198628 0.339763 -1.5547)
(0.06372 1.01868 -1.47272)
(0.00286535 0.729117 -1.71446)
(-0.000455698 0.980172 -0.699401)
(0.0249639 0.320597 -0.602651)
(-0.0542249 0.709627 -1.99649)
(-0.309653 1.05487 -1.63363)
(0.0429223 0.472692 -2.35866)
(-0.0137026 0.368216 -2.47388)
(0.026244 0.333416 -2.52181)
(-0.158852 0.921111 -2.01839)
(-0.0647165 0.520532 -2.26575)
(-0.0373188 0.762776 -0.970843)
(-0.208654 1.06813 -0.501508)
(0.0651439 0.656446 -1.44127)
(-0.00532975 0.484625 -1.52346)
(-0.0168311 0.505321 -1.91053)
(-0.253259 1.07223 -0.641684)
(-0.0822884 0.796867 -1.19294)
(-0.0762835 0.271944 0.225834)
(0.0192187 0.222711 0.3584)
(-0.0053013 0.330191 0.168959)
(-0.00358266 0.355909 0.393369)
(0.0337112 0.511372 0.275745)
(-0.0777124 0.477899 0.347583)
(-0.0678513 0.569684 0.224035)
(-0.0453255 0.384645 0.167482)
(-0.110066 0.339215 0.24302)
(0.0336048 -0.727232 0.473463)
(-0.0506116 -0.697365 0.398693)
(-0.00892849 -0.749422 0.361001)
(-0.0379632 -0.779705 0.453443)
(0.0207442 -0.836803 0.452496)
(-0.0544104 -0.722092 0.501684)
(0.0408804 -0.804405 0.503752)
(0.000740574 -0.487924 0.156482)
(-0.0058006 -0.555697 0.184778)
(0.0174462 -0.420193 0.136467)
(-0.0245636 -0.589351 0.100788)
(-0.0136171 -0.58608 0.122473)
(-0.0121182 -0.53942 0.103855)
(-0.00473987 -0.567596 0.128997)
(-0.0196591 -0.466551 0.151866)
(-0.023785 -0.506338 0.173169)
(-0.017583 -2.39009 -0.131563)
(0.0103337 -2.51623 -0.10637)
(0.029995 -2.57855 -0.12314)
(-0.0273601 -2.52358 -0.165995)
(-0.00488286 -2.55058 -0.142853)
(0.00825946 -2.54289 -0.143533)
(-0.00283132 -2.55264 -0.160772)
(0.00154905 -2.24567 -0.07903)
(0.00440003 -2.21703 -0.072114)
(0.000381811 -2.2101 -0.0802376)
(-0.0025841 -2.21249 -0.0966422)
(-0.0117113 -2.23953 -0.094124)
(-0.0204333 -2.24446 -0.0999865)
(-0.00649789 -2.19729 -0.0928519)
(0.0190129 0.939548 -1.16855)
(-0.100594 0.886609 -1.41072)
(0.0429309 0.911968 -1.20721)
(-0.0625086 0.787468 -1.7822)
(0.0976618 0.896476 -1.45634)
(-0.0889176 0.758292 -1.75399)
(0.0934257 0.86185 -1.50857)
(0.0288651 1.24841 -1.37894)
(-0.0225116 1.26289 -1.15117)
(-0.00757327 1.24737 -0.98575)
(0.0229712 1.47287 -1.33998)
(0.0397588 1.57849 -1.60357)
(0.0303222 1.65034 -1.23243)
(-0.0219463 1.50589 -1.08715)
(0.0371147 2.22514 -1.01192)
(-0.15371 2.03466 -1.6206)
(-0.0295368 2.04245 -1.30767)
(0.0418683 2.5907 -1.05562)
(-0.0332981 2.57257 -1.54648)
(-0.102376 2.23062 -1.8263)
(-0.0355108 2.29317 -1.39847)
(-0.00702451 2.74877 -0.504828)
(0.0111345 2.7746 -0.294821)
(0.0529562 3.08289 0.0175998)
(0.0240364 3.0556 -0.552756)
(0.00495554 2.98067 -0.280405)
(-0.00359397 3.05468 -0.00129747)
(0.0612859 3.43462 -0.192849)
(0.00527292 3.28761 -0.0944349)
(0.0131384 3.5003 -0.354641)
(-0.0969503 2.13915 0.132074)
(-0.0848508 2.12599 0.277465)
(0.0100444 2.17362 0.407573)
(0.0406484 2.30204 0.391728)
(-0.00513712 2.22892 0.0917468)
(-0.0514933 2.18595 0.286281)
(-0.0883672 2.14689 0.129876)
(-0.0646374 1.48054 0.0441717)
(0.0494365 2.20658 0.0490314)
(0.0354892 2.17375 0.0419774)
(-0.0582761 2.64701 -0.0220902)
(-0.0925465 2.2811 0.01004)
(0.0303204 2.4563 0.0358133)
(0.00597664 2.36445 0.06336)
(0.0189728 2.41683 0.12998)
(-0.154921 2.27748 0.138966)
(-0.0445631 2.40153 0.0878783)
(0.0718449 2.35573 0.0560995)
(0.0187655 2.34792 0.0977251)
(-0.100232 2.28836 0.0926804)
(0.0149448 2.40906 0.0472279)
(0.00269742 2.90801 0.155479)
(0.00401824 2.63684 0.138717)
(0.013527 2.58163 0.080339)
(-0.00393573 2.69961 -0.0571806)
(-0.00783261 2.89436 0.0652992)
(0.0170658 2.66287 0.0642492)
(0.0145007 2.55856 0.0320364)
(-0.0330749 2.67887 0.0224141)
(-0.0545994 2.86463 -0.0120656)
(-0.013718 2.6313 0.125676)
(-0.0127352 2.53389 0.077917)
(-0.0546948 2.47989 0.00979278)
(-0.0100856 2.55368 0.105425)
(0.0284032 2.54916 0.103722)
(0.0576116 2.88097 0.0187188)
(0.0156781 2.27698 0.0105407)
(0.156529 2.80961 -0.0143384)
(-0.0187735 2.26987 0.0806825)
(-0.0363682 1.54987 0.0419413)
(-0.035467 2.32927 0.0539339)
(0.062377 2.73105 1.24119)
(0.10397 2.7795 0.906614)
(-0.0228861 2.73343 1.38736)
(0.0515196 2.66182 0.698987)
(0.0146059 2.54151 1.01931)
(-0.0641568 2.39634 1.29032)
(0.0359704 2.43915 0.863267)
(0.126682 3.33723 0.875734)
(-0.0886065 3.31727 0.928392)
(-0.123366 3.1939 1.07461)
(0.110082 3.17466 0.512323)
(0.0664555 2.98233 0.729825)
(-0.0491407 2.97604 0.807454)
(-0.180717 2.71681 1.07473)
(0.120909 2.75612 1.04845)
(-0.035725 2.79228 1.14854)
(0.0408439 2.8165 0.963161)
(-0.0268529 1.99292 0.991973)
(-0.027368 2.16746 0.65491)
(-0.0636279 2.23962 0.829654)
(0.00939851 1.75574 0.903943)
(0.000320302 1.58785 0.686545)
(0.0229045 1.97971 0.751392)
(0.0105074 1.96196 0.628047)
(0.0099967 1.96583 0.658377)
(-0.045807 2.1639 0.765846)
(-0.100213 1.73171 1.16904)
(-0.098817 1.92175 1.0868)
(-0.0626668 1.78339 1.12867)
(-0.094945 1.4938 0.789482)
(-0.108627 1.69867 0.614355)
(0.0454612 1.89337 1.28376)
(0.0601784 1.82058 0.644588)
(-0.034568 1.72065 0.7712)
(-0.148458 1.94537 1.09464)
(0.0297422 1.22146 0.422113)
(0.0424138 1.45366 0.791299)
(0.107228 1.13341 0.633135)
(0.180501 0.989496 0.176798)
(0.087327 1.31542 0.515133)
(0.110032 1.04883 0.519734)
(0.139458 0.725861 0.319055)
(0.00821028 1.18242 -0.220831)
(0.0292519 1.28829 -0.290976)
(0.0335569 1.28722 -0.393387)
(-0.00106459 1.19169 -0.304058)
(0.0123702 1.17257 -0.230734)
(0.01829 1.25247 -0.362058)
(0.0301036 1.22748 -0.265736)
(0.0298358 1.26546 -0.287138)
(0.040175 1.27284 -0.364242)
(0.0260215 0.98817 -0.750362)
(0.0154858 0.905397 -0.720387)
(0.00203492 0.952718 -0.634816)
(0.0179008 0.98418 -0.584776)
(0.0169234 0.995571 -0.591283)
(0.0149465 0.936123 -0.65661)
(0.0319253 1.02979 -0.656488)
(-0.0149425 0.690266 -0.423169)
(0.0232219 0.847667 -0.520874)
(0.04671 0.939323 -0.564553)
(0.00529635 0.695147 -0.543788)
(-0.0306798 0.665094 -0.446698)
(0.0305449 0.756672 -0.488351)
(0.0410713 0.804582 -0.563295)
(-0.0109514 0.715826 -1.00173)
(0.0102892 0.730266 -0.713148)
(0.0638416 0.853547 -0.815486)
(-0.0283586 0.549867 -0.783709)
(0.0504384 0.648583 -0.697248)
(0.0733458 0.683588 -0.848337)
(-0.0309996 0.518905 -0.956227)
(0.0241443 -0.631095 -1.45334)
(-0.0919124 -0.936314 -1.67888)
(-0.0605901 -0.897074 -1.4401)
(-0.076874 -0.295814 -1.57565)
(0.158298 -0.159952 -1.85976)
(0.0247908 -1.05358 -1.16515)
(-0.0422046 -1.14709 -1.0125)
(0.0161472 -0.998675 -0.851422)
(-0.0464132 -0.727498 -0.713173)
(-0.0449892 -0.560344 -0.771795)
(-0.142086 -0.878076 -0.8493)
(-0.0744158 -0.617401 -0.884873)
(0.0531372 -1.21312 -0.861344)
(0.0486169 -1.25983 -0.807233)
(0.00646052 -1.15477 -0.526728)
(0.0348078 -1.02282 -0.530926)
(0.0035008 -1.12112 -0.457389)
(0.00129567 -1.13651 -0.682075)
(-0.0237576 -1.06254 -0.745982)
(0.0893216 -1.12451 -0.437088)
(-0.0130634 -1.17581 -0.293968)
(-0.0240538 -1.06607 0.0404796)
(0.0990455 -0.92185 -0.377776)
(-0.0326426 -0.87758 -0.166921)
(0.0827771 -0.883977 -0.269367)
(0.121882 -0.983264 -0.401405)
(-0.0326397 -0.339201 -0.178988)
(-0.0115246 -0.227508 -0.206798)
(0.0530259 -0.251604 -0.18824)
(0.0740943 -0.00469215 -0.331826)
(-0.0737676 0.103631 -0.486275)
(-0.0713892 -0.0585644 -0.334476)
(0.00603704 -0.204192 -0.220266)
(0.0110423 -1.03342 -0.12569)
(0.0511577 -0.980566 -0.287884)
(0.0591029 -0.756355 -0.300838)
(-0.0370134 -1.06496 -0.181454)
(-0.0836458 -1.11525 -0.246424)
(0.0414258 -1.09834 -0.269362)
(-0.010735 -1.2012 -0.299168)
(0.0126997 -1.23942 -0.265656)
(0.0635927 -0.9951 -0.289417)
(-0.081296 -0.925221 0.225378)
(-0.0405192 -0.866457 0.140664)
(0.0133484 -0.840339 -0.0155087)
(-0.0233631 -0.869923 0.0734555)
(-0.0305183 -0.95345 0.107291)
(-0.0152047 -0.780014 -0.0778721)
(0.00184273 -0.973593 -0.0508981)
(0.036243 0.7363 0.654798)
(0.08118 0.617307 0.397065)
(0.0219508 0.640388 0.269121)
(-0.0138008 0.69336 0.318984)
(-0.00924164 0.624775 0.0180604)
(0.0882766 0.581046 0.235447)
(0.02196 0.723352 0.537925)
(-0.0477853 0.397702 0.25537)
(-0.0635721 0.365884 0.231704)
(-0.00796997 0.353256 0.310412)
(-0.0233545 0.410858 0.315484)
(-0.0215498 0.344959 0.242146)
(0.0101224 0.417483 0.480346)
(0.0264276 0.375381 0.38804)
(0.0312274 0.609365 0.211541)
(-0.0760907 0.676541 0.158429)
(0.00160971 0.446795 0.138314)
(0.0312258 0.396833 0.183042)
(0.044056 0.417152 0.246555)
(0.00132374 0.484063 0.249584)
(-0.0412511 0.459292 0.188672)
(-0.05138 0.678991 0.265464)
(-0.026887 0.801395 0.263459)
(0.00242293 0.853563 0.281737)
(-0.0303792 0.764222 0.294297)
(-0.0122109 0.86163 0.295051)
(0.0178894 0.869731 0.33856)
(0.00854043 0.921786 0.343152)
(0.0232312 0.89894 0.376957)
(0.0700354 1.0424 0.294909)
(-0.00230137 0.690854 0.401932)
(-0.00869443 0.781628 -0.0466059)
(-0.0214125 0.645906 0.117008)
(0.0131614 0.975842 0.0133067)
(-0.0508935 0.95597 0.161397)
(0.0502573 0.941748 -0.0653009)
(0.0574662 0.806857 0.0314075)
(-0.0361773 1.01053 -0.00340535)
(-0.0622141 0.920846 0.0194454)
(0.0178389 1.10931 -0.0869112)
(0.0205672 1.05148 0.0127643)
(0.0735861 1.12323 0.056694)
(0.0351152 1.03956 -0.0322246)
(0.0483911 1.0614 0.00946094)
(-0.0343578 0.969083 -0.0123126)
(0.00119846 1.01739 -0.00398253)
(0.0296538 0.970637 0.136879)
(-0.00359101 0.96936 0.118138)
(0.0101919 1.18806 0.0781845)
(-0.0124615 0.95235 0.0563935)
(-0.0184275 1.00272 0.0313156)
(-0.0898567 0.873784 0.0168657)
(-0.0104407 0.882062 0.0906281)
(-0.0669817 0.938863 0.0467339)
(0.00414711 1.01024 0.0964944)
(0.0067082 0.990409 0.024064)
(0.0174996 0.938714 0.000837537)
(-0.052945 1.10396 -0.00311394)
(0.00652428 1.01385 -0.00552067)
(0.0274642 1.15028 0.0909463)
(0.0565952 1.13654 0.0443445)
(-0.0209997 1.00021 0.0366297)
(-0.126025 1.43035 -0.0574177)
(-0.00478143 1.35664 0.0557428)
(0.00352879 0.894967 0.00885852)
(0.0312407 1.37562 0.0878569)
(-0.0631901 1.21857 0.00180114)
(-0.136078 1.38819 -0.0353434)
(0.0384122 1.40406 -0.0258384)
(0.00343977 1.33854 -0.0110513)
(0.0124088 1.1517 -0.0263206)
(0.0254747 1.46132 -0.0126851)
(0.0355097 1.52196 -0.020105)
(0.0174142 1.65099 -0.167222)
(-0.0697831 1.67569 -0.0529559)
(-0.0236903 1.66013 0.1685)
(0.0243968 1.67311 -0.0387175)
(-0.024569 1.7128 0.0546128)
(0.0796541 1.62114 0.110276)
(0.0333096 1.67541 0.206497)
(0.0198073 1.39834 -0.0235333)
(-0.0233142 1.30731 0.0317715)
(0.0316575 1.40868 0.058489)
(0.0741608 1.5204 0.0672887)
(0.0289854 1.53358 -0.0310409)
(0.00639687 1.45009 -0.16034)
(-0.0153229 1.30038 -0.0388459)
(-0.014647 1.33145 -0.0744019)
(0.130927 1.9841 0.0486737)
(-0.181934 1.91544 -0.226741)
(-0.0387668 1.52356 -0.287912)
(0.490943 2.72318 0.430966)
(-0.136006 2.2735 -0.251065)
(0.0915256 1.90322 -0.644303)
(-0.0757514 1.90328 -0.524225)
(0.0183365 1.39343 -0.191349)
(0.0543025 1.43013 -0.38065)
(0.0232911 1.40417 -0.19764)
(-0.0695379 1.8075 -0.153334)
(0.0263969 1.55396 -0.195431)
(0.0570335 0.815744 -0.923081)
(-0.0812123 1.08228 -1.19275)
(-0.0183931 0.869767 -0.768506)
(-0.103157 1.20792 -0.505975)
(0.0321861 1.36033 -0.488839)
(0.0499926 1.6387 -0.591247)
(-0.0571634 1.1781 -0.664194)
(0.0241419 0.321813 -2.29333)
(-0.346181 0.259837 -1.968)
(-0.339058 0.0473743 -1.73088)
(0.0382656 0.0236145 -2.74974)
(0.0213651 0.00418619 -2.77501)
(-0.02567 -0.0344784 -2.83124)
(-0.00524396 -0.0826577 -2.80305)
(-0.044513 -0.0407179 -2.93717)
(-0.0190432 0.0197189 -2.80616)
(0.00390269 0.0189066 -2.81546)
(0.0469044 0.113944 -2.59778)
(0.144446 -0.149244 -2.81059)
(-0.00892388 0.233867 -2.53125)
(0.0402567 0.13031 -2.74945)
(0.00785036 0.0263042 -2.69713)
(0.0098131 0.0325223 -2.71687)
(-0.00363398 0.136193 -2.70744)
(0.00737219 -0.000718986 -2.6603)
(0.00526008 0.0648088 -2.68836)
(0.0346251 0.130936 -2.4768)
(0.0178326 0.0156624 -1.82827)
(-0.0298909 0.140626 -2.59448)
(-0.0197963 -0.0993957 -2.77883)
(-0.0387042 -0.0446966 -2.75077)
(-0.0372462 0.0264315 -2.14632)
(-0.00839677 -0.0455328 -2.82942)
(-0.0279318 -0.0499961 -2.82802)
(-0.06446 0.037338 -2.68775)
(-0.0791062 0.0599655 -2.72003)
(-0.011171 -0.033433 -2.79324)
(-0.00750703 -0.00885105 -2.78157)
(0.0139076 0.0366023 -2.49902)
(0.0668358 0.0787653 -2.66402)
(-0.0488935 -0.0451344 -1.75502)
(-0.0151104 0.00564338 -2.68072)
(-0.00564854 -0.0045705 -2.75691)
(-0.0396631 -0.0731481 -2.63954)
(-0.00673221 -0.00633205 -2.75417)
(0.031802 -0.00960037 -2.68994)
(-0.0141926 0.00752224 -2.76768)
(0.000582052 0.00197101 -2.84069)
(-0.0122398 0.0194658 -2.65574)
(-0.0185512 -0.0246046 -2.65364)
(0.0031969 -0.0634211 -2.54204)
(0.00436378 -0.0301784 -2.52344)
(-0.0309322 -0.0230717 -2.57888)
(-0.00717274 -0.0594205 -2.56419)
(0.0191933 -0.0470097 -2.47795)
(0.00787342 -0.00912293 -2.77274)
(0.0147296 -0.0409637 -2.80528)
(0.00480488 0.0534391 -2.5673)
(-0.0643117 0.0569833 -2.65746)
(-0.00620281 -0.0599756 -2.78104)
(-0.0396843 -0.0725726 -2.78182)
(-0.0605353 -0.0563605 -2.7775)
(-0.0141078 -0.0468947 -2.95885)
(0.00915442 -0.030953 -2.96934)
(0.00259752 -0.0524662 -2.85802)
(0.00821848 0.0415741 -2.95763)
(0.0257994 0.0148836 -2.95739)
(0.0123933 -0.00797202 -2.95967)
(0.0165658 0.0139644 -2.97935)
(-0.0238271 -0.0619973 -2.97959)
(-0.0458324 -0.0339163 -2.84003)
(0.0151384 -0.0883541 -3.04759)
(0.037434 -0.0850362 -3.04883)
(0.0131516 -0.0607504 -2.97709)
(0.0161694 -0.0483775 -2.99964)
(0.0107633 -0.0657097 -2.99262)
(-0.10327 -0.136562 -0.788755)
(-0.073893 -0.079271 -0.735875)
(0.0157523 0.037904 -0.716638)
(-0.0583022 -0.106158 -0.871984)
(-0.00294881 -0.0765918 -0.843933)
(-0.00951361 -0.00193275 -0.782315)
(0.0740637 0.0233462 -0.58842)
(0.0297301 -0.0273621 0.188001)
(-0.0373483 0.105338 0.0910246)
(0.12222 -0.0960788 0.218328)
(-0.0844013 0.215327 -0.0160837)
(0.131714 -0.124573 -0.00189017)
(0.157207 -0.28729 0.194535)
(0.0654442 -0.0471577 0.171005)
(-0.00775883 -0.15174 0.248589)
(0.104126 -0.0772541 0.211482)
(-0.00860343 0.0706549 0.300478)
(-0.0497339 0.0050497 0.341484)
(-0.0283122 -0.0890348 0.392547)
(-0.0626101 -0.00348216 0.476959)
(-0.0465263 0.124877 0.472899)
(0.05112 0.269615 0.296871)
(0.0170418 0.283436 0.295598)
(0.038929 0.112245 0.365151)
(-0.113775 0.196221 0.315148)
(-0.0945807 0.224207 0.334659)
(-0.1587 0.354935 0.368681)
(-0.0217364 0.339172 0.425452)
(-0.0392464 0.185473 0.492573)
(-0.0944983 0.310412 0.455942)
(-0.0882621 0.505461 -0.191584)
(-0.100584 0.42227 -0.0334995)
(0.000481257 0.416959 -0.0130869)
(0.00299809 0.266545 0.239863)
(0.0665645 0.185265 0.0787803)
(-0.116643 0.304917 0.234438)
(-0.0345604 0.27179 0.0905267)
(-0.14996 0.432746 0.0859969)
(-0.107776 0.421606 -0.0373389)
(0.00876221 -1.08796 0.123958)
(0.0196501 -1.06856 0.127836)
(-0.011048 -1.02198 0.0885072)
(0.00630936 -1.06829 0.125842)
(0.0295629 -1.06972 0.145189)
(-0.0163479 -1.03769 0.126492)
(0.0105765 -1.03472 0.155138)
(0.415762 -2.84872 0.130146)
(-0.0329816 -2.03983 -0.717564)
(0.0576669 -2.2129 0.129297)
(0.120869 -2.40557 -1.02768)
(0.0802798 -2.06594 -0.614966)
(-0.0450993 -1.81694 0.0147759)
(0.357342 -2.64914 -0.320802)
(-0.338219 -2.54118 -0.131346)
(-0.00978299 -2.32159 0.0363697)
(-0.0335197 -2.58307 -0.185548)
(-0.185079 -2.28726 -0.380654)
(0.293287 -1.8294 0.185995)
(0.0740141 -2.33162 -0.417203)
(-0.0144861 -2.42285 -0.725938)
(-0.134421 -2.24038 -1.55153)
(-0.0645816 -2.08457 -1.98893)
(-0.0413316 -2.68323 -0.963364)
(0.0747609 -2.3398 -1.07806)
(0.146799 -1.99424 -1.36265)
(-0.0182087 3.35319 -2.46518)
(0.129418 3.09736 -2.56837)
(0.0795515 3.03222 -2.41627)
(-0.0721696 3.51403 -1.91282)
(-0.00253084 3.76385 -2.07033)
(0.102649 3.44967 -2.32568)
(-0.0487303 3.34405 -2.02642)
(-0.110508 4.39024 -1.5528)
(0.0406639 4.80181 -0.956485)
(-0.27631 4.3869 -1.88636)
(-0.0385804 4.67691 -0.657631)
(-0.027351 5.10914 -0.988769)
(-0.150997 4.65246 -1.72653)
(-0.099254 4.50176 -1.27616)
(0.0429933 2.7959 0.251877)
(0.126637 2.81503 0.0564274)
(0.0805503 2.5733 0.169893)
(0.0463205 2.73099 0.0788444)
(-0.165525 2.6638 0.177098)
(-0.165198 2.51293 0.0291421)
(-0.135846 2.42357 -0.116317)
(-0.0172021 1.1431 0.0392624)
(-0.0428877 1.7204 0.0462687)
(-0.0416263 1.64959 0.0895737)
(-0.0307445 2.18231 -0.020827)
(-0.0317233 1.84366 0.00773062)
(-0.0331246 1.99977 0.0148419)
(-0.0184783 1.85601 0.0646386)
(-0.0328346 1.96064 0.139738)
(0.0519601 1.91566 0.11797)
(0.0680113 1.84423 0.130436)
(-0.103558 1.72023 0.110073)
(-0.0497688 1.73753 0.120734)
(-0.114708 1.71841 0.109835)
(-0.0384722 1.70453 0.106903)
(0.00713182 1.92807 0.0167502)
(0.0273891 1.54298 -0.0188129)
(-0.00505401 1.88697 0.0643583)
(-0.0190678 2.02475 -0.0265091)
(-0.00852951 1.88069 0.00982031)
(-0.0148741 1.88808 0.0722892)
(-0.0561978 1.98978 -0.0274112)
(-0.0205094 2.08158 0.0231661)
(0.00664444 1.86356 0.0525416)
(0.0190518 2.0456 0.0782221)
(-0.0503867 1.96836 0.0925816)
(-0.0494137 1.86589 0.238473)
(-0.0140005 1.87166 0.157091)
(0.0367134 1.64031 -0.0391685)
(0.0633049 2.23255 0.0564634)
(-0.0143438 2.40464 0.221545)
(-0.0120606 2.16032 0.193768)
(-0.0190425 2.08974 0.103031)
(0.0807179 2.18691 0.00873249)
(-0.00131054 2.0071 0.0106588)
(0.00313603 2.10548 0.0609821)
(0.011505 2.40476 0.0510889)
(0.00817006 2.40845 0.0763967)
(-0.074235 2.38776 0.0604515)
(-0.00706511 2.30546 0.236417)
(-0.00752435 2.22951 0.256127)
(-0.0631869 2.35135 0.208539)
(-0.00258981 2.20721 0.254008)
(-0.0535246 2.23486 0.261205)
(-0.111662 2.3637 0.230806)
(-0.0203204 2.25402 0.232926)
(-0.0239455 2.16553 0.621306)
(-0.0503643 2.1088 0.651305)
(-0.00551877 2.15562 0.510992)
(0.00465916 2.12717 0.460702)
(-0.0214859 2.11809 0.473005)
(-0.0682526 2.16194 0.585596)
(-0.0371136 2.172 0.581152)
(-0.0137873 1.75953 0.510338)
(0.0311441 1.65955 0.53162)
(0.0374558 1.68466 0.50133)
(0.0281161 1.79964 0.369308)
(-0.019956 1.76377 0.389243)
(0.0171881 1.69794 0.409213)
(0.0633206 1.64222 0.39834)
(-0.0130605 1.48181 0.663456)
(-0.0548851 1.55143 0.812732)
(-0.0241544 1.52542 0.632187)
(0.0527134 1.28559 0.161129)
(0.0016355 1.15191 0.19075)
(-0.0508583 1.35696 0.140715)
(-0.0660046 1.19985 0.31172)
(-0.142439 1.3097 0.330195)
(-0.197445 1.44951 0.312091)
(-0.0542282 1.23439 0.288989)
(-0.0138575 0.899385 0.164351)
(0.0347238 0.903561 0.438032)
(0.0719024 0.817356 0.174327)
(-0.0598823 1.05493 0.358055)
(0.0563823 0.858486 0.0773223)
(0.0611254 0.88004 0.140663)