/*--------------------------------*- C++ -*----------------------------------*\
| =========                 |                                                 |
| \\      /  F ield         | OpenFOAM: The Open Source CFD Toolbox           |
|  \\    /   O peration     | Version:  v2012                                 |
|   \\  /    A nd           | Website:  www.openfoam.com                      |
|    \\/     M anipulation  |                                                 |
\*---------------------------------------------------------------------------*/
FoamFile
{
    version     2.0;
    format      ascii;
    class       surfaceScalarField;
    location    "0.1";
    object      alphaPhi0.water;
}
// * * * * * * * * * * * * * * * * * * * * * * * * * * * * * * * * * * * * * //

dimensions      [0 3 -1 0 0 0 0];
oriented        oriented;


internalField   nonuniform List<scalar> 
49400
(
-5.65813e-06
1.27793e-08
5.61458e-06
3.07762e-08
1.30563e-05
3.59774e-06
-2.23122e-05
1.28648e-05
2.04327e-07
-3.42033e-06
1.73238e-05
-8.2889e-06
2.02362e-05
-2.00588e-05
-2.07689e-05
5.09575e-05
-3.28401e-07
8.09845e-06
1.95894e-05
-5e-05
-1.59674e-07
-6.29102e-07
-1.22879e-05
2.46992e-07
1.21351e-05
-9.41494e-08
2.62916e-05
1.15506e-05
-5.01301e-05
2.59095e-05
-1.31194e-05
1.50316e-06
2.37513e-05
-1.32642e-05
5.06582e-08
2.9458e-05
-3.11716e-05
5.68706e-05
-2.68253e-05
4.30584e-07
2.64011e-05
-6.46689e-09
9.18073e-06
1.56197e-05
-5.16257e-05
4.75768e-07
9.13555e-06
4.11611e-05
2.2744e-05
-4.82854e-05
1.73156e-05
5.02467e-05
7.68037e-06
-7.3931e-06
1.88493e-07
-3.69284e-06
2.05088e-05
6.22786e-06
9.12299e-06
1.98506e-05
8.8553e-06
4.56186e-07
-2.00355e-05
4.93996e-05
2.7129e-07
6.1859e-19
-9.09066e-20
6.94119e-19
1.62531e-19
-2.32414e-19
1.22514e-18
3.8357e-18
1.32298e-19
2.11529e-19
9.03277e-19
-9.20572e-20
1.32403e-19
-2.62109e-18
1.83606e-17
5.18664e-19
4.99158e-21
-5.0898e-18
5.20621e-10
1.82762e-10
-2.54634e-10
-5.31609e-10
-2.07996e-10
-8.69315e-12
7.23962e-10
1.63535e-10
-2.1046e-10
-3.92368e-10
1.46722e-10
3.94815e-10
1.01631e-10
-6.97058e-10
-5.31373e-10
6.61231e-10
-8.2478e-10
-4.33606e-10
-3.44153e-09
5.70179e-10
1.4302e-09
-3.12878e-09
1.61187e-09
-8.31475e-10
2.33743e-09
-1.27884e-08
4.13867e-10
-2.20547e-09
1.10932e-09
-1.29446e-09
1.84515e-09
-1.06463e-09
5.51769e-10
-2.79764e-09
-3.38311e-12
-3.00774e-11
7.76569e-12
2.8408e-11
-8.31637e-12
1.05821e-11
-1.82168e-12
-1.9894e-12
-3.43025e-11
-1.79864e-11
-7.67091e-13
3.16617e-11
-4.99985e-12
-1.2374e-11
-2.40854e-11
3.27043e-11
-2.91131e-11
-2.92384e-08
-2.26573e-08
-9.98862e-09
6.2049e-08
-2.27944e-09
-4.99279e-08
2.44227e-08
-2.60934e-08
1.71837e-09
8.10995e-08
3.44429e-08
-1.59162e-07
8.88152e-08
1.81507e-08
1.41588e-08
-4.72078e-09
9.22242e-08
-4.15294e-15
-1.41834e-15
2.15938e-15
5.00643e-15
-2.06891e-16
1.58431e-14
-1.54099e-14
2.1431e-15
-1.59845e-15
1.81015e-15
-3.9749e-15
8.34465e-15
-1.59728e-14
2.86869e-14
-8.6521e-16
1.07736e-14
-4.40063e-16
8.77833e-12
-4.43701e-12
1.22586e-10
-8.72901e-11
-2.25816e-12
8.07543e-12
1.75189e-11
3.99675e-11
-2.17784e-11
8.70098e-12
-1.61411e-10
1.81114e-10
-3.70769e-11
7.21602e-11
-2.85637e-11
4.05956e-11
-2.04609e-11
-2.1792e-06
-1.06384e-05
-5.5317e-06
1.88789e-05
8.01601e-08
-2.21485e-06
-3.57305e-08
-1.30313e-05
2.45434e-06
2.76138e-06
2.64763e-06
-7.56311e-06
2.7294e-06
-1.34722e-13
-1.03182e-05
7.59085e-06
-2.07034e-05
2.42984e-11
-1.62111e-11
-3.0788e-11
1.74177e-11
-3.80035e-11
1.20515e-11
4.88282e-11
3.9444e-11
-8.9878e-11
5.36243e-11
-4.85594e-11
-5.45072e-11
1.16867e-12
4.8667e-11
-2.48481e-11
3.3706e-11
-3.75789e-11
-3.35576e-21
-1.19868e-22
5.22443e-21
8.20773e-22
2.59402e-21
1.72921e-21
-8.57723e-21
-4.01407e-23
1.34319e-21
6.8649e-22
-1.085e-21
-3.14398e-23
-2.35675e-21
4.62843e-21
8.98842e-22
-5.64594e-22
5.18612e-21
6.67065e-31
-1.802e-33
-3.8297e-30
-2.01712e-32
-5.8616e-30
-2.18348e-30
5.07792e-30
-1.13408e-29
-2.13787e-30
4.32e-30
2.17875e-30
-1.7905e-29
1.17184e-30
3.95836e-32
-8.61704e-30
3.37363e-30
-2.91634e-29
4.24142e-34
3.2353e-34
1.52708e-34
-5.18242e-33
-1.87884e-36
2.98824e-35
1.6578e-35
1.5035e-35
-1.1004e-35
-8.92047e-35
-8.74366e-36
2.00179e-35
-1.52312e-34
-7.1207e-34
-1.28128e-34
1.53104e-35
-1.51231e-33
3.39341e-65
-1.21024e-65
-2.50644e-64
6.59987e-66
-2.01052e-64
-4.51304e-65
9.64397e-65
-2.10606e-65
-2.3153e-63
-3.82543e-63
5.57439e-64
1.40704e-65
2.89999e-63
-3.05981e-62
2.04597e-64
4.03174e-64
2.4001e-64
4.6214e-66
2.23315e-65
3.22229e-65
3.77787e-66
4.13666e-65
4.34389e-62
-2.47474e-62
-2.33341e-61
4.54442e-63
-3.59267e-61
-5.11045e-60
2.0671e-60
-1.80523e-60
-1.29641e-60
-1.61204e-60
3.02736e-59
-1.29335e-58
1.39241e-60
-1.33511e-59
-9.59105e-62
5.15544e-60
-4.77016e-63
2.21704e-60
2.8464e-59
-2.10665e-62
-1.27415e-58
1.00809e-57
-4.58161e-57
-1.19357e-62
-6.07196e-62
3.3781e-64
-3.41108e-61
3.7571e-46
4.64357e-46
2.74087e-46
-2.0009e-45
-8.09756e-49
1.63948e-46
-4.39015e-46
1.35867e-46
2.42909e-48
-2.83968e-44
-1.34989e-45
1.73232e-44
-9.65677e-45
-6.31387e-44
7.72411e-45
-3.18779e-44
2.71887e-45
8.21216e-23
-3.83084e-24
-2.92002e-22
6.98156e-24
-5.60402e-23
-6.51809e-23
1.31865e-22
-1.21072e-22
-1.53803e-24
3.97447e-22
2.69038e-22
-1.30463e-21
1.85038e-22
3.10124e-23
-7.4347e-23
1.1263e-22
-1.795e-23
2.7036e-09
2.8557e-09
3.16171e-09
-1.28833e-08
4.32463e-10
1.37229e-09
-7.43942e-10
1.09073e-09
6.02697e-10
-2.6277e-10
-1.08722e-09
1.39425e-09
-2.22262e-09
1.39491e-09
-9.43438e-10
4.841e-10
-1.89451e-09
-8.25455e-11
4.16006e-11
1.28349e-10
-1.59606e-10
1.54891e-10
3.50319e-10
-6.70346e-10
1.13454e-10
7.97358e-11
-5.55126e-11
-1.42369e-10
3.10483e-10
-3.57507e-10
3.14486e-10
1.62473e-10
-3.05412e-10
1.29146e-10
1.00187e-10
-1.09014e-10
-1.05926e-10
5.6088e-11
-2.82546e-10
3.55917e-11
3.08361e-10
-1.90853e-12
-5.48734e-10
1.80082e-10
-6.04819e-11
-3.32878e-10
3.08396e-11
1.48976e-10
-1.60717e-10
2.15524e-10
-2.80073e-10
-3.02094e-10
2.02145e-10
-7.12078e-13
-1.24136e-11
1.21646e-09
1.79893e-10
-2.48601e-09
1.15909e-10
8.43168e-10
-9.55255e-11
2.92184e-11
1.90584e-11
-1.21746e-10
-6.34478e-11
3.41564e-10
-5.87903e-10
2.97993e-10
3.59403e-11
2.24198e-11
5.02586e-12
-6.73938e-11
-1.65968e-11
2.94278e-11
1.96373e-11
7.63382e-11
-2.73336e-11
-8.23073e-11
-2.62019e-11
2.1088e-10
-3.70076e-11
-4.62823e-11
-2.1549e-11
2.61619e-11
-5.33498e-11
8.86845e-12
2.39281e-11
2.62538e-11
-4.47105e-11
3.21335e-11
8.75975e-11
-1.12125e-10
6.2466e-11
3.02701e-11
-2.49722e-11
-9.70408e-11
2.04105e-10
-5.13178e-11
7.41496e-11
-5.55712e-12
-2.54492e-13
-1.84272e-11
-7.5008e-17
-7.68866e-16
3.20348e-15
2.68717e-14
-3.6615e-18
-1.71125e-18
-1.06044e-23
-8.38763e-18
6.2735e-16
2.85403e-17
-1.83753e-18
-1.5984e-18
-2.50029e-16
4.59415e-15
4.92881e-18
-2.20312e-20
1.44327e-14
4.57107e-14
4.45251e-13
-6.38562e-13
-1.19474e-12
4.42611e-13
1.02888e-13
-1.86951e-12
-1.58783e-13
4.42104e-13
-2.60861e-12
4.56042e-13
5.54018e-13
7.3049e-13
-1.02073e-11
6.84883e-13
-2.20194e-12
3.57014e-13
-1.06482e-05
-1.42029e-05
-9.16603e-06
3.3304e-05
-1.07058e-07
-8.07236e-08
-1.03913e-05
-1.4257e-05
-4.66404e-07
-1.21582e-05
1.21881e-05
-1.76969e-07
8.78868e-06
-3.22885e-05
1.06637e-05
-1.64157e-05
1.35854e-05
-5.47957e-09
1.29136e-09
5.01955e-09
-1.6489e-10
9.04376e-09
7.0933e-09
-2.60075e-08
1.39785e-08
9.33822e-10
-4.48366e-09
-3.14488e-09
1.17587e-08
-5.87335e-09
-5.23591e-10
1.12635e-08
-1.42796e-08
2.23662e-08
8.44435e-19
-1.42919e-25
1.62289e-18
-8.39107e-18
5.17189e-25
5.13516e-20
6.50206e-20
5.21577e-25
-5.34493e-24
1.40867e-21
-9.93317e-21
1.26949e-20
-5.50806e-19
1.63861e-19
-5.76791e-20
2.21994e-21
-4.83939e-19
-1.82846e-11
-4.5519e-12
3.75456e-12
1.02427e-11
1.4599e-11
-2.75729e-12
-4.75943e-11
-7.32768e-12
7.32784e-12
1.08774e-11
-5.25324e-12
-2.14077e-11
6.75084e-13
1.12161e-11
1.15924e-11
-2.95878e-11
1.09154e-11
-1.1127e-10
-2.91177e-12
2.03007e-10
-1.92371e-11
1.58241e-10
1.29653e-11
-2.25013e-10
1.66964e-10
-1.8865e-11
-1.1929e-10
-2.10691e-11
3.35349e-10
-4.92553e-11
-1.03814e-10
1.52513e-10
-1.66725e-10
3.21028e-10
1.34807e-12
4.19245e-13
-3.67928e-12
-2.50443e-13
-9.61728e-13
-1.37164e-12
2.393e-12
-4.97964e-12
2.4442e-12
2.96439e-12
4.23476e-12
-1.51128e-11
1.22636e-12
-5.93529e-14
-2.52215e-12
1.28052e-12
-6.65887e-12
3.42653e-08
5.77414e-10
3.86882e-08
-6.23699e-08
-1.39346e-08
-1.41699e-10
4.00044e-08
3.02914e-08
-3.62952e-08
5.47729e-08
-9.36602e-09
-6.00595e-08
1.59836e-07
-3.47042e-08
-4.15698e-08
-2.20903e-07
1.14345e-07
1.48925e-07
-5.12082e-07
1.83782e-07
2.88255e-07
1.9369e-07
-9.2292e-07
1.77777e-07
1.20519e-07
-1.10171e-07
4.36509e-07
2.04688e-07
3.05693e-07
-1.17691e-07
3.8452e-07
-6.8416e-07
-8.06947e-08
6.82106e-08
3.1236e-08
1.64325e-07
-9.90443e-08
1.31489e-08
9.21786e-08
5.27574e-09
9.3242e-09
-1.46576e-07
-5.91935e-09
3.21603e-08
2.62061e-07
-1.90692e-08
7.33877e-08
3.62203e-08
-1.19757e-08
9.85238e-08
-3.20704e-08
-4.1739e-08
1.12241e-07
8.45333e-08
-1.83653e-08
4.69341e-10
1.43626e-07
-7.46643e-08
-2.54171e-08
5.89606e-09
4.26154e-09
-3.40386e-10
8.24546e-12
4.28844e-10
-6.13996e-10
1.75561e-09
-1.31472e-08
1.34962e-09
5.3055e-10
-3.91082e-11
-1.88203e-10
-2.84641e-10
-1.40501e-08
-2.98692e-10
1.29236e-09
-1.16117e-11
-1.42806e-11
2.74991e-12
-2.7335e-10
-4.71797e-10
6.7192e-10
-1.62291e-10
-3.05751e-10
-2.24163e-10
6.89335e-10
-9.67764e-10
4.39031e-10
-5.62666e-10
1.16397e-10
7.83252e-10
-5.56457e-11
-1.0125e-09
1.63008e-10
-4.45612e-10
-1.46426e-10
8.21901e-11
2.38437e-10
1.66078e-10
-6.359e-10
7.25361e-11
4.09272e-10
-5.09034e-10
9.70793e-11
2.13056e-10
-1.27481e-11
-1.1999e-10
2.2977e-10
-2.38049e-10
4.37871e-10
1.15377e-10
-1.02347e-10
1.05167e-10
-7.2997e-10
-5.63929e-10
1.36106e-09
2.90546e-10
4.82539e-10
4.12992e-10
-1.40242e-09
1.81456e-09
-1.92099e-09
-7.15984e-10
-2.34133e-09
5.11651e-09
-8.71756e-10
9.60177e-10
-1.45681e-10
-1.4992e-10
-4.57133e-10
7.08903e-10
3.07761e-09
-1.52147e-09
-2.34454e-09
3.99111e-09
-5.07216e-09
1.74433e-09
-4.6746e-10
7.75221e-09
8.43621e-09
1.08056e-09
-1.42289e-08
3.88422e-09
6.23447e-09
-3.54546e-09
6.94651e-09
-4.00856e-09
1.27189e-13
-2.67885e-14
-8.86225e-13
-8.75348e-15
-2.06858e-13
-1.05842e-14
9.63501e-14
-2.73347e-13
-5.25586e-13
1.34271e-12
-3.40785e-14
-6.95184e-12
1.09648e-13
3.23537e-13
-4.95182e-13
1.86751e-13
-2.21455e-12
-8.25764e-08
-3.26199e-08
-4.30754e-08
1.40027e-07
2.73662e-08
-1.29817e-07
-8.73063e-09
-3.10112e-08
1.23684e-08
3.96128e-08
4.91772e-08
-1.38121e-07
3.51824e-08
8.33377e-09
5.89299e-08
-1.42008e-07
4.54251e-08
-8.76575e-11
-3.82264e-11
4.38059e-12
1.13767e-10
1.75396e-11
-6.20918e-11
-2.3803e-11
-9.31559e-11
8.99637e-11
2.71987e-10
1.90055e-11
-4.07261e-10
1.45055e-11
3.52243e-10
1.28932e-10
-1.38757e-10
1.78468e-10
-1.45846e-29
-2.64855e-29
-2.85012e-29
4.6622e-29
7.08008e-32
-3.36401e-29
-3.44908e-32
-8.43177e-29
-1.88449e-31
1.04891e-28
5.61155e-29
-2.93854e-28
8.5021e-29
2.19352e-30
2.91139e-29
-2.8302e-29
6.23505e-29
5.30938e-46
8.2025e-48
-1.98524e-46
-1.0039e-44
-1.753e-46
-1.37207e-45
8.15964e-46
-1.57847e-45
2.30153e-48
-1.1281e-44
7.01477e-45
-2.59018e-44
7.171e-45
-1.60847e-43
-1.08408e-45
1.86494e-45
-6.9451e-45
-8.75989e-52
4.76679e-51
-6.72139e-50
-3.24743e-55
3.51384e-50
-2.88122e-51
-9.72671e-49
-6.83812e-51
7.10932e-51
-1.20249e-48
8.46729e-50
-1.00962e-50
9.20876e-49
-2.18015e-47
-4.02491e-50
1.07474e-50
-1.74387e-52
5.80675e-57
4.26323e-57
3.48599e-57
-3.04442e-56
-9.21327e-60
1.29923e-57
1.11994e-58
5.86333e-58
-2.65887e-58
-3.54506e-56
-1.44118e-56
1.92657e-56
-1.50868e-55
-1.6455e-56
-1.27695e-55
3.50618e-56
-7.44197e-55
3.3467e-58
-3.55784e-59
-1.56521e-57
1.18429e-59
-9.73362e-58
-4.47085e-58
6.77073e-58
-4.72439e-59
-7.94408e-57
-1.15652e-56
3.50546e-57
-2.31874e-57
8.26017e-57
-7.03222e-56
-1.37171e-57
1.43352e-57
-9.95005e-58
-3.47798e-61
1.63729e-57
-8.52662e-57
4.19396e-59
1.02569e-59
-9.29881e-59
-5.79757e-61
-7.08688e-58
7.99988e-58
9.22054e-59
6.43841e-59
1.8238e-59
-4.77809e-62
-3.90326e-57
3.57028e-58
-3.91437e-56
2.59958e-52
-5.53563e-50
1.74582e-50
2.00041e-54
-4.43004e-50
1.11621e-52
8.4529e-51
4.15354e-50
-2.503e-49
3.16634e-49
-4.24722e-49
-3.46048e-49
-4.5832e-50
2.1152e-49
-2.56312e-49
7.39149e-50
-1.64779e-48
-2.17523e-46
4.70781e-49
-3.12659e-46
1.07444e-46
2.71004e-46
1.56992e-46
-1.04102e-45
8.75328e-47
3.74403e-48
1.41231e-44
-4.92832e-45
-3.17283e-44
-7.29698e-46
8.57827e-45
3.9576e-45
-1.50729e-44
1.4934e-45
-2.05001e-30
-1.23317e-30
1.67168e-30
4.19511e-32
2.63414e-30
1.64252e-30
-9.57663e-30
3.78401e-29
-2.86971e-29
-4.77418e-31
-1.04859e-29
1.12148e-29
-1.136e-30
1.05334e-32
1.01568e-30
-1.52876e-30
2.72946e-29
-2.5865e-20
1.08516e-21
1.19086e-20
-3.22629e-22
3.34359e-20
1.7251e-20
-9.32867e-20
4.57973e-20
7.23087e-21
-5.38581e-21
-2.0598e-20
4.06777e-20
-9.51318e-21
-2.14062e-22
7.86219e-21
-4.29296e-21
4.54182e-20
-1.73806e-17
-1.90699e-16
2.18856e-17
1.27726e-16
-2.02531e-16
1.58952e-16
-7.04611e-18
2.1326e-16
-6.51767e-16
3.47865e-16
-4.7397e-16
1.20286e-16
-1.56466e-16
6.21252e-16
-2.86747e-16
2.55535e-16
-6.15829e-16
1.14961e-05
3.48285e-08
-1.13267e-05
-1.98419e-07
-9.99184e-06
-8.87024e-06
2.99122e-05
-1.01562e-05
1.00728e-07
1.29486e-05
9.35909e-06
-3.36307e-05
1.34948e-05
-7.41242e-07
-6.97206e-06
1.14022e-05
-8.83418e-06
1.94362e-13
6.35195e-13
2.31457e-13
-2.04056e-15
9.314e-13
5.25026e-12
-6.67681e-13
4.01147e-12
1.70829e-11
2.59467e-11
-1.1883e-12
1.07512e-11
-2.77353e-11
1.09571e-10
-3.95192e-14
-2.63287e-12
-4.98571e-14
1.05061e-09
9.93802e-10
1.94503e-10
-1.91707e-09
-1.76656e-10
8.61874e-10
-4.50587e-11
8.32938e-10
-2.79439e-10
-5.25089e-10
-2.30815e-10
1.83695e-09
-3.42866e-10
-1.8505e-10
-4.19267e-10
8.7652e-10
-5.46165e-10
-8.98966e-12
-4.23921e-13
-4.20915e-14
5.28083e-12
2.23361e-12
-1.07259e-12
-2.30029e-11
1.15423e-13
7.95527e-14
9.78677e-14
-3.31493e-13
-2.56171e-14
-1.90654e-14
1.5789e-14
1.12129e-12
-4.51752e-12
4.04965e-13
3.7473e-11
1.42088e-10
1.53834e-11
-3.54906e-10
6.65082e-12
-3.87336e-13
5.66721e-12
1.86727e-12
6.0904e-11
2.76051e-12
-1.49617e-11
4.26195e-13
-1.64749e-12
3.5226e-12
3.16775e-11
-1.1932e-10
1.52433e-11
-2.23473e-11
2.60719e-11
-2.78157e-10
1.43423e-10
-7.35812e-10
1.78722e-12
1.65146e-12
-3.12573e-12
2.49887e-12
5.8903e-12
6.14244e-10
-4.78095e-11
-1.61957e-09
3.74404e-10
-6.53111e-10
-2.49911e-10
8.48556e-10
-9.51398e-10
-9.79138e-11
2.42864e-09
1.26914e-09
-7.07397e-09
6.3639e-10
1.15872e-09
-1.0395e-09
9.08535e-10
-1.63764e-09
-1.49607e-09
-6.29888e-11
6.29916e-10
1.853e-10
1.59744e-09
-6.69942e-09
5.68653e-10
-3.18499e-10
5.39402e-10
-9.22148e-09
-3.77944e-09
-1.47377e-09
1.52558e-08
2.09249e-09
-3.39197e-09
-7.2734e-09
-2.59731e-09
1.64256e-09
3.85077e-09
2.8636e-10
-6.8226e-09
2.68081e-09
2.68813e-09
4.88368e-09
-8.09899e-09
6.17569e-09
4.66569e-10
1.55855e-09
6.37554e-10
-7.98548e-10
2.12242e-09
-1.48758e-09
1.73434e-09
-1.03883e-09
6.31189e-09
-2.06658e-09
3.47708e-09
9.79462e-10
7.30517e-10
-2.10818e-09
8.11327e-10
-9.82328e-10
4.43577e-09
4.49728e-11
9.97755e-11
-3.15077e-11
-9.90509e-11
7.23988e-11
-2.32235e-10
3.47698e-10
-2.20519e-10
5.44219e-10
-3.33411e-11
1.13886e-10
-1.045e-10
2.10151e-10
-3.26432e-10
6.2803e-11
-5.83073e-11
2.82559e-11
2.40905e-13
4.95049e-13
-3.81375e-14
-5.27222e-14
2.62627e-12
-4.21232e-12
1.0919e-11
-1.30862e-12
6.32321e-12
-7.80148e-14
6.34397e-13
-2.75654e-13
5.062e-13
-3.21138e-13
2.2197e-12
-1.73824e-12
3.06297e-12
-5.32946e-10
1.30995e-10
1.43565e-10
-9.1721e-12
8.94987e-10
1.61397e-10
-2.43534e-09
1.33103e-10
5.43453e-10
-1.25028e-10
-1.58059e-11
1.46944e-10
-1.93378e-10
-1.04695e-10
2.68258e-10
-5.98718e-10
2.12344e-10
1.74353e-15
-2.43073e-17
-1.10464e-15
2.74074e-16
-2.37202e-16
-2.3773e-16
2.4137e-15
-1.93721e-17
-5.58553e-16
-7.07352e-16
2.56622e-16
1.15431e-17
5.23635e-16
-2.66514e-15
-5.7992e-16
2.74196e-16
-2.11049e-15
2.3769e-24
-1.52377e-25
-8.8068e-24
2.03888e-25
-2.41576e-24
-4.39982e-24
7.13374e-24
-6.11485e-24
-1.10083e-26
1.11197e-23
5.76349e-24
-3.59757e-23
8.82997e-24
1.51319e-24
-4.88805e-24
8.03315e-24
-9.59166e-24
-2.29998e-40
-1.45135e-39
-3.30745e-40
3.65769e-40
-6.2236e-41
-2.86116e-39
1.89027e-41
-3.33926e-38
-2.10508e-40
3.96798e-38
2.50218e-38
-5.41766e-37
3.4111e-39
-2.85465e-39
2.34653e-39
-2.99642e-39
7.03512e-40
-1.76339e-50
-6.2133e-50
-2.15209e-50
1.47123e-50
-9.23998e-51
-2.743e-49
4.14992e-51
-2.33659e-48
-2.2657e-50
4.80984e-48
4.69812e-48
-8.45252e-47
3.14811e-49
-2.85251e-50
-1.41613e-49
6.35323e-50
3.59633e-49
-5.31729e-61
3.75959e-56
-1.40268e-56
-9.10793e-56
3.66108e-59
-5.70717e-58
-3.0084e-60
-1.29036e-57
2.29273e-56
8.10189e-58
3.66585e-58
-9.40994e-57
8.68474e-59
-2.36671e-62
1.69597e-56
-7.2864e-56
6.18133e-57
-8.10179e-23
-1.50691e-22
-4.92188e-22
5.3404e-22
-4.95419e-24
-1.93522e-22
1.08151e-23
-4.21719e-22
-2.9789e-23
5.16475e-22
4.37301e-22
-1.93693e-21
1.32204e-21
-9.79065e-22
9.94086e-23
-4.40076e-23
6.401e-22
-6.37637e-20
-7.84035e-20
-1.90173e-19
2.80917e-19
1.11538e-21
-1.08597e-19
-1.36826e-22
-1.67979e-19
2.54676e-21
1.82342e-19
1.30023e-19
-5.37196e-19
2.67492e-19
2.07245e-20
4.97528e-20
-6.08938e-20
1.20346e-19
-3.84281e-10
-2.27075e-10
3.59285e-10
3.60678e-10
1.10903e-10
1.09071e-09
-8.22611e-10
3.1271e-10
-3.39611e-10
2.29762e-10
-3.55162e-10
6.47551e-10
-2.39612e-10
8.92001e-10
-2.82689e-10
1.58288e-09
-1.88505e-10
-8.93085e-10
-1.72477e-09
-2.96916e-10
3.28983e-09
-2.03998e-10
4.30525e-10
-6.47791e-10
-7.3117e-10
-9.19284e-10
-2.04549e-09
1.17545e-09
1.39514e-09
3.32548e-10
-2.61898e-09
-1.60297e-09
2.93859e-09
-1.53425e-09
1.35296e-10
6.38484e-10
9.3846e-10
-1.68878e-09
6.46966e-10
1.16586e-09
-1.64321e-09
5.74886e-10
5.47619e-10
-1.63784e-10
-1.34609e-09
2.1066e-09
-1.34595e-09
1.74887e-09
-2.12362e-10
4.65016e-11
-6.02819e-10
-1.35593e-09
-4.24694e-10
2.16958e-10
1.57472e-09
6.00859e-10
-1.93639e-10
-2.12161e-09
4.14362e-10
-2.39897e-10
-7.41488e-10
1.18102e-10
8.14422e-10
-2.09625e-10
-8.43882e-10
2.40372e-10
-4.80349e-10
6.42131e-10
-6.12366e-14
6.71282e-14
-1.04018e-13
-1.73033e-13
1.54557e-14
-1.33435e-12
2.49839e-13
-2.99697e-14
2.3746e-15
1.2205e-11
-7.64958e-13
-3.06586e-11
-1.86536e-14
6.72151e-12
-1.20343e-12
4.55797e-13
-4.14133e-12
-1.77426e-11
6.26406e-13
6.95912e-12
1.05261e-12
1.85693e-11
1.35173e-11
-7.02406e-11
6.29991e-12
-3.74515e-13
-4.82761e-11
-1.65538e-11
4.66214e-11
-4.76968e-11
-5.22938e-11
3.57336e-11
-1.06372e-10
1.37703e-11
2.14655e-10
2.43262e-09
-1.47387e-09
-1.38549e-09
-4.20135e-10
1.66582e-10
3.48354e-10
1.12664e-09
1.07302e-09
4.72972e-10
-4.07171e-10
-6.80203e-09
-3.90057e-10
-1.6807e-09
-5.5478e-10
1.43525e-10
2.19556e-10
-6.73502e-07
-1.44963e-07
-8.03773e-08
4.72009e-07
1.16108e-06
5.78082e-07
-2.41389e-06
4.46494e-07
-8.45219e-08
1.3415e-07
-3.91279e-07
4.7314e-08
-7.44231e-07
7.52712e-07
1.00146e-06
-1.16813e-06
2.58703e-07
-8.36511e-13
4.07996e-10
5.19099e-11
-4.76113e-10
5.63924e-10
-1.74355e-09
1.00708e-09
-8.74989e-10
1.64263e-09
-6.49176e-10
6.90613e-10
6.78424e-13
1.22737e-09
-2.45244e-09
6.31953e-10
-1.14088e-09
5.04541e-10
-1.49879e-17
-1.61077e-17
5.02538e-18
4.04708e-17
5.5273e-18
-6.71597e-19
-1.01475e-17
-9.12235e-19
1.05638e-17
2.09271e-18
-1.078e-18
-5.12445e-19
3.69537e-18
1.91607e-17
3.2496e-18
-3.35302e-18
2.03522e-17
5.33125e-15
-2.25115e-14
1.60906e-14
-1.09833e-13
-4.10509e-14
3.25639e-15
2.14773e-15
5.80037e-14
-4.93273e-13
-6.71918e-16
-2.76848e-15
1.50343e-15
-1.35041e-14
2.15146e-15
-4.33548e-15
1.48757e-15
-2.64471e-14
3.7578e-11
3.97409e-11
3.50418e-11
-2.25009e-10
7.86191e-13
1.05837e-11
-6.77643e-12
8.51118e-12
6.222e-13
-2.61895e-12
-3.71598e-12
5.21515e-12
-1.19188e-11
6.48958e-13
-6.75116e-12
3.51362e-12
-6.53796e-12
2.89108e-20
4.00523e-20
4.8343e-20
-3.77904e-19
5.34917e-20
2.18883e-19
-7.37691e-19
3.26773e-21
1.12082e-20
1.47052e-21
-1.06248e-20
1.65626e-21
-5.56907e-20
2.78629e-20
-3.28193e-21
3.34943e-20
-1.8389e-21
-5.1963e-30
-7.82095e-29
-5.05226e-28
4.48384e-28
-7.35597e-30
-3.53503e-30
9.15381e-31
-8.92592e-30
-1.49677e-28
1.09012e-29
7.58366e-30
-5.7826e-29
1.96436e-27
-2.12419e-27
3.02709e-30
-5.85387e-30
1.20539e-27
-3.97314e-41
-7.82584e-44
1.06174e-42
1.58617e-43
3.94942e-41
2.33352e-41
-6.4487e-40
2.55192e-42
1.86772e-43
-6.81338e-43
-7.54167e-43
3.35664e-43
-1.00337e-41
2.2365e-45
4.9941e-42
-6.45042e-41
1.78035e-43
8.59427e-43
1.55523e-41
-4.04093e-40
3.83984e-42
-4.91267e-41
3.40005e-43
2.60849e-42
4.84304e-40
-1.15582e-38
-8.34735e-40
4.66898e-48
4.45224e-49
-1.56342e-46
-1.09305e-48
-1.51435e-48
-1.3525e-48
1.46171e-48
-2.14924e-47
1.59371e-49
3.10049e-46
2.81035e-46
-4.85339e-45
2.24475e-47
-2.56444e-47
-2.50952e-47
1.11795e-47
4.83852e-48
5.55037e-46
2.31911e-47
-1.4331e-44
-3.98721e-47
-1.61065e-44
1.16244e-45
8.91231e-47
-1.60235e-43
1.2172e-46
-1.97771e-50
-1.35068e-50
-1.09219e-50
6.59191e-51
-1.91371e-51
-1.32692e-49
-1.40357e-49
2.34049e-49
-1.90846e-48
3.34246e-50
-1.17401e-17
9.75094e-19
6.62221e-18
-3.99884e-19
1.35721e-17
9.08188e-18
-3.54906e-17
1.89652e-17
6.26063e-18
-5.34979e-18
-1.71993e-17
3.00398e-17
-7.72307e-18
-3.12168e-19
3.25748e-18
-2.85894e-18
1.02749e-17
1.01942e-10
8.82973e-11
-2.53752e-11
-6.99971e-11
-8.69523e-11
-3.81136e-10
3.73389e-10
-9.46472e-10
7.61581e-10
1.1526e-10
2.47131e-10
-3.11773e-10
1.13664e-09
-1.06648e-09
-2.35293e-10
1.42084e-10
-4.32007e-11
-3.81312e-11
-1.37363e-11
2.19709e-11
4.81306e-11
-7.76961e-12
1.52941e-10
-1.47477e-10
3.16598e-11
-4.22595e-11
6.13049e-11
-5.49829e-11
6.69588e-11
-2.10243e-10
2.75927e-10
-6.23655e-12
-1.28456e-11
-7.06113e-12
1.07397e-11
2.70196e-11
-4.18941e-13
-3.54809e-11
1.59076e-11
-5.66395e-12
5.0013e-12
3.1353e-12
2.25422e-11
-1.40926e-11
-1.07998e-11
1.47471e-12
1.87466e-11
-1.26511e-11
1.19903e-11
-2.80946e-11
1.44115e-17
5.37515e-17
-2.79271e-18
-8.41636e-17
5.84847e-18
2.4326e-18
-1.86136e-18
-3.49594e-19
4.74035e-17
-3.57617e-18
1.33676e-18
2.2805e-18
6.87215e-19
-1.00925e-17
-3.94098e-18
2.79402e-18
-1.09799e-17
-3.15205e-19
-2.25733e-19
1.08629e-19
1.6495e-19
-1.46245e-19
-3.24377e-18
8.65362e-19
4.23736e-20
-8.34837e-19
1.42965e-17
-2.56198e-19
-2.83437e-17
-4.12458e-20
9.76813e-18
2.85354e-19
-1.09566e-18
1.44714e-19
7.43904e-11
6.91813e-11
-9.15194e-11
-7.38408e-11
4.41902e-12
-2.07926e-10
2.58753e-10
-1.16665e-10
1.94133e-10
-3.90307e-11
1.05244e-10
-1.66063e-10
9.07591e-11
-1.73749e-10
4.64269e-12
-2.79832e-11
-4.70782e-11
-2.15608e-09
-6.09956e-10
1.06221e-10
2.79095e-09
8.58705e-10
1.8554e-12
-2.88526e-09
-6.45803e-11
3.62382e-10
8.22655e-10
-1.6111e-10
-9.00238e-10
2.22701e-10
1.0109e-09
7.42114e-10
-9.52856e-10
1.10828e-09
3.14733e-17
5.3807e-16
-4.98445e-17
-2.80266e-15
2.77647e-15
-9.32318e-15
9.73135e-16
-1.46534e-15
2.98415e-15
-2.55309e-15
7.7825e-16
-9.11383e-18
2.2529e-15
-1.3618e-14
4.90258e-15
-2.52061e-14
1.14212e-15
-7.20358e-15
8.90977e-16
2.92282e-17
1.80153e-14
-8.06981e-14
-7.43113e-15
3.84417e-15
-2.78837e-14
8.85864e-16
-1.59514e-13
9.2149e-13
-4.43764e-13
-4.73731e-12
2.29343e-12
-1.39673e-12
-1.28454e-12
2.32194e-12
-3.70927e-12
-2.51059e-13
3.27356e-12
4.17662e-12
-1.59782e-11
1.32758e-12
-5.33253e-14
-2.23742e-12
1.19792e-12
-5.97941e-12
6.80101e-13
1.80205e-12
8.49406e-12
-1.04823e-11
7.5897e-13
1.10202e-12
-8.55526e-13
1.35281e-12
2.95059e-12
-3.2473e-13
-1.15369e-12
4.19482e-12
-3.96736e-12
9.57253e-12
2.47095e-13
1.00541e-14
6.47553e-12
1.73757e-10
7.4968e-11
7.1617e-11
-3.21291e-10
1.00386e-11
1.47949e-10
3.83327e-11
6.68557e-11
1.66841e-11
-1.64097e-10
-4.87968e-11
2.33297e-10
-8.63963e-11
-9.72999e-11
-1.69007e-10
3.05145e-10
-8.00544e-11
-6.71274e-09
6.53712e-11
2.28895e-08
-8.40784e-09
2.75078e-08
-1.51482e-08
-7.78928e-09
-5.66191e-08
1.47126e-07
5.03518e-08
2.71621e-08
-7.67112e-08
1.75884e-08
1.58767e-07
2.10639e-08
1.73784e-09
-2.4161e-08
-1.86865e-12
-2.69919e-13
1.16489e-13
2.00479e-12
1.40042e-12
-7.83845e-15
-3.52838e-12
4.42478e-14
5.36899e-13
6.6718e-14
-3.32503e-16
-5.31402e-15
8.03694e-14
4.09133e-13
1.64553e-14
-2.86095e-14
2.27401e-13
3.24835e-19
-2.12673e-18
-1.00848e-18
1.41131e-18
-3.0605e-18
-1.68165e-17
1.88825e-17
-1.456e-17
-7.48673e-19
-9.52015e-20
3.34067e-17
-6.88474e-17
1.26906e-18
-5.92784e-20
-3.19683e-19
1.25148e-17
-6.08962e-21
1.49873e-15
-3.78151e-17
-7.16961e-15
2.26854e-16
-1.05755e-15
-1.04876e-15
1.95184e-15
-3.24354e-15
8.07844e-17
1.02444e-14
6.76289e-15
-3.93169e-14
3.02674e-15
1.33713e-15
-2.13376e-15
1.8876e-15
-2.28379e-15
-2.02595e-17
9.37925e-20
2.18966e-18
2.34039e-19
1.71202e-17
1.41156e-17
-2.02183e-16
9.01085e-20
1.00607e-18
2.25426e-19
-2.36345e-18
7.08436e-20
-3.91354e-19
4.815e-19
1.2851e-18
-1.19875e-18
3.87025e-19
-1.24087e-18
1.49667e-19
1.49089e-19
-1.10938e-18
3.02474e-18
-1.15263e-22
-1.48117e-17
1.35554e-19
6.39455e-19
-2.59461e-18
5.49686e-20
9.72162e-19
-9.64759e-22
-1.08511e-17
2.38461e-21
-9.41445e-21
5.60811e-20
-1.66225e-33
-2.78179e-36
4.41189e-35
4.82811e-36
1.71564e-33
9.71244e-34
-2.92893e-32
1.07602e-34
6.36813e-36
-4.75038e-35
-3.48326e-35
1.74708e-35
-4.77569e-34
-1.77874e-34
2.47317e-34
-3.35885e-33
8.66751e-36
7.46319e-36
7.15245e-34
-1.88324e-32
2.56824e-34
-2.69944e-33
-2.42093e-34
1.31685e-34
2.30978e-32
-5.60788e-31
-4.61824e-32
5.75301e-43
1.31497e-41
-1.80204e-42
-3.28249e-40
1.96367e-42
-2.6295e-41
1.62881e-43
-2.72597e-42
3.03585e-42
-3.90758e-40
2.92313e-41
-4.88011e-42
2.45911e-40
-5.72395e-39
2.15785e-41
-2.99503e-41
5.79542e-42
-6.89428e-37
-1.2119e-38
1.62298e-37
5.9476e-39
6.75781e-37
5.08024e-37
-2.70545e-36
2.45158e-37
-4.34141e-41
-6.47989e-36
-1.91115e-36
5.11665e-36
-1.39173e-35
1.89248e-39
5.4732e-36
-3.41242e-35
8.48891e-37
-1.02042e-31
-1.34739e-33
6.05093e-32
1.29909e-33
1.14104e-31
8.1749e-32
-4.66367e-31
4.08585e-32
-3.25062e-35
-1.30353e-30
-2.3774e-32
1.62522e-30
-7.44879e-32
-1.5362e-31
4.28513e-32
-9.05663e-32
2.71427e-32
1.52509e-18
1.04079e-17
-1.13712e-17
-1.59411e-17
9.32168e-18
-1.80729e-17
2.81569e-18
-1.60456e-16
-1.12047e-16
4.37348e-18
-3.86325e-17
-7.79444e-17
-1.62511e-16
-1.98992e-16
-8.32628e-16
-2.67714e-16
-3.04548e-17
1.0422e-15
2.67954e-16
-3.51758e-16
-9.4363e-16
4.58947e-17
-3.06137e-16
5.33335e-16
-4.44068e-16
-4.03738e-16
-3.85917e-16
8.49639e-16
-6.51517e-16
-1.38579e-15
-5.60685e-15
-6.22359e-15
-4.38271e-15
-3.51989e-15
-1.20504e-14
-1.23098e-05
-1.00645e-05
-1.03758e-05
3.27755e-05
-3.20398e-07
-1.2892e-05
9.0436e-07
-9.85196e-06
-5.22938e-07
9.60753e-06
7.56581e-06
-2.70238e-05
1.03011e-05
-1.1937e-06
5.47093e-06
-1.07959e-05
5.40984e-06
-2.94355e-12
-4.08622e-11
-8.35226e-11
1.13579e-10
-3.21244e-11
-5.18082e-11
6.98918e-11
-4.49185e-11
-1.64471e-11
2.2584e-11
2.16503e-11
-8.03025e-11
6.77246e-11
-5.44543e-11
-5.04985e-11
-8.60134e-13
-8.40954e-11
7.29144e-14
-9.04992e-14
-8.74822e-15
6.7027e-14
-3.61455e-13
1.45356e-13
4.18324e-13
5.80374e-14
-4.46612e-13
1.06374e-13
-7.17558e-14
-3.94236e-14
-2.33847e-14
2.3364e-13
-1.53126e-13
3.31684e-13
-1.66727e-13
-7.92434e-16
-1.15059e-14
6.46713e-15
3.09483e-15
-1.01808e-14
-9.08228e-16
5.75846e-15
1.00454e-14
-3.4115e-14
1.5698e-14
-1.62094e-14
-2.41935e-15
-5.98678e-15
2.47898e-14
6.82652e-15
-1.51485e-14
5.62015e-15
-1.22527e-19
1.3084e-18
3.63309e-18
-7.40178e-18
1.82611e-19
2.10483e-19
-5.571e-19
4.31753e-19
7.26811e-19
2.58621e-19
-3.63263e-19
6.95123e-19
-1.71242e-18
2.23806e-18
1.63843e-19
-3.09705e-19
1.04685e-18
5.60159e-13
-8.75334e-15
-5.83986e-13
3.78304e-13
-3.31848e-14
5.07281e-15
5.9265e-13
-1.9046e-14
-2.52083e-14
1.14338e-12
6.36423e-14
-1.49185e-12
4.15522e-13
1.31919e-12
-5.98628e-14
4.57636e-13
-3.39931e-14
2.65273e-10
1.73641e-10
1.80946e-10
-4.59301e-10
2.53305e-12
5.45433e-10
-2.36072e-10
2.79812e-10
-8.31003e-12
-3.7564e-10
-2.39162e-10
9.1171e-10
-3.17312e-10
5.39411e-12
-1.73369e-10
4.8403e-10
-2.32937e-10
3.30519e-11
5.0621e-11
6.55406e-11
-1.60033e-10
1.45593e-11
2.32041e-11
-3.53796e-11
2.24287e-11
9.9653e-12
-8.39135e-12
-2.71788e-11
3.70066e-11
-8.67529e-11
7.0074e-11
-4.91158e-11
3.3044e-11
-9.91985e-11
8.75885e-13
1.63766e-12
2.5436e-12
-9.20993e-12
3.34055e-13
6.10948e-13
-2.38648e-12
3.14428e-13
4.27261e-13
2.65085e-14
-1.84612e-13
1.42024e-13
-9.6565e-13
6.29346e-13
-2.54621e-13
8.92361e-14
-5.96898e-13
-7.94839e-09
-1.82096e-07
2.54864e-08
6.78175e-08
1.6363e-07
5.53911e-08
-1.95831e-07
7.36635e-08
-1.79159e-07
-4.12481e-08
-7.06967e-08
1.43313e-07
-3.4409e-08
2.38785e-08
5.97579e-08
-1.45696e-08
8.70482e-08
3.83948e-08
5.2091e-08
-3.04105e-08
-5.99798e-08
-4.153e-08
-1.73387e-08
9.74296e-08
-6.32097e-08
7.40827e-08
-5.41752e-08
5.36189e-08
-6.16155e-08
2.11389e-07
-1.85316e-07
-6.57079e-08
8.9645e-08
1.30164e-07
-4.0944e-08
-6.2786e-08
7.68941e-10
1.0311e-07
-7.34135e-08
6.69446e-08
-3.43615e-08
-8.78163e-08
-4.79011e-08
7.20914e-08
-3.47367e-08
-3.65737e-08
3.01819e-07
-1.65694e-07
4.22403e-07
-5.46874e-07
6.47953e-07
-1.44269e-07
-7.15627e-08
3.13585e-07
-1.14171e-07
-5.34752e-08
-7.68343e-14
-4.20373e-12
-1.93293e-13
2.8972e-12
-3.91403e-12
2.8777e-12
-1.8666e-15
6.19334e-12
-1.72034e-11
2.89046e-11
-8.86228e-11
4.5975e-11
-1.98681e-11
4.72429e-11
-3.08394e-11
8.83202e-12
-1.35786e-10
-2.36179e-31
-4.74839e-31
-8.84666e-25
3.23722e-26
8.2478e-32
-1.92849e-30
-1.0546e-31
-1.30099e-29
3.20307e-31
2.80614e-29
1.94492e-29
-2.90774e-28
2.88209e-30
1.53465e-30
1.9267e-30
-1.10014e-29
-4.65597e-22
3.79857e-22
5.01038e-22
3.48997e-22
-4.32407e-21
8.68468e-26
2.42301e-23
2.27619e-24
6.15433e-23
8.46953e-24
-7.32556e-23
-5.13387e-23
4.40243e-23
-5.70053e-22
3.62773e-23
3.40125e-22
-2.32809e-21
7.19922e-23
5.52317e-18
5.84205e-18
5.57647e-18
-3.64645e-17
-2.24478e-19
2.18739e-19
7.03585e-19
1.3668e-18
-1.77806e-20
4.21914e-19
-2.75051e-18
4.78247e-19
-5.97917e-19
7.08291e-19
-1.37176e-18
5.53746e-19
-3.49865e-18
-2.34753e-17
1.69283e-17
9.78848e-18
-1.90112e-16
7.52485e-17
-5.36833e-17
-2.63564e-16
5.33832e-19
2.6915e-17
-3.77118e-16
2.77459e-17
8.26312e-17
-7.27498e-18
-1.86461e-15
1.20232e-16
-5.64842e-16
4.43289e-17
-9.23588e-31
-8.83757e-30
-1.25998e-30
2.29804e-30
-1.0534e-30
-1.23272e-29
2.98383e-31
-1.96288e-28
-2.18926e-30
-9.26466e-30
-2.35237e-29
5.91346e-30
-2.54416e-28
2.25174e-29
3.11689e-28
-4.56753e-27
-1.53367e-30
7.09478e-31
1.80967e-31
-4.40697e-31
2.1248e-32
-5.71662e-33
-1.50055e-33
-1.31257e-33
6.30125e-33
-5.08829e-35
-3.59872e-33
-1.4477e-33
-5.32263e-33
-1.08308e-34