/*--------------------------------*- C++ -*----------------------------------*\
| =========                 |                                                 |
| \\      /  F ield         | OpenFOAM: The Open Source CFD Toolbox           |
|  \\    /   O peration     | Version:  v2012                                 |
|   \\  /    A nd           | Website:  www.openfoam.com                      |
|    \\/     M anipulation  |                                                 |
\*---------------------------------------------------------------------------*/
FoamFile
{
    version     2.0;
    format      ascii;
    class       volVectorField;
    location    "0.1";
    object      U;
}
// * * * * * * * * * * * * * * * * * * * * * * * * * * * * * * * * * * * * * //

dimensions      [0 1 -1 0 0 0 0];


internalField   nonuniform List<vector> 
24700
(
(0.0186718 -1.74923 0.0193309)
(-0.00745798 -1.69521 0.0108638)
(-0.00548141 -1.64547 0.00415982)
(0.0709468 -1.44458 -0.0167492)
(0.0308548 -1.5587 -0.0370507)
(0.0777681 -1.51236 -0.0544784)
(0.0556431 -1.56287 -0.0471343)
(-0.0108157 -1.49013 0.00499043)
(0.0774491 -0.896768 -0.0190303)
(0.024292 -1.39603 -0.022151)
(-0.00255018 -1.46711 -0.0230649)
(-0.00356289 -1.49875 0.00410887)
(3.66677e-05 -1.4849 -0.020292)
(0.00447085 -1.4707 -0.0194658)
(0.00613365 -1.48445 0.0036463)
(-0.00165636 -1.49514 0.000474198)
(-0.00179218 -1.48939 -0.0162659)
(-0.00434756 -1.57041 0.0174418)
(0.0329707 -1.54351 0.0210122)
(0.0025121 -1.66986 0.0926087)
(0.0432309 -1.4526 0.00433014)
(0.00951907 -1.49691 -0.000286733)
(0.025098 -1.44395 0.00678692)
(0.00485599 -1.57342 0.0507739)
(0.0510881 -1.43844 -0.00158151)
(0.00816517 -1.51375 -0.00542328)
(0.0431543 -1.20738 -0.00183992)
(-0.0119487 -1.50001 0.0090657)
(-0.0269602 -1.50437 -0.0303512)
(-0.036163 -0.214976 0.0617013)
(-0.0481304 -0.256309 0.0489038)
(-0.00982654 -0.257495 0.0169291)
(0.0442163 -0.167431 0.00634242)
(0.0619195 -0.292199 -0.0378835)
(0.0603472 -0.251529 -0.0024002)
(0.0795689 -0.312118 -0.0278148)
(0.00345825 0.743728 1.26238)
(0.0124654 0.869657 1.19932)
(0.00588534 0.989128 1.08823)
(-0.0173173 0.745143 1.2085)
(-0.00918296 0.434493 1.2422)
(-0.0409147 0.745782 1.27554)
(-0.0317368 0.660243 1.26491)
(0.0192285 0.326711 -0.849898)
(0.0238036 0.165044 -0.86547)
(0.0646836 -0.214259 -0.795984)
(-0.0676765 0.235473 -0.823524)
(-0.0330816 0.398738 -0.876547)
(-0.0163233 0.288245 -0.852085)
(0.0312238 0.0330815 -0.803495)
(0.0166525 0.403038 0.216518)
(0.0055627 0.522544 0.221758)
(0.0481423 0.342514 0.218881)
(-0.023958 0.483142 0.288859)
(-0.00500567 0.403998 0.297452)
(0.0533503 0.389916 0.231972)
(0.0784597 0.338216 0.233532)
(0.19286 -2.13516 0.361529)
(0.175678 -2.4996 1.69782)
(0.805114 -1.92316 -0.663892)
(0.25856 -1.76159 -0.613853)
(-0.61774 -1.57733 -0.198754)
(0.632695 -1.75647 -0.606357)
(-0.512089 -1.70756 -0.650852)
(0.00228314 0.152313 -0.221548)
(-0.000598761 0.202608 -0.225468)
(0.00115683 0.185317 -0.196736)
(-0.00424559 0.140605 -0.195806)
(-0.0308235 0.166735 -0.201587)
(-0.0266757 0.18869 -0.215693)
(-0.0112487 0.156571 -0.178567)
(-0.0030912 -0.913207 0.548477)
(-0.0207231 0.080709 0.225884)
(0.000231849 -0.289949 0.441257)
(0.161375 -0.6025 0.596149)
(0.0572601 -0.179259 0.464029)
(0.0862515 -0.391602 0.611254)
(0.141123 -0.983227 0.716062)
(-0.00201018 -1.43488 -0.0670641)
(-0.0313303 -1.08271 0.0383693)
(-0.010761 -1.49069 -0.0619093)
(-0.0709557 -1.5804 -0.0381202)
(0.0628594 -1.34592 -0.108946)
(-0.0276328 -1.52755 -0.112899)
(-0.0340886 -1.5383 -0.0869838)
(0.000486401 -0.473052 -0.424388)
(-0.0664176 -0.248439 -0.511941)
(-0.0362406 -0.0368992 -0.612769)
(0.0804059 -0.207553 -0.549737)
(0.0188042 -0.379017 -0.44801)
(-0.0721214 -0.276203 -0.509965)
(0.00125249 -0.131232 -0.600528)
(-0.00366113 0.22859 -0.0132796)
(0.00264114 0.232415 -0.0194374)
(5.75886e-06 0.232701 -0.0205069)
(0.00279384 0.247758 -0.014598)
(0.0015389 0.240153 -0.0154431)
(0.00168373 0.243721 -0.0174022)
(-0.00234132 0.236342 -0.0111552)
(0.000343148 0.302132 -0.0114613)
(-0.00122255 0.289314 -0.00168016)
(0.00187179 0.282056 0.0033625)
(0.00426822 0.279538 0.00602404)
(0.00278222 0.282453 0.00378716)
(0.00599684 0.279962 0.00603873)
(0.00781347 0.280243 0.0035145)
(-0.00656564 0.23615 0.0522068)
(0.0063673 0.242642 0.0474529)
(-0.000292239 0.251727 0.0330837)
(0.00161863 0.25247 0.050691)
(0.00168453 0.253873 0.0548285)
(0.00495257 0.246561 0.0568579)
(-0.00117083 0.248808 0.0563722)
(-0.0021156 0.23334 0.0136866)
(0.00105067 0.275838 0.0164991)
(0.00180531 0.287443 0.0170243)
(0.00982052 0.267308 -0.0102108)
(0.00317051 0.255515 -0.00860673)
(-0.00142509 0.23358 -0.0105028)
(0.0114975 0.265899 -0.0169432)
(-0.0138905 0.135502 -0.00141959)
(0.0129761 0.248329 -0.0238536)
(0.00115541 0.244055 0.00336324)
(-0.00719196 0.269064 0.00286362)
(0.000652024 0.267135 0.0121816)
(0.000392123 0.266457 0.0176289)
(0.00725233 0.270432 0.00124027)
(-0.000378389 0.265707 -0.00300774)
(0.00786102 0.274702 -0.00417926)
(-0.00416978 0.272277 -0.00822169)
(-0.001886 0.271609 -0.00143047)
(0.00615856 0.274286 0.00111979)
(-0.00120495 0.272962 0.00456446)
(-0.0136705 0.28158 0.00158257)
(-0.000667053 0.280383 -0.00337018)
(-0.000474461 0.25965 0.00562905)
(-0.000333786 0.269495 0.00108297)
(-0.00276879 0.257133 0.00246433)
(0.000299194 0.272417 0.00605712)
(0.000183002 0.276709 0.00798453)
(-0.000195711 0.272759 0.00763692)
(-0.0017959 0.26375 0.00678175)
(0.000374575 0.242117 -0.0193812)
(-0.00113009 0.246234 -0.0166894)
(-0.00277689 0.251675 -0.0144492)
(0.00100141 0.247887 -0.0177172)
(0.0030526 0.247011 -0.015896)
(0.0025452 0.250532 -0.0150126)
(-0.000426548 0.25323 -0.0163322)
(-0.0060057 -0.049611 -0.959818)
(-0.0299753 0.284473 -0.956122)
(-0.0117268 0.408493 -0.900808)
(0.00657846 0.450042 -0.968619)
(0.0887378 0.324853 -0.94045)
(0.0236883 0.359391 -0.970617)
(0.0429164 0.136571 -0.976312)
(-0.0171464 0.734311 -0.246515)
(0.00478293 0.720985 -0.287916)
(-0.000915244 0.58767 -0.303912)
(-0.00103816 0.584503 -0.322212)
(0.0287044 0.585699 -0.342687)
(0.0300298 0.685978 -0.320595)
(-0.0116396 0.684738 -0.270955)
(-0.00116792 0.340663 -0.266886)
(0.00712686 0.3995 -0.372265)
(0.0271821 0.411267 -0.45472)
(0.0195666 0.257538 -0.374649)
(-0.00339359 0.270092 -0.259247)
(0.0473794 0.358763 -0.393242)
(0.0682921 0.354469 -0.496537)
(-0.00782107 -0.305181 -0.0738494)
(0.0868224 -0.301916 -0.379398)
(0.047437 -0.32895 -0.281958)
(-0.0832424 -0.171073 -0.0720171)
(0.0174329 -0.119199 -0.232257)
(0.111877 -0.224468 -0.45073)
(0.0586236 -0.296262 -0.323511)
(0.0127349 -0.314909 0.141911)
(0.0120306 -0.321702 0.0921008)
(0.00161732 -0.386133 0.0286619)
(-0.0270097 -0.391845 0.062705)
(-0.0271093 -0.371239 0.100866)
(-0.0144821 -0.33504 0.104697)
(-0.0168836 -0.33188 0.140826)
(-0.0162177 -0.250036 0.32877)
(-0.00401912 -0.348173 0.402219)
(-0.00572247 -0.283034 0.399133)
(0.0385194 -0.291564 0.439186)
(0.00606449 -0.200021 0.378447)
(0.042275 -0.34556 0.424749)
(-0.0198153 -0.234367 0.31664)
(0.0147061 -0.0735355 -0.089491)
(-0.00290364 -0.0738714 -0.125088)
(-0.00159258 -0.0985441 -0.117251)
(-0.00525537 -0.185822 -0.130732)
(-0.0199475 -0.164969 -0.114325)
(-0.0199004 -0.116973 -0.11107)
(-0.015407 -0.121277 -0.0774226)
(-0.0132467 -0.152846 -0.716463)
(-0.000330258 -0.159865 -0.694556)
(0.000176946 -0.148407 -0.681755)
(-0.0121323 -0.242009 -0.670189)
(-0.0015083 -0.27511 -0.700327)
(-0.0100628 -0.218982 -0.722866)
(-0.0157398 -0.210995 -0.677845)
(-0.000875255 -2.00911 0.000384626)
(-0.00266981 -1.98711 0.0212729)
(8.16432e-05 -2.0124 -0.016492)
(0.00549803 -1.98597 0.0330377)
(-0.00232052 -1.95605 0.00915294)
(-0.00240214 -1.9859 -0.0071363)
(0.00143734 -1.99323 0.0132843)
(0.00667789 -0.585806 0.249049)
(-0.0162392 -0.73891 0.00906075)
(0.00106385 -0.863813 0.0244769)
(0.0231657 -0.565538 0.206324)
(0.0322891 -0.495781 0.0475013)
(0.0334422 -0.735901 -0.0888787)
(0.0177117 -0.792757 -0.0232007)
(-0.0167371 0.170703 -0.286361)
(-0.00233235 0.225672 -0.305949)
(0.00727161 0.169385 -0.295105)
(0.0184685 0.190625 -0.283396)
(0.000733498 0.195552 -0.27551)
(0.0128902 0.16291 -0.284975)
(-0.0129043 0.163201 -0.265857)
(0.00160551 0.318879 -0.449208)
(-0.00798471 0.32941 -0.417604)
(-0.000292505 0.350019 -0.490639)
(0.00176272 0.396808 -0.44141)
(0.0061691 0.380535 -0.47407)
(0.000751972 0.360039 -0.414753)
(0.0102263 0.351012 -0.445713)
(-0.00599695 0.365053 -0.0607293)
(0.0318743 0.27777 -0.0984423)
(-0.0132177 0.334261 0.014931)
(0.0142281 0.419245 -0.192672)
(0.0555284 0.410007 -0.271045)
(0.0928144 0.360593 -0.22625)
(0.0482486 0.385014 -0.0904773)
(-0.00127285 -0.0692324 0.293596)
(0.00260732 -0.070465 0.276243)
(0.00394054 -0.0724332 0.280733)
(-0.00783344 -0.0319747 0.286439)
(-0.0071876 -0.0343031 0.267519)
(-0.00413216 -0.0394471 0.264142)
(-0.00144901 -0.042242 0.277699)
(0.0186446 0.203608 -0.032442)
(0.0332525 0.294903 -0.031677)
(0.215927 0.15436 0.0545343)
(-0.00631176 0.448198 0.00900221)
(0.0546838 0.428343 0.00181387)
(0.0875938 0.309816 -0.0462717)
(0.0193895 0.00143999 0.0115192)
(0.0296176 -0.00412063 -0.00774273)
(0.0307924 0.00141295 -0.00213815)
(-0.00102825 0.00413511 0.00727666)
(-0.00461539 -0.00318626 0.01346)
(-0.00498994 0.00568056 0.0193303)
(0.0376139 0.0279834 -0.0473811)
(0.110081 0.0646473 -0.0197632)
(-0.0482338 -0.133173 0.0863055)
(0.109642 0.119076 0.0112609)
(-0.0877881 -0.127651 -0.0680635)
(0.0687762 0.0475978 -0.0471492)
(0.115603 0.0490442 0.0295253)
(-0.143578 -0.263368 0.0504808)
(-0.0816013 0.0970901 0.0951237)
(0.0114039 -0.185959 0.228241)
(0.065619 -0.0287599 0.0998673)
(0.0250494 -0.095727 0.0587473)
(-0.08398 0.132158 0.0505422)
(-0.0746343 -0.0686195 0.0290795)
(0.1768 -0.0692899 -0.0998402)
(-0.0853256 0.101999 -0.129439)
(0.184326 -0.0730684 -0.035916)
(-0.196391 -0.0656702 -0.00850356)
(0.0383205 -0.135369 -0.152232)
(0.0364435 -0.225938 -0.18595)
(0.0137518 -0.0867778 -0.110527)
(-0.0173663 0.13062 0.0414288)
(-0.0652776 -0.0784465 -0.0724753)
(-0.0757786 -0.139468 -0.0662104)
(0.0427743 0.218417 -0.121065)
(0.0495954 0.219068 -0.190717)
(-0.0816763 0.0588489 -0.134026)
(-0.0714838 0.0352816 -0.104236)
(-0.075775 0.129557 -0.00686938)
(0.0400522 0.116473 0.132518)
(-0.0232358 0.154352 0.0669385)
(0.0136329 0.162317 0.11846)
(0.0628655 0.165306 0.166085)
(0.0863123 0.110444 0.214799)
(-0.00405763 0.112529 0.131402)
(-0.0254821 0.601995 0.232701)
(0.0167716 0.357897 0.00536762)
(0.0301125 0.31064 0.282376)
(0.045331 0.486442 0.318224)
(0.0211819 0.480078 0.151663)
(0.115589 0.279294 0.0548569)
(0.126388 0.303622 0.352548)
(-0.0244608 1.64668 -0.642589)
(0.00793725 1.49642 -0.666925)
(-0.0167041 1.58659 -0.686558)
(0.0322031 1.55759 -0.41876)
(0.0375476 1.54157 -0.536569)
(0.0290744 1.60498 -0.612587)
(0.0270524 1.61616 -0.592878)
(0.000986352 -0.285053 -0.442072)
(-0.00344417 -0.300502 -0.476757)
(0.00463003 -0.309546 -0.497416)
(0.0124669 -0.331511 -0.485956)
(0.00025218 -0.319932 -0.481523)
(0.00531622 -0.320188 -0.491887)
(0.0166575 -0.322214 -0.49216)
(-0.111273 -1.66354 0.157643)
(-0.220103 -1.77531 0.130888)
(-0.0141073 -1.57106 0.338451)
(0.0579225 -1.63455 0.293576)
(0.165395 -1.50135 0.31756)
(-0.143448 -1.72041 0.256355)
(-0.00762817 -1.62438 0.283279)
(-0.130501 0.657517 -0.586794)
(-0.109499 0.724675 -0.451832)
(-0.0107294 0.603389 -0.762759)
(0.146933 0.90756 -0.566768)
(0.105117 0.778845 -0.697463)
(-0.00646313 0.849601 -0.480903)
(-0.0269426 0.798931 -0.601444)
(0.00179802 0.272574 -0.00771473)
(0.00204567 0.26963 -0.00890938)
(-0.000135922 0.278041 -0.000885238)
(-0.000318915 0.271847 -0.0050345)
(-0.00180384 0.274055 -0.0038947)
(0.00113788 0.27111 -0.00761586)
(0.000245556 0.272047 -0.0086998)
(-0.000236661 0.269861 0.00618265)
(0.000642569 0.266438 0.0015419)
(0.00134893 0.264359 -0.00020229)
(-0.00281251 0.262065 0.00362843)
(-1.31597e-05 0.261935 0.00167552)
(-0.0012821 0.264927 6.31025e-05)
(0.00139091 0.267466 -0.000515344)
(0.00383846 0.259856 -0.00405233)
(-0.000545791 0.257469 0.0112142)
(0.00107421 0.257523 5.20474e-06)
(-0.00140828 0.252354 0.00502532)
(0.000240238 0.248398 0.000451713)
(-0.00175744 0.251872 -0.00271859)
(0.000228432 0.251395 -0.00548932)
(-0.00120497 0.279931 0.0108622)
(0.000516696 0.279781 0.00991954)
(-0.000353642 0.285061 -0.00113415)
(-0.000315209 0.274399 0.0045233)
(-0.000806666 0.268737 0.00716837)
(-0.000238501 0.276425 0.0134509)
(0.000374015 0.273674 0.0124309)
(-0.00363069 0.270194 -8.31173e-05)
(7.29435e-06 0.267203 0.000228488)
(0.000124189 0.266124 0.0103096)
(0.00017444 0.271123 0.000394623)
(-0.000796435 0.270099 0.00188472)
(0.00226205 0.267791 -0.00382072)
(0.00172101 0.266829 -7.54389e-05)
(-0.00418832 0.263686 -0.000277395)
(-1.42222e-05 0.260078 -0.00870558)
(2.55421e-06 0.263657 -0.000974356)
(-0.00066969 0.265563 0.000303701)
(0.00362926 0.269659 0.00102218)
(0.00536139 0.269285 0.0039907)
(-0.000669231 0.266677 0.000108218)
(0.00144693 0.25707 -7.77609e-05)
(0.000624771 0.263295 -0.0056948)
(0.00119829 0.256109 0.00150548)
(-0.00402693 0.264868 0.00595188)
(-0.00139286 0.262424 0.00249603)
(0.00208289 0.256593 0.00528408)
(0.00049148 0.258576 0.00609069)
(0.000480063 0.269556 0.00298047)
(0.000708022 0.260623 0.00871305)
(0.00199246 0.256847 0.00529313)
(0.000365911 0.279138 0.00925244)
(-3.00248e-05 0.273638 0.00762205)
(0.00114464 0.27603 0.00930263)
(0.00185788 0.265046 0.00918055)
(-0.00064624 0.265896 0.010548)
(-0.0019666 0.254869 0.00516058)
(-0.00111339 0.255822 0.00807948)
(0.000652603 0.265225 0.00511649)
(0.00118091 0.264974 0.00120517)
(-0.00133978 0.259403 0.000813642)
(-0.00252671 0.258017 0.00304541)
(5.07404e-05 0.23336 -0.0206328)
(-0.00282053 0.232785 -0.0189953)
(0.00389009 0.228847 -0.0133044)
(-0.00172915 0.240834 -0.0151437)
(-0.0035032 0.248464 -0.0138741)
(-0.00251562 0.244225 -0.0173031)
(0.00213139 0.236919 -0.0115177)
(-0.000825179 0.178134 -0.0245652)
(-0.00142377 0.188932 -0.0317285)
(-0.00836883 0.1828 -0.0347198)
(0.0125238 0.180376 -0.00748933)
(0.00684455 0.189772 -0.0170389)
(0.00336709 0.192824 -0.0283362)
(-0.00116333 0.18355 -0.0300805)
(-0.00226954 -1.91047 -0.00102786)
(-0.000982451 -1.91947 -0.0125081)
(-0.00761771 -1.93267 -0.00695632)
(-0.00157794 -1.88281 -0.0128184)
(0.00239056 -1.88518 -0.0249681)
(0.00381998 -1.89964 -0.0233936)
(0.00306127 -1.91556 -0.00774351)
(-0.00903861 0.0887697 -0.258486)
(-0.0158629 0.0653019 -0.283456)
(-0.00300587 0.0662142 -0.272084)
(0.0357308 -0.00466824 -0.226188)
(0.0165836 -0.00036171 -0.282082)
(-0.0223599 0.0207074 -0.309022)
(-0.0062029 0.0544563 -0.252373)
(-0.00979229 -0.00416787 -0.589992)
(-0.00933547 -0.0153459 -0.800331)
(0.000494682 -0.0865702 -0.629054)
(0.0195272 0.0759227 -0.818927)
(0.0101339 0.167427 -0.791567)
(0.0375703 -0.0338617 -0.680005)
(0.00134482 0.0884271 -0.689566)
(-0.00197848 0.0774534 0.208441)
(-0.00753387 0.0955763 0.192754)
(-0.00319232 0.0299709 0.182475)
(-0.018282 0.0740231 0.0802371)
(0.00373178 0.0230833 0.102041)
(-0.03001 0.116441 0.138677)
(-0.01402 0.0740525 0.146729)
(-0.0236964 0.229245 0.100584)
(0.000296308 0.14627 0.0925478)
(-0.0185813 0.229001 0.122838)
(-0.00218996 0.128698 -0.0191124)
(0.00556281 0.108357 0.0193856)
(0.0200991 0.196972 0.0172846)
(-0.00128068 0.220923 0.0661838)
(-0.0278466 0.260555 0.10683)
(0.00879914 0.235339 0.0591528)
(-0.0116273 0.0553817 0.000159988)
(0.00682491 0.0885306 0.00954123)
(0.0101474 0.158907 0.0453051)
(-0.00212969 0.383363 0.166952)
(0.00932302 0.337588 0.106382)
(-0.0119826 0.384002 0.0436717)
(-0.0317382 0.555222 0.137145)
(-0.0228153 0.466583 0.173808)
(-0.0297566 0.478602 0.142044)
(-0.032415 0.554774 0.0724157)
(-0.0604683 0.338411 -0.0100409)
(-0.0266128 0.456414 0.00336497)
(-0.0416061 0.183053 0.00378129)
(-0.0175631 0.266598 0.0652696)
(-0.0615477 0.376164 0.0680171)
(-0.0180207 0.304749 -0.637207)
(-0.0389426 0.261568 -0.646414)
(-0.0124419 0.230618 -0.623594)
(-0.029256 0.171337 -0.843148)
(0.0136773 0.221868 -0.78394)
(-0.08014 0.264054 -0.789428)
(-0.0287857 0.299055 -0.789928)
(-0.00826972 0.0680144 -0.176502)
(0.0273712 -0.10658 -0.278654)
(0.029025 0.00367682 -0.169738)
(0.0177255 0.0361665 -0.282599)
(0.00801759 0.00970629 -0.381619)
(0.0345603 -0.0680596 -0.380108)
(0.0662297 0.00187215 -0.295324)
(-0.00560624 -0.434492 -0.833253)
(0.0331434 -0.279335 -0.768077)
(-0.0238452 -0.323755 -0.810928)
(0.00942739 -0.366499 -0.647327)
(-0.00807595 -0.283746 -0.665184)
(0.0421675 -0.175245 -0.622772)
(0.0140949 -0.312246 -0.64098)
(0.000513208 -0.362757 -0.541819)
(-0.00136657 -0.252177 -0.487471)
(-0.00381041 -0.281003 -0.518151)
(0.000166617 -0.320335 -0.418478)
(-0.00749129 -0.280745 -0.40525)
(-0.00481056 -0.222286 -0.397393)
(-0.000988079 -0.271448 -0.405701)
(0.00293501 0.505231 0.729907)
(0.0199086 0.289463 0.858413)
(0.0558428 0.421567 0.804696)
(-0.0370464 0.415424 0.738573)
(-0.0551611 0.324394 0.784681)
(-0.0472199 0.316242 0.841206)
(0.00267085 0.399877 0.815399)
(0.013974 0.508745 -0.020152)
(0.00144887 0.489658 -0.0306657)
(-0.000896067 0.510471 -0.0549296)
(-0.0232051 0.487871 0.0169622)
(0.00833695 0.503649 0.036724)
(-0.00244576 0.480474 0.0102587)
(0.0194631 0.507819 0.0172275)
(0.000851508 0.287481 -0.0313986)
(-0.000972823 0.288612 -0.0225858)
(-0.00241274 0.289592 -0.0175939)
(0.00463398 0.294874 -0.0188378)
(-0.000559799 0.294085 -0.0215268)
(0.00179437 0.297457 -0.0211331)
(0.00558901 0.296573 -0.0177556)
(0.000930932 0.264254 0.00974526)
(-0.000961004 0.266802 0.0082496)
(-0.000372761 0.267903 0.0189239)
(-0.000884541 0.251553 0.0122317)
(-0.00256253 0.25397 0.0144698)
(-0.00257801 0.259675 0.00912462)
(-0.0020198 0.253701 0.00860343)
(0.00475755 0.219645 0.00118071)
(0.0104285 0.257684 -0.0230112)
(0.00940991 0.138509 0.00479716)
(-0.0122321 0.244031 -0.00423605)
(-0.0244415 0.246292 0.021536)
(-0.0244134 0.273745 0.0185693)
(-0.00675173 0.281611 -0.0175857)
(-0.00237232 0.27049 0.00630012)
(0.000894312 0.285741 -0.0126544)
(-0.00374982 0.278226 -0.00029406)
(0.00398218 0.26448 -0.000598328)
(0.00481408 0.265699 -0.00231623)
(0.00443037 0.265 0.00238361)
(0.00390822 0.266105 0.00316312)
(-0.00140826 0.241801 0.0101066)
(-0.00221451 0.244844 0.0131297)
(0.00030657 0.236596 0.00615127)
(0.00113264 0.242526 0.00774126)
(0.000609687 0.242007 0.00846229)
(-0.000177961 0.24734 0.0107359)
(-0.000825448 0.245907 0.0107485)
(-0.00352029 0.23948 -0.00297505)
(-0.00308684 0.243467 0.00110158)
(0.000931571 0.233219 -0.00849665)
(0.00498061 0.245489 -0.0058319)
(-0.000354461 0.243245 -0.00868521)
(0.00320327 0.248758 -0.00258019)
(-0.000554778 0.245456 -0.00525284)
(-0.028084 0.546543 0.237787)
(-0.0771492 0.391648 0.152969)
(-0.0192865 0.456718 0.190824)
(0.0652083 0.379746 0.304189)
(0.0153147 0.271018 0.297015)
(-0.0218236 0.2542 0.21513)
(0.00213779 0.33369 0.23981)
(-0.0209552 0.430828 -0.938586)
(0.00156334 0.49275 -0.862312)
(-0.0346032 0.34256 -0.968031)
(0.0429021 0.267076 -0.90988)
(0.0203249 0.113197 -0.910864)
(0.0294283 0.282116 -0.946508)
(0.00671759 0.22792 -0.915026)
(0.0234246 0.669 -0.793009)
(-0.021656 0.704167 -0.758844)
(-0.00856719 0.722282 -0.763297)
(0.00756095 0.687514 -0.777874)
(0.0432067 0.661469 -0.804136)
(0.00801136 0.667273 -0.783131)
(0.056845 0.644449 -0.821048)
(0.00223199 0.658286 -0.719678)
(0.0163006 0.665198 -0.769186)
(0.00165645 0.582555 -0.643432)
(-0.0100982 0.549234 -0.662703)
(0.0011344 0.539762 -0.701318)
(0.0214088 0.616039 -0.76323)
(0.00246864 0.627276 -0.722728)
(0.00357054 0.0612772 0.103173)
(0.0051481 0.00382903 0.166393)
(0.0177649 0.0150492 0.113486)
(-0.0233513 0.0906173 0.19497)
(-0.00822159 0.0624093 0.201039)
(-0.00318352 0.0631316 0.146815)
(-0.0212506 0.109504 0.142645)
(0.0223297 0.0333586 0.264952)
(-0.0121234 0.0764754 0.2756)
(0.00235873 -0.0203187 0.284674)
(0.00423407 0.0082804 0.298921)
(-0.010099 0.03799 0.312502)
(-0.0260784 0.0786868 0.295108)
(0.00350774 0.0445688 0.276323)
(0.0836376 0.0609701 -0.676978)
(0.000598713 0.167935 0.238695)
(-0.305161 0.156741 -0.0132742)
(0.0951379 0.0172766 0.0400382)
(0.103769 0.0577069 0.0292189)
(0.0849063 0.0538858 0.166705)
(-0.131406 -0.046796 0.151356)
(-7.05508e-05 0.0459459 -0.129544)
(0.0046703 0.165181 -0.0266035)
(-0.0149802 0.196459 -0.00299155)
(0.0679862 0.100977 -0.139386)
(-0.0445694 0.0761111 -0.0869745)
(-0.00471808 0.124936 0.0318775)
(-0.00643228 0.148123 0.050866)
(-0.00268284 0.0721602 -0.290961)
(-0.00332087 -0.0682422 -0.312543)
(0.0108136 -0.0469587 -0.346672)
(0.0145041 0.0113035 -0.481412)
(0.00704695 0.0103789 -0.473483)
(0.00325386 -0.093371 -0.386425)
(0.0426188 -0.0819019 -0.455429)
(0.0119217 -0.252953 -0.274716)
(0.00639899 -0.274053 -0.260729)
(-0.000878274 -0.21694 -0.268432)
(-0.00901609 -0.2473 -0.20952)
(-0.0107404 -0.218157 -0.229436)
(-0.00692924 -0.272785 -0.237493)
(0.00127439 -0.249336 -0.250329)
(-0.0153657 -0.525433 -0.262479)
(-0.00285944 -0.521656 -0.296123)
(-0.00653822 -0.524931 -0.307996)
(0.0101813 -0.479117 -0.265199)
(0.0208293 -0.487933 -0.279323)
(-0.00506772 -0.484828 -0.246253)
(0.0119669 -0.506338 -0.293367)
(-0.00803703 -0.0641398 0.488669)
(0.0132956 -0.0836674 0.517921)
(0.000854383 -0.0474144 0.516667)
(0.00573829 -0.0389169 0.505562)
(-0.0115058 -0.0437979 0.500031)
(0.015086 -0.0648555 0.509757)
(-0.0102837 -0.0580376 0.494339)
(0.00253001 0.355464 0.133919)
(0.00353934 0.381091 0.138264)
(0.000131626 0.385026 0.129809)
(-0.00571059 0.36088 0.10823)
(0.00580221 0.371342 0.115954)
(0.00894484 0.371781 0.119737)
(-0.000672909 0.351816 0.111452)
(-0.00175309 0.300525 0.0223717)
(0.00036232 0.300405 0.0190626)
(-0.000652512 0.30299 0.0344472)
(0.000105871 0.287798 0.0220088)
(-0.00112491 0.289352 0.0232392)
(-0.00172737 0.292683 0.0132289)
(-0.004464 0.289504 0.011705)
(0.00636631 0.1399 6.1638e-05)
(-0.0136519 0.234128 -0.00455284)
(-0.0155254 0.232012 0.00839494)
(-0.013111 0.228447 -0.00160226)
(-0.0185333 0.236676 -0.0220255)
(-0.0175499 0.248642 -0.013935)
(-0.0171769 0.250923 0.00767326)
(-0.00143217 0.252654 -0.00735687)
(0.00304691 0.287554 -0.0131321)
(-0.00369106 0.269065 0.00142123)
(-0.00556927 0.249447 -0.00635544)
(-0.00724864 0.256417 -0.013991)
(-0.0130012 0.147668 0.0073759)
(-0.017156 0.22805 -0.00226235)
(-0.00393333 0.266974 -0.0256569)
(0.000738727 0.244123 0.00825432)
(-0.00402911 0.23225 0.0227661)
(-0.00726467 0.260917 0.0133065)
(0.00594712 0.276364 -0.0163097)
(0.000400674 0.272116 -0.0128158)
(-0.0187233 0.248809 -0.000743279)
(0.0043708 0.26899 -0.0157864)
(0.00110483 0.262384 -0.00695915)
(-0.0069363 0.265858 0.00319941)
(-0.00804502 0.266138 0.000942753)
(-0.0274614 0.275696 0.00825529)
(0.00186573 0.283488 -0.0382944)
(-0.0233565 0.276795 0.0186618)
(0.0117737 0.246363 0.0195097)
(0.0013452 0.220767 -0.0307808)
(0.00652381 0.242239 -0.0180938)
(0.00233412 0.238044 -0.0267372)
(-0.00499872 0.227209 -0.0188974)
(-0.00586235 0.234392 -0.00870952)
(0.00454549 0.245513 -0.0135249)
(0.000987576 0.238538 -0.0209365)
(0.00280577 0.391465 0.016232)
(0.0174074 -0.0686511 0.405868)
(0.058894 -0.571231 0.559706)
(-0.0712591 -0.498397 0.471109)
(0.0747954 -1.13234 0.654558)
(0.0544716 -0.673055 0.74354)
(0.116407 -1.23116 0.876424)
(-0.00515988 0.237123 0.358905)
(-0.0131823 0.25011 0.281975)
(0.0265059 0.21231 0.311399)
(0.0158451 0.1662 0.352975)
(0.0241901 0.224735 0.352235)
(0.0147065 0.229877 0.288933)
(0.020574 0.178326 0.282231)
(0.0226089 0.301335 0.225851)
(-0.00274232 0.175678 0.31889)
(0.0225272 0.24231 0.292149)
(-0.0274143 0.274532 0.135928)
(-0.0373287 0.230374 0.198025)
(-0.0229181 0.293909 0.218464)
(-0.0102759 0.319084 0.146144)
(0.00102018 0.397091 -0.158901)
(0.000236765 0.413455 -0.151496)
(0.00485897 0.39386 -0.156255)
(-0.00660047 0.413716 -0.187461)
(0.00232277 0.419749 -0.188238)
(0.000544841 0.400393 -0.177276)
(0.00349424 0.410272 -0.17154)
(-0.00289796 0.443944 -0.179122)
(0.000504752 0.467715 -0.159998)
(0.00546089 0.443751 -0.185824)
(-0.00285686 0.459053 -0.183426)
(-0.00407451 0.459491 -0.181018)
(-0.00221301 0.455837 -0.188394)
(-0.00788516 0.449267 -0.193617)
(-0.00194494 0.409726 0.380986)
(0.0280705 0.418618 0.469616)
(-0.0122367 0.427822 0.4818)
(-0.00805175 0.360194 0.52979)
(0.00642065 0.340777 0.534411)
(0.00578836 0.381031 0.559596)
(-0.0145055 0.389824 0.572026)
(0.00522632 0.712306 0.629975)
(0.0187307 0.794368 0.539337)
(0.00296896 0.569307 0.670279)
(0.0354736 0.724806 0.531734)
(-0.000501574 0.591375 0.595345)
(0.0699667 0.798508 0.556985)
(0.0397511 0.698239 0.628922)
(-0.0004155 -0.302262 0.0255283)
(-0.00380827 -0.290141 0.0214602)
(0.000922052 -0.282846 0.0220369)
(-0.00442409 -0.252616 0.000915156)
(-0.0013747 -0.283191 -0.00544127)
(-0.00594431 -0.277462 -0.00471377)
(-0.00538881 -0.260174 -0.000297696)
(0.000669973 -0.113796 -0.00309304)
(0.000960667 -0.245182 -0.00985387)
(-0.00725187 -0.233943 0.00239036)
(0.00305475 -0.263572 0.00546578)
(-0.00237842 -0.273155 -0.00234317)
(-0.00303065 -0.0704466 0.277125)
(-0.00134014 -0.0702665 0.272482)
(0.000707043 -0.0689838 0.288529)
(0.00340704 -0.0258364 0.285917)
(0.00615284 -0.0336267 0.266798)
(0.00226045 -0.0399731 0.263462)
(-0.000770656 -0.040188 0.277336)
(-0.0179811 -0.246248 0.174332)
(0.00812416 -0.265224 0.165975)
(0.00301649 -0.23445 0.146893)
(-0.0065082 -0.221194 0.152599)
(-0.0201139 -0.202957 0.144776)
(-0.0139364 -0.244788 0.173199)
(-0.0346741 -0.22538 0.173089)
(-0.0126936 -0.0577055 0.149606)
(0.00146395 -0.0237156 0.127818)
(-0.000639636 0.0378096 0.0885459)
(-0.00874992 0.0169836 0.0786948)
(-0.014074 -0.0186045 0.0824345)
(-0.0568225 -0.010307 0.113363)
(-0.0889113 -0.0631754 0.110482)
(-0.0548014 -0.0227847 -0.0379397)
(0.0390364 -0.00726999 0.21351)
(0.041016 0.0996518 0.038598)
(0.0873243 0.0116855 0.0795116)
(0.015352 -0.0270821 -0.0286039)
(0.0960409 -0.0341293 0.106399)
(0.0324504 0.0241742 -0.00488561)
(0.00260687 -0.0778349 -0.0785153)
(-0.0193284 -0.0756284 -0.0597704)
(0.000527113 -0.0889451 -0.118031)
(0.0154262 -0.0667773 -0.10735)
(0.00618745 -0.0806785 -0.121443)
(-0.0118427 -0.0599495 -0.0782401)
(-0.00822515 -0.0760951 -0.0950407)
(0.00314071 -0.0601312 -0.0922211)
(0.0065899 -0.0718979 -0.0871991)
(-9.83864e-05 -0.0682156 -0.0806043)
(-0.00265161 -0.0848348 -0.0821664)
(-0.00187872 -0.0695466 -0.0726465)
(0.013877 -0.0816239 -0.0811375)
(0.00582057 -0.0583807 -0.0794088)
(0.0020004 -0.357525 0.0343923)
(-0.000996086 -0.344176 0.0168033)
(-0.00940714 -0.365425 -0.0118337)
(0.00957907 -0.39434 0.013295)
(0.000104251 -0.370454 0.0401856)
(0.00257312 -0.36549 0.0279282)
(0.00315704 -0.400203 -0.00507396)
(-0.00687751 -0.00626039 0.33696)
(0.0143953 -0.0104069 0.354433)
(0.0020148 0.0362314 0.356598)
(-0.00759919 0.0408799 0.344645)
(-0.00820205 0.030512 0.333706)
(-0.00164759 0.0168186 0.361384)
(-0.0135038 0.000337525 0.333767)
(0.000745838 0.273846 0.308588)
(0.015408 0.26491 0.336689)
(0.00830903 0.273684 0.325823)
(-0.0137985 0.253676 0.30282)
(-0.0101233 0.239813 0.305108)
(0.00366432 0.262316 0.34577)
(-0.00470484 0.277632 0.340385)
(0.00779511 0.120863 0.000336972)
(-0.0122218 0.192037 -0.00271928)
(-0.0112819 0.196686 0.00526017)
(-0.0126661 0.206728 0.00260399)
(-0.0225284 0.214722 -0.014887)
(-0.0223634 0.2093 -0.00175524)
(-0.0164064 0.218001 0.0139065)
(-0.000427737 0.211539 -0.00341197)
(0.00172339 0.26207 0.000870483)
(-0.00605073 0.237923 0.0140744)
(-0.00272999 0.208687 -0.00689701)
(-0.0107889 0.223608 -0.00487417)
(0.000321069 0.26786 0.0186366)
(0.000763797 0.266596 0.00835607)
(-0.000752371 0.263887 0.00952181)
(0.00298338 0.253883 0.01377)
(0.000812678 0.251748 0.012074)
(0.0024697 0.259627 0.0090786)
(0.00215974 0.253566 0.0081727)
(0.000289214 0.270038 -0.0126358)
(0.000321149 0.263312 0.00309629)
(0.00624294 0.262974 0.00152883)
(-0.000935355 0.265938 0.000615547)
(-0.0060384 0.267229 0.00433934)
(-0.000657105 0.267041 0.00428717)
(0.00584393 0.26359 0.00637164)
(0.000372006 0.274773 -0.00919332)
(0.000456679 0.264455 -0.000584249)
(0.00418748 0.2617 -0.00160503)
(-0.00139142 0.268586 0.00162263)
(-0.00470488 0.266459 0.00518684)
(-0.00178903 0.266452 0.00177909)
(0.00268528 0.262696 0.00310138)
(0.000258176 0.217697 0.0318748)
(-0.000861298 0.210392 0.029992)
(-0.00324524 0.210338 0.0344848)
(0.0011275 0.208998 0.0202502)
(0.00429534 0.205032 0.0309607)
(0.0044766 0.205 0.0192676)
(0.00538659 0.19032 0.0313488)
(0.0132743 0.179873 0.0179595)
(-0.00165821 0.185535 0.0295903)
(0.0162238 0.16306 0.00305979)
(0.00574618 0.167735 0.0233702)
(-0.00296337 0.179794 0.0305653)
(-0.00637183 0.18487 0.0152774)
(-0.00883941 0.167319 0.0262394)
(0.0204515 0.149235 0.0227908)
(0.0125498 0.15294 0.00798522)
(0.000879183 -1.66229 -0.0349633)
(-0.000340618 -1.65186 -0.0193302)
(-0.00126973 -1.66318 -0.0505971)
(-0.00311126 -1.63004 -0.033051)
(-0.000405924 -1.65582 -0.045635)
(-0.0048841 -1.63647 -0.0262432)
(-6.0151e-05 -1.65701 -0.0376911)
(-0.0220022 -0.189248 0.198373)
(0.00737187 -0.122723 0.139862)
(-0.0104349 -0.0847192 0.127898)
(-0.0649106 0.064329 0.0884985)
(0.0267931 -0.0559908 0.069025)
(-0.0377024 -0.131761 0.0332555)
(-0.0048754 -0.261795 0.0857123)
(0.000282169 0.106796 0.0879875)
(0.0169994 0.129836 0.0627492)
(0.00486214 0.150638 0.0500345)
(-0.0176346 0.131212 0.0233239)
(-0.0137122 0.119279 0.0429883)
(0.00332491 0.139831 0.0342354)
(-0.0037041 0.15358 0.0188941)
(-0.00237918 0.317533 -0.0558998)
(0.000776229 0.310704 -0.0192504)
(0.000616136 0.332218 -0.0529109)
(-0.00106091 0.300883 -0.013812)
(0.00135694 0.294769 -0.0184767)
(-0.000519854 0.321185 -0.0293795)
(0.00246528 0.30194 -0.0414578)
(-0.0073684 0.373273 -0.183668)
(0.0034182 0.387888 -0.191906)
(-4.11106e-05 0.374167 -0.205594)
(0.00258347 0.376633 -0.209885)
(-0.00422818 0.369496 -0.201844)
(0.00502579 0.387596 -0.200036)
(-0.00861553 0.371508 -0.183344)
(0.000575254 0.456685 -0.300107)
(0.00142285 0.442082 -0.292719)
(-0.00252959 0.44546 -0.279433)
(0.0030885 0.476594 -0.289898)
(0.00121629 0.469724 -0.30261)
(0.00251956 0.454144 -0.293645)
(0.00102877 0.463057 -0.281423)
(-0.0251939 0.510697 0.333287)
(0.0277499 0.553017 0.129317)
(0.000930556 0.54699 -0.053783)
(-0.00870025 0.643112 -0.0513163)
(-0.0645646 0.67954 0.0443905)