/*--------------------------------*- C++ -*----------------------------------*\
| =========                 |                                                 |
| \\      /  F ield         | OpenFOAM: The Open Source CFD Toolbox           |
|  \\    /   O peration     | Version:  v2012                                 |
|   \\  /    A nd           | Website:  www.openfoam.com                      |
|    \\/     M anipulation  |                                                 |
\*---------------------------------------------------------------------------*/
FoamFile
{
    version     2.0;
    format      ascii;
    class       surfaceScalarField;
    location    "0.05";
    object      alphaPhi0.water;
}
// * * * * * * * * * * * * * * * * * * * * * * * * * * * * * * * * * * * * * //

dimensions      [0 3 -1 0 0 0 0];
oriented        oriented;


internalField   nonuniform List<scalar> 
13152
(
7.83904e-07
2.0086e-05
-1.30296e-06
-1.95708e-05
1.85169e-05
-1.72565e-05
-4.77369e-07
-3.50927e-06
4.21117e-05
-3.46563e-05
3.52948e-05
-1.94176e-06
2.12502e-05
-7.54774e-05
2.84795e-05
-2.44859e-05
6.0265e-05
-1.60711e-05
-2.97286e-05
-2.85316e-05
7.43266e-05
3.42594e-07
-1.67271e-05
3.00625e-07
-2.99382e-05
5.51569e-07
7.75359e-06
5.15624e-06
-2.96372e-05
7.77823e-06
2.73458e-07
-5.09169e-06
-1.5665e-05
-2.98738e-05
-8.58281e-06
-1.49242e-05
-5.16253e-06
2.86513e-05
3.95088e-08
-8.61954e-06
-1.64745e-08
-1.44619e-05
-4.86712e-07
5.60373e-06
-3.04014e-05
1.61732e-05
-2.96052e-05
3.00435e-05
2.94561e-05
-6.39765e-07
-5.92516e-08
-1.53423e-05
-2.99583e-05
2.49236e-08
-7.49383e-05
2.22292e-07
1.58797e-05
3.03075e-05
-4.66906e-08
7.4815e-05
3.58088e-05
1.27458e-05
2.53415e-05
-7.38968e-05
2.82205e-07
-5.71088e-07
3.6064e-05
1.2535e-05
2.84231e-07
-1.88586e-05
7.35007e-05
7.74657e-05
2.91802e-05
-5.82695e-07
-2.94313e-05
8.27106e-07
-1.60668e-05
-2.71155e-05
7.23362e-05
2.57712e-07
-1.69709e-05
-7.84336e-06
7.77022e-06
3.17215e-07
5.19842e-06
-3.00167e-05
-4.96873e-06
-1.43946e-05
-2.92039e-05
-1.42384e-05
1.06702e-07
2.924e-05
1.38572e-07
1.13456e-07
1.21689e-07
-9.64869e-08
-2.1926e-07
1.46507e-08
-3.02455e-08
9.70207e-08
4.58506e-08
4.04425e-08
-6.5461e-08
6.81188e-09
1.92609e-08
2.8481e-08
-1.83524e-07
9.21781e-09
-2.68224e-09
3.23692e-08
1.26811e-08
3.65265e-08
-3.32082e-08
4.98407e-08
7.17317e-09
-8.8139e-68
2.35404e-67
-1.13158e-67
-2.38208e-66
1.87548e-66
-1.00024e-65
-7.15269e-66
-1.65682e-67
-1.0711e-65
4.69206e-66
1.13737e-66
-2.15001e-64
7.76269e-68
-6.90552e-67
-6.10125e-66
5.05558e-69
-2.4644e-64
-3.62349e-61
-8.60642e-60
-3.66451e-61
1.05766e-60
-2.33208e-60
-1.13512e-59
1.5722e-61
-4.84561e-58
-2.94076e-60
8.70526e-58
5.20944e-58
-2.20778e-56
3.21585e-59
-1.10733e-58
-2.8816e-59
8.40493e-60
-8.0362e-62
1.69638e-47
1.86206e-47
2.03303e-47
-7.40721e-46
1.08602e-46
5.56426e-46
-1.52592e-44
2.16739e-48
5.3861e-49
-1.84766e-49
2.20973e-47
1.92827e-48
7.1943e-49
-1.3648e-52
-4.47419e-50
1.64177e-48
7.5034e-51
1.69561e-52
-7.09748e-51
-1.80941e-51
1.21983e-51
-9.99103e-51
-3.38603e-49
2.14243e-51
-1.6591e-50
-7.19298e-48
2.76941e-49
-8.59833e-48
-5.06318e-47
-4.50469e-50
2.72581e-51
-1.15797e-47
-8.68558e-49
-2.56361e-45
2.02378e-48
5.66205e-48
-3.61667e-51
-1.03968e-48
8.57896e-44
-3.25773e-42
1.35615e-43
-5.18875e-45
6.57432e-45
-3.88204e-49
1.24881e-50
-1.04492e-52
1.25709e-48
-9.79783e-47
-1.37849e-45
1.68272e-42
-1.90432e-48
4.1068e-09
2.33697e-09
-7.37145e-09
-2.92981e-09
-9.8757e-10
-3.5349e-09
4.96004e-09
4.26208e-10
-1.83961e-09
-1.00038e-09
-4.75299e-10
7.91101e-10
-8.25315e-09
1.91356e-09
-6.85092e-09
9.25791e-10
-2.65263e-08
-2.79217e-08
-9.46294e-08
-1.96322e-08
1.08746e-07
9.30044e-09
-3.31778e-08
-3.15103e-09
-1.46189e-07
-1.53902e-07
-1.20286e-09
-3.20251e-08
-1.40734e-08
3.57265e-09
-5.19985e-09
2.63576e-07
-4.05883e-07
2.05027e-07
-3.09363e-08
3.18494e-08
-5.57323e-09
4.66018e-09
6.29213e-08
3.07957e-08
-1.24653e-07
5.53095e-08
3.94611e-08
-2.95268e-08
9.67105e-08
-3.63879e-08
-4.45366e-09
-3.06464e-08
-1.41158e-07
2.93179e-07
-1.0614e-07
-2.41702e-07
-2.71831e-07
3.17012e-07
1.96528e-07
-1.44392e-07
2.51807e-07
-3.49113e-07
-1.03757e-07
-3.1219e-07
-6.2284e-07
1.19277e-06
-2.05938e-07
-5.09697e-07
-8.67174e-07
-1.07522e-12
1.08124e-10
7.83359e-12
-3.71072e-11
1.80503e-12
1.28889e-12
2.87678e-12
2.67068e-10
4.65415e-10
8.48109e-12
6.82765e-12
-1.20696e-12
2.66102e-12
1.61257e-11
-3.90514e-12
4.51919e-10
7.0753e-11
1.96023e-05
-8.60347e-08
-2.1785e-05
-8.7412e-08
-1.67998e-05
-2.64136e-05
6.32398e-05
1.06483e-07
-2.10759e-05
-2.73726e-05
2.70052e-05
5.94227e-07
2.40201e-05
-7.13421e-05
-2.69617e-06
3.23716e-06
-1.85601e-08
-2.91411e-15
-3.87074e-16
5.88259e-15
1.18422e-14
-2.36974e-16
2.26257e-14
2.50413e-14
2.92441e-16
4.2745e-16
3.06596e-12
9.58728e-12
-4.56826e-12
1.87579e-12
6.83836e-12
2.20734e-11
5.27598e-12
3.10268e-11
8.1359e-52
7.66435e-52
-1.57393e-49
-2.02627e-52
2.26497e-54
-8.92892e-54
1.55135e-53
-3.71601e-51
1.18448e-52
2.40351e-50
2.95874e-49
-2.02554e-47
3.83142e-52
-4.74908e-52
5.76568e-54
-2.48124e-54
6.57612e-51
-5.12135e-44
-1.48918e-46
-2.70613e-43
1.1222e-44
6.35328e-44
-8.05854e-42
-3.16032e-44
-2.02019e-45
1.87087e-45
2.71303e-42
1.38984e-41
-6.88932e-40
6.33264e-44
-2.25685e-43
1.04294e-45
-1.69884e-45
3.58147e-43
8.3167e-40
2.62523e-39
-6.45844e-39
-5.3023e-38
5.35047e-42
-5.51893e-41
5.15244e-42
2.3605e-41
7.33428e-41
1.9007e-40
-8.35282e-39
-1.75284e-45
6.28437e-43
8.03857e-42
-6.72159e-38
3.89522e-39
-1.60361e-36
-1.55894e-35
-6.93475e-36
-1.40762e-35
1.50748e-36
-4.46868e-36
-1.92691e-33
5.49232e-35
-6.10717e-34
-4.86116e-36
-2.16317e-34
-5.82567e-37
-2.15987e-35
-1.91086e-35
-2.21434e-32
4.84544e-34
5.55523e-34
-3.38275e-32
1.17155e-35
-1.60893e-37
6.87169e-36
4.60203e-36
1.08766e-36
1.16072e-34
-1.30731e-32
-4.42165e-34
1.34708e-34
-3.6582e-32
5.67036e-34
1.44038e-33
-1.35788e-32
-5.51747e-31
1.74131e-33
-4.98781e-32
6.77459e-36
1.21629e-34
-2.08254e-31
1.89646e-32
-3.1957e-30
-3.98591e-29
-1.1466e-28
-9.22254e-29
1.65372e-29
-8.54724e-29
-2.25431e-27
8.66287e-29
-8.56371e-29
-5.95497e-27
-2.84432e-27
-1.19392e-29
2.07607e-28
-4.91706e-28
-3.39665e-26
-6.18931e-27
2.69005e-28
-1.04001e-27
1.14387e-26
-3.72535e-25
-6.67258e-30
4.4818e-28
-1.59832e-29
-1.07498e-16
-1.98453e-15
-2.07365e-16
3.2543e-16
-1.49168e-15
-3.06448e-15
6.03468e-16
-4.40124e-14
-1.43322e-15
-3.878e-16
-5.83116e-16
-2.84984e-17
-4.92309e-15
-6.30996e-15
3.92139e-14
4.34993e-14
-6.856e-13
3.62624e-15
-4.84418e-17
-2.07249e-15
1.15168e-15
1.70797e-15
4.88575e-14
1.28997e-13
-3.30046e-14
-5.25664e-13
4.38496e-15
2.82098e-15
-6.58576e-15
-2.81509e-15
3.71033e-14
-1.92211e-14
1.28644e-15
5.37409e-15
-1.09135e-13
-2.50532e-13
7.60265e-14
-1.16531e-12
2.73202e-12
2.6299e-12
-2.3853e-11
-1.47046e-12
-2.72275e-12
-6.71803e-12
4.46124e-12
-6.12268e-11
2.68069e-11
1.8004e-11
3.18951e-11
-1.64045e-10
-5.30492e-13
-3.55597e-12
-4.55869e-11
1.71793e-11
-1.64866e-10
1.05388e-10
-2.96363e-10
7.47534e-12
2.82233e-11
-1.32409e-09
7.19253e-11
1.0564e-09
-6.6466e-11
-2.45789e-09
2.02017e-11
-1.51125e-11
8.24283e-12
1.30793e-11
-2.02256e-10
1.70548e-10
-4.526e-10
7.34005e-09
9.51374e-10
-8.3997e-10
-1.5914e-09
-4.16425e-09
7.30603e-10
1.12556e-08
1.63096e-09
-1.78001e-09
-7.03306e-09
-1.83933e-09
1.58689e-08
-5.12673e-10
-8.39548e-09
3.64379e-09
-3.15789e-09
8.16978e-09
7.59187e-14
-3.38765e-13
1.4712e-14
1.19517e-14
-2.01959e-12
5.50448e-15
1.21985e-12
-1.4817e-14
-5.80448e-12
5.05787e-15
1.09832e-16
-2.1935e-15
3.02687e-15
2.20858e-15
-2.76817e-14
2.52613e-14
-7.77951e-14
3.8761e-18
-2.94087e-17
-6.56379e-16
1.94948e-16
-3.83522e-17
-6.23219e-15
-3.53897e-17
-4.88095e-16
3.7008e-15
-9.9506e-16
-2.23244e-14
-2.33057e-17
9.64544e-16
-6.40618e-17
-3.19124e-16
-5.66299e-15
-2.216e-20
9.65031e-18
1.05467e-17
-2.78111e-16
1.03934e-19
-1.62795e-19
-5.50849e-19
2.94736e-19
1.17658e-18
-8.04038e-16
3.51561e-17
1.77214e-16
-3.89816e-19
2.48391e-18
-1.7529e-17
9.48425e-18
-1.96028e-23
-1.23854e-23
6.04957e-25
3.38478e-24
-4.00115e-24
-1.10175e-21
2.11125e-23
-1.72603e-22
-1.83446e-24
3.20462e-21
-1.29876e-22
-2.92133e-20
6.52661e-23
2.51092e-22
1.17708e-21
-1.17656e-20
1.8088e-22
-8.93787e-32
5.04579e-28
5.25881e-28
-3.89548e-26
2.66477e-31
-5.19692e-30
8.86438e-30
2.59223e-29
-1.11494e-25
2.59175e-27
6.22627e-27
-1.80065e-28
-1.81341e-24
-1.79795e-28
1.00131e-29
3.42561e-28
2.74887e-29
-3.38274e-27
3.22477e-30
-3.72866e-29
2.52435e-30
-3.28364e-42
1.28444e-38
-1.50196e-36
1.03502e-38
1.15654e-41
-1.93032e-40
5.33565e-41
4.3707e-40
3.91714e-36
-5.80804e-41
4.97165e-38
1.82656e-37
1.78739e-39
-4.2734e-38
3.15342e-39
1.868e-65
-3.75086e-63
-1.79823e-70
3.93447e-66
-3.21107e-62
1.26896e-65
1.10209e-63
-7.60015e-68
-1.86289e-60
3.78296e-70
7.84046e-71
-2.11432e-68
2.44361e-68
2.97895e-68
-1.92849e-67
4.60408e-67
-7.6203e-66
8.33853e-08
-1.0468e-07
-2.82445e-09
2.41201e-08
-1.05624e-08
-2.11242e-08
1.15081e-07
1.33629e-07
-2.48805e-07
3.05567e-08
-3.25235e-08
-8.55563e-10
-7.37207e-08
8.37083e-08
-5.49379e-08
6.1277e-07
-7.29862e-08
-2.37567e-08
-2.78281e-07
-1.03936e-08
5.7048e-07
-6.66739e-08
-2.94498e-09
-3.18252e-08
7.27397e-10
3.65612e-08
-8.67219e-08
-4.72165e-09
8.41655e-08
-4.42761e-08
-2.14779e-08
1.18154e-08
-1.66542e-08
1.98379e-09
-8.73879e-09
2.28551e-08
2.85622e-08
-9.23909e-08
9.14808e-09
-1.85586e-15
-2.85981e-13
-8.65643e-15
1.05253e-14
-2.26859e-13
-2.78331e-13
9.42796e-15
-7.10485e-12
-9.10104e-14
6.68222e-12
5.46645e-12
-1.12074e-10
9.37632e-14
1.2115e-13
5.07463e-13
-5.59965e-13
-6.90054e-12
-8.42916e-15
2.35884e-14
2.17605e-13
-4.82585e-12
-6.2645e-16
-3.28805e-08
1.1349e-07
-6.75097e-08
3.28503e-08
1.31305e-07
-8.84286e-09
-3.99349e-09
9.56241e-09
6.26161e-10
4.78515e-09
-5.31463e-09
-1.23558e-08
-1.16613e-08
4.26605e-09
1.40764e-09
1.56732e-09
-8.08476e-09
2.03765e-09
-1.2021e-08
-2.05233e-09
-6.31387e-09
7.6753e-09
-7.87831e-66
2.34529e-68
1.00581e-67
-1.04962e-75
9.79535e-66
1.3718e-65
-1.25313e-63
5.2459e-68
1.90407e-68
1.12689e-69
1.60921e-67
5.88199e-68
1.49001e-69
-1.96215e-78
-1.18543e-69
1.15326e-69
1.54263e-69
8.58197e-26
1.19809e-26
-1.35122e-25
-2.90817e-24
-2.06844e-24
4.07502e-27
8.28888e-26
-2.18229e-22
8.36902e-25
5.59145e-26
-5.28648e-25
-1.61054e-24
-1.50665e-25
9.41539e-27
5.55149e-22
2.79689e-23
-1.34784e-20
1.13961e-23
1.37388e-23
-9.90019e-25
1.03678e-24
-4.36135e-24
-3.09094e-61
1.13376e-63
-1.79483e-61
3.4636e-63
7.21287e-61
3.51909e-62
-1.47748e-59
1.29811e-62
1.45628e-62
2.34994e-60
-6.62265e-61
-3.01224e-58
-3.66388e-63
4.3038e-62
2.40337e-60
-1.54125e-58
5.23128e-62
2.13969e-11
1.37043e-11
2.72314e-11
-5.43832e-12
-2.89382e-09
5.88417e-10
3.9486e-10
9.886e-10
-7.22708e-09
2.41234e-13
7.27705e-12
1.62196e-10
-2.6049e-10
2.39915e-10
1.07388e-11
-8.33882e-12
1.55363e-11
-3.21581e-14
3.69201e-14
-8.98823e-12
8.96046e-12
2.29306e-14
-2.23738e-16
1.28619e-14
-6.35177e-13
1.13914e-14
3.50187e-14
-5.17478e-13
-9.38704e-15
-8.44581e-18
4.63958e-13
7.00391e-13
-5.14698e-12
1.57962e-13
4.79095e-14
2.84495e-12
-4.78904e-12
1.01516e-11
1.95517e-09
7.80188e-10
-4.66769e-10
-1.70317e-09
4.47156e-08
9.20482e-08
-1.5894e-07
5.82109e-09
2.91664e-08
4.64267e-10
-5.8764e-10
-4.54663e-10
2.32049e-08
6.19288e-08
-3.20669e-10
2.24375e-09
-1.28104e-10
-2.0873e-08
3.45665e-08
-9.65082e-10
-1.67795e-09
1.82916e-10
-3.70759e-09
-1.09086e-07
-3.68247e-08
1.49621e-07
-2.4399e-07
9.2245e-08
1.48044e-07
-2.40513e-07
-1.12358e-07
1.88098e-08
-3.45159e-07
4.18836e-07
-2.18076e-07
2.00071e-07
6.29249e-07
-1.20931e-06
2.99325e-07
4.87278e-08
7.25187e-08
-1.22102e-07
1.2086e-09
5.87757e-08
-1.12563e-08
9.78474e-08
-1.01245e-07
3.14175e-07
4.12752e-08
-3.42913e-07
3.15031e-08
7.98246e-07
-3.90511e-08
-2.54655e-07
-1.79543e-08
-2.06717e-07
4.52271e-08
1.89033e-08
1.22267e-08
-9.07947e-08
3.84299e-08
-1.00665e-07
7.47555e-08
-8.19158e-09
3.88795e-08
-1.43116e-07
1.13583e-07
-1.10539e-08
2.73066e-08
-1.08795e-07
6.93574e-08
-9.72496e-08
8.34311e-08
1.61018e-08
3.4859e-09
7.37677e-09
-3.1668e-08
-1.21732e-08
1.10387e-08
6.10037e-09
1.6812e-09
-2.91153e-08
4.43952e-09
-8.35415e-09
-2.92839e-09
4.49143e-08
-8.87926e-08
2.35966e-09
-7.04331e-09
4.5681e-08
3.58268e-42
1.73733e-41
-5.36704e-40
-8.20552e-46
1.13976e-38
-1.04165e-36
5.26925e-39
7.95721e-41
4.68565e-40
2.33693e-36
-7.53357e-39
-6.05917e-35
4.69951e-38
5.71113e-38
1.13122e-38
3.55991e-39
-3.17363e-37
5.55944e-40
5.03116e-39
-2.74382e-40
5.76477e-41
-5.02541e-39
-4.43307e-47
-4.34974e-46
-1.42158e-47
4.12132e-47
5.65246e-48
-9.33718e-46
-4.38369e-55
-3.00208e-44
1.77153e-46
7.29241e-44
4.58472e-46
-8.87209e-43
1.88186e-45
2.27279e-45
6.3443e-45
-7.21571e-44
8.74024e-46
1.52704e-49
7.44443e-49
-2.54613e-52
-7.0685e-47
1.94545e-50
-5.11536e-49
9.84811e-51
2.12398e-51
1.05018e-50
1.27374e-48
-9.21766e-52
-7.00879e-48
8.57963e-50
1.4201e-49
1.05413e-51
1.24314e-52
-2.62734e-50
2.20183e-51
2.57774e-50
-2.01513e-52
9.21443e-52
-1.8894e-50
7.70091e-32
2.84933e-34
-1.55672e-29
6.47538e-33
-2.33507e-33
-2.22911e-33
1.58973e-33
-1.53674e-31
-1.86442e-33
2.61979e-29
1.71125e-29
-2.16162e-27
2.29467e-31
2.48656e-31
-1.9896e-31
6.3358e-33
-2.41422e-31
-1.65945e-31
-1.65071e-28
1.59437e-31
9.1453e-31
-2.21442e-28
2.62449e-30
8.53553e-31
2.34876e-28
-2.00027e-26
3.02837e-32
-2.75297e-30
8.25812e-33
-3.41064e-32
1.95375e-32
-1.06351e-30
2.49312e-32
1.92451e-31
-4.58255e-31
7.18157e-33
-7.35237e-36
3.72953e-33
2.27212e-30
-1.42576e-34
-4.71419e-29
6.67275e-33
2.11316e-31
1.79004e-35
-3.05835e-35
-2.3056e-34
9.18318e-35
1.34511e-34
7.30732e-34
-1.00661e-32
8.26446e-34
6.30952e-38
6.32564e-38
7.20088e-38
-2.22405e-36
1.48306e-34
3.83382e-34
-8.65815e-33
1.62249e-36
2.82977e-36
-6.17686e-39
1.19086e-35
3.69489e-35
5.908e-39
-3.15556e-38
5.09754e-38
4.53253e-38
1.60266e-36
-4.91251e-41
6.53224e-43
2.0588e-43
-1.4188e-45
4.30702e-40
-1.5449e-42
-1.16577e-38
-2.00535e-44
3.50344e-41
-3.0728e-45
5.05543e-45
4.25279e-45
1.5154e-46
-5.82058e-44
4.21011e-42
-6.57775e-41
3.71946e-43
5.28037e-51
2.84992e-52
-2.9461e-54
-1.68801e-49
-3.39297e-54
-1.96612e-57
2.51732e-52
1.85335e-55
-3.40954e-58
1.2673e-54
-1.31442e-57
-4.40853e-53
-9.26958e-59
5.91656e-56
-5.59216e-58
3.68656e-57
1.67237e-57
-1.8388e-59
-2.31066e-56
-2.05443e-57
3.9397e-58
-8.77886e-56
1.50331e-54
-5.33716e-69
-4.70373e-64
-5.25576e-53
-4.5568e-68
-9.49231e-66
1.05114e-55
-8.3206e-69
-4.16352e-66
-7.04196e-66
1.76897e-67
-6.49889e-72
1.57294e-66
-1.90595e-64
-1.21429e-63
9.6468e-65
-2.32878e-62
-1.3273e-72
-7.65291e-75
3.02481e-75
1.41482e-74
2.35095e-72
2.59584e-72
-1.2518e-70
4.42709e-74
-7.94858e-75
8.40382e-76
-3.77004e-74
3.80276e-76
-8.32992e-76
9.7222e-76
2.54161e-74
1.06035e-73
3.54045e-75
7.48208e-75
3.87784e-74
-1.78046e-74
-3.74361e-72
7.47956e-71
-2.97123e-69
3.73335e-72
-3.06752e-71
0
-4.46156e-72
8.23448e-74
4.03896e-72
-2.76939e-70
1.14769e-69
-1.30986e-67
7.49807e-73
-3.21352e-56
-7.86198e-59
1.1364e-58
6.76904e-58
-1.16264e-58
1.60887e-55
-5.02558e-54
1.09847e-58
-4.12436e-57
3.6822e-60
-2.3437e-60
1.63941e-60
-3.05693e-57
3.93544e-58
-1.74128e-60
1.34703e-56
5.01987e-60
-8.6626e-100
-2.54066e-101
0
-2.97007e-77
9.81147e-59
2.06476e-58
-6.50267e-57
1.88393e-60
4.16442e-61
2.25183e-55
8.97154e-55
-1.02354e-53
2.3339e-56
-3.0656e-56
-3.07574e-56
9.49005e-58
-9.56163e-62
-4.06082e-58
6.10068e-59
3.39045e-62
5.51117e-59
1.72708e-54
-2.45367e-77
-2.84233e-52
-1.15805e-77
-1.1679e-75
-5.57527e-55
-4.58375e-53
-1.10731e-52
2.10624e-53
-8.49084e-54
-6.77507e-54
-9.65006e-57
-2.37201e-51
-2.077e-52
2.02638e-53
-2.3058e-52
-1.19053e-54
-1.89448e-50
3.5982e-51
-3.83584e-52
-5.34505e-49
-8.96372e-51
6.75194e-56
2.49255e-55
-8.06148e-54
-6.19989e-54
1.59345e-56
-5.00603e-55
1.57704e-56
-1.41908e-54
1.39217e-55
9.10532e-54
1.44731e-53
-4.18562e-52
3.07397e-53
-9.50805e-52
-2.84467e-55
1.48792e-54
2.35729e-57
-5.10198e-56
4.61901e-58
-1.23936e-57
-1.29011e-49
-5.39279e-52
2.56016e-51
2.89067e-52
1.81853e-49
9.16675e-50
-5.13916e-48
6.02215e-51
2.71115e-52
-6.00793e-51
-2.18321e-51
1.00107e-51
-1.89363e-49
2.51531e-51
-6.94602e-50
-8.91465e-50
1.28473e-50
-3.62136e-48
6.96149e-50
3.67042e-48
-9.83718e-47
3.1645e-49
-9.14035e-49
-2.04177e-45
-3.23335e-45
9.56453e-50
-7.59127e-48
-1.7665e-44
-1.49367e-45
-4.268e-44
-3.42054e-44
-6.54569e-43
-1.87841e-46
-6.77315e-44
1.95874e-46
2.58592e-46
-7.06739e-45
-1.58287e-41
-9.03766e-45
2.793e-44
-1.23551e-44
-1.81953e-43
1.89992e-43
-6.82209e-43
-5.35058e-43
-4.16373e-39
-1.65455e-39
-3.00654e-43
3.6447e-45
-4.31709e-44
5.5409e-44
-1.01554e-41
2.05023e-39
-6.03922e-38
-3.37057e-38
1.40545e-29
-1.08496e-34
-3.48675e-27
1.29026e-28
-1.76732e-34
8.17614e-31
3.68014e-31
-6.11209e-35
-3.11739e-33
3.73584e-26
-1.55893e-33
-3.72459e-25
8.23275e-29
5.11067e-27
6.85929e-34
-2.41274e-34
-1.08719e-32
-3.22617e-32
1.20795e-29
-4.18058e-34
1.50439e-31
-7.4629e-33
-4.79934e-31
-2.30099e-31
2.63103e-32
2.83304e-32
2.95746e-31
1.27545e-31
-1.02489e-29
-1.17776e-28
3.42798e-30
1.34215e-27
-6.67272e-27
-8.3797e-27
-3.25566e-28
1.78334e-28
1.19237e-26
-1.64825e-25
1.013e-27
1.03711e-25
4.5484e-26
-1.63024e-24
-1.21337e-24
-9.96971e-27
-2.93976e-25
7.33388e-26
-1.55559e-25
1.75959e-24
1.1789e-24
-2.43471e-23
5.68725e-24
-5.55255e-23
-2.02756e-25
1.16128e-24
-3.98421e-25
8.3721e-29
1.93645e-28
-2.0254e-28
-1.68907e-27
7.45553e-27
-6.16899e-25
1.66821e-26
3.18129e-28
3.79681e-28
3.1265e-24
-1.26084e-27
-3.9781e-23
2.08871e-26
4.51816e-25
-5.48837e-27
4.71224e-27
-4.90556e-26
-1.72261e-29
-2.13803e-27
3.19641e-29
3.33422e-29
-9.49861e-28
-3.70832e-31
-9.42755e-26
1.28215e-32
2.07864e-29
1.91124e-30
-2.1606e-23
-1.95185e-24
5.14158e-26
2.64585e-24
4.25793e-24
-3.44837e-22
-1.7542e-26
-1.21637e-22
1.42358e-24
3.20483e-22
2.41097e-23
-3.78541e-21
6.45891e-24
1.67686e-23
7.61214e-22
-7.46651e-21
1.00834e-22
-1.88786e-24
-1.88993e-23
-1.1441e-24
1.78379e-24
1.37129e-25
-2.61213e-23
-1.42556e-25
2.79511e-24
-8.90989e-22
-1.4048e-21
4.8359e-23
4.94726e-23
8.18649e-22
-3.2847e-20
4.14148e-23
-3.71054e-24
6.21808e-24
-1.97898e-17
-9.75466e-17
-4.16808e-17
2.09115e-17
-2.86298e-17
-2.65421e-16
4.86401e-18
-9.50015e-17
-2.7726e-15
-2.88067e-15
4.2147e-16
-2.60928e-15
3.92539e-15
-6.21362e-14
7.55348e-17
4.06492e-17
4.79961e-18
2.44111e-32
2.91426e-32
3.08582e-32
-1.53433e-30
-3.28781e-33
8.96789e-35
2.28304e-34
1.38912e-32
-6.52784e-31
2.79952e-35
-1.52822e-33
1.57985e-35
-1.82228e-34
2.2994e-35
-1.78089e-33
8.73155e-34
-1.549e-32
-1.22204e-42
-1.93706e-40
2.78162e-43
1.19913e-42
-2.16759e-40
7.40879e-42
-3.07688e-40
1.17787e-40
-2.08778e-38
3.56422e-45
-6.92745e-44
1.30212e-45
-2.05306e-45
2.82195e-44
1.73662e-44
-1.68478e-42
-3.12426e-44
-1.19881e-43
1.30927e-45
-1.21759e-42
3.63238e-43
-3.00095e-43
1.24137e-45
8.00288e-46
8.71765e-46
-1.24723e-43
2.40983e-49
9.02632e-48
8.25557e-48
3.55115e-48
2.04714e-49
-7.07207e-48
1.09574e-49
1.40206e-49
7.34265e-48
-4.13448e-47
-1.34374e-49
7.37794e-50
-2.39348e-48
7.62898e-76
-2.84076e-77
-1.26926e-73
7.75142e-78
-1.9486e-76
-1.49193e-75
4.60917e-77
-7.02882e-74
4.48876e-78
1.66295e-73
4.10174e-74
-1.06274e-71
1.34133e-75
3.55556e-76
-3.02175e-73
7.90619e-75
-1.52162e-71
-3.58806e-77
-2.05707e-74
-1.9509e-73
0
-1.07078e-74
-2.59953e-75
4.53238e-77
-7.6573e-72
-1.33094e-72
-3.13643e-75
-3.78772e-71
0
-6.63759e-73
-2.66289e-77
-1.85272e-72
-5.92448e-69
-4.73325e-70
6.21896e-43
2.04724e-43
-2.64513e-52
-1.76357e-40
-1.66084e-46
1.06435e-46
4.01681e-45
2.12814e-46
-8.57102e-55
-3.62666e-54
3.26276e-49
1.11879e-48
-5.26197e-53
-6.89998e-52
3.19631e-51
-6.50349e-49
9.31633e-49
2.96501e-34
-1.17749e-32
-4.98598e-32
2.18765e-34
-2.85304e-32
-3.44312e-33
4.04718e-34
-7.06018e-30
-3.6229e-31
4.87312e-32
-7.70571e-30
-3.14656e-33
-5.96326e-31
1.17224e-33
8.07782e-30
-1.22874e-27
-1.53905e-28
-3.60938e-24
3.76078e-27
6.89351e-27
7.14636e-27
2.31536e-24
2.021e-24
-5.53271e-22
3.15444e-27
9.33009e-27
1.62599e-29
-2.98046e-28
-7.71754e-36
-7.65174e-30
1.01039e-28
2.39413e-25
9.1805e-26
-1.75865e-23
8.94351e-28
3.70103e-27
4.3478e-28
-9.23923e-31
5.08574e-30
-1.9836e-34
-1.96506e-33
-1.16534e-34
3.45805e-35
-8.64305e-34
-1.67122e-32
-6.76939e-31
-6.78757e-34
1.86547e-31
6.01192e-32
-3.15072e-29
8.77252e-34
-6.97835e-33
9.44904e-34
1.53145e-33
-8.73901e-32
5.64923e-34
-3.97456e-32
4.7593e-32
-2.84669e-30
8.29712e-34
-3.13577e-21
4.25479e-24
9.63262e-24
8.53139e-24
1.83464e-21
2.63754e-21
-4.69575e-19
3.31662e-24
9.89084e-24
2.2601e-26
-3.23151e-26
-2.35475e-26
6.30304e-27
1.90537e-25
-1.62158e-23
7.0623e-26
1.33083e-25
1.14503e-23
-2.43885e-24
-3.01258e-25
8.27531e-27
-1.59626e-25
-4.52631e-26
-2.85816e-28
3.68345e-27
-9.76392e-24
-2.10168e-26
6.97826e-24
5.50343e-24
-8.16917e-22
5.399e-26
-2.95092e-25
2.5777e-26
-4.00915e-24
5.16479e-26
-2.47251e-24
1.02855e-27
-3.59273e-16
9.60937e-19
4.31469e-18
1.84759e-18
2.64677e-16
2.49854e-16
5.02886e-19
1.96067e-18
1.5449e-18
8.44153e-19
-3.36169e-20
7.57918e-20
5.50916e-20
-1.5277e-12
-2.32457e-14
-5.33467e-14
1.01173e-11
-1.18205e-14
-2.58374e-12
-8.73216e-12
-6.66373e-11
2.49363e-12
-4.37338e-10
1.967e-11
-8.38521e-14
-1.41022e-10
2.1498e-11
-1.02601e-13
-1.53952e-11
-5.93245e-12
-3.53577e-14
5.51737e-11
-2.13159e-11
-3.71699e-13
1.17411e-11
8.82253e-12
-1.76779e-10
3.94666e-13
6.48591e-10
1.6559e-09
1.65945e-11
2.01953e-11
-4.37528e-11
-9.41681e-10
-1.32459e-09
-7.25364e-09
-6.12121e-09
-1.75743e-09
9.18286e-11
3.67569e-10
3.77686e-11
-3.7692e-10
3.9956e-11
-3.31613e-11
3.30522e-10
2.81001e-11
2.33834e-11
1.62102e-09
-2.11773e-11
-2.80627e-09
-5.51482e-10
-7.51627e-10
1.44699e-09
-8.30305e-10
-3.4717e-08
-4.95418e-09
2.21287e-08
1.1394e-08
-4.18794e-09
2.32088e-11
3.8016e-10
-1.78811e-10
3.08028e-07
-2.99809e-08
-3.3464e-08
-3.69897e-08
5.50635e-08
4.02949e-07
-8.74278e-08
3.04214e-09
3.24775e-08
3.70094e-09
-1.15551e-07
1.82355e-08
3.9626e-08
1.55581e-08
2.24363e-08
2.54933e-07
9.47599e-08
-5.56979e-07
1.23079e-06
1.95211e-07
-5.01672e-07
-6.41867e-07
9.48941e-07
6.2768e-07
6.65914e-07
-1.08762e-06
-1.28844e-07
2.56865e-07
5.86255e-08
-2.0078e-07
1.35182e-08
8.51644e-08
2.30399e-07
5.22758e-07
-5.60586e-08
-3.36416e-08
-2.93931e-08
-3.21267e-07
1.69044e-07
1.83174e-07
-1.79437e-07
3.23588e-08
1.183e-07
-8.65095e-08
-3.6887e-07
1.02097e-08
-2.77174e-07
4.41097e-07
-6.98548e-08
1.13014e-07
-3.95559e-07
6.90492e-08
2.85156e-07
-7.57184e-08
-1.72846e-07
-6.26525e-07
6.4434e-07
-9.34117e-07
-8.78319e-08
5.70462e-07
1.43524e-07
1.15582e-06
-3.58176e-08
2.74517e-08
-4.97807e-10
8.8637e-09
6.62187e-08
1.62518e-08
-1.18287e-07
1.9103e-08
7.45675e-08
5.10805e-09
2.60015e-08
-3.16071e-08
2.56846e-08
-4.31656e-09
5.75874e-08
1.69493e-08
-5.52637e-08
-3.40905e-08
1.66252e-07
-1.4222e-08
6.14321e-09
2.83668e-08
1.00635e-07
5.17065e-08
9.1216e-08
-2.43435e-07
1.34603e-08
2.69945e-08
6.01845e-08
7.86877e-08
-1.30527e-08
6.30254e-08
-2.29783e-08
2.21113e-08
-5.38495e-09
3.14482e-07
2.39525e-08
2.73156e-08
3.76623e-07
6.45374e-08
4.63561e-07
-1.16303e-08
3.30132e-08
-2.07069e-08
-6.75986e-10
3.73436e-08
9.62297e-09
-5.85969e-08
1.18453e-07
-4.80957e-08
2.55565e-08
-3.1621e-08
-1.46424e-08
6.79736e-08
-3.27939e-08
-3.46196e-07
5.32622e-07
-4.25913e-07
-4.06011e-07
6.31329e-07
-1.48299e-07
-5.99042e-07
9.86907e-08
1.71761e-08
-1.2041e-08
1.30393e-07
2.38347e-08
-1.16281e-07
2.63269e-07
-4.49901e-08
2.50064e-08
-1.68887e-07
3.24123e-08
3.0491e-08
-4.4971e-10
-6.85541e-08
-5.97997e-09
1.64205e-08
1.52902e-08
1.31166e-08
7.285e-09
1.49084e-08
-2.42929e-09
6.10213e-09
2.08281e-08
4.43255e-09
1.29075e-08
3.25005e-10
-3.75487e-08
2.88575e-08
1.21551e-08
-1.35433e-08
7.09332e-08
-1.06295e-07
-3.60547e-09
-8.7733e-10
7.9898e-08
-5.90544e-08
1.26236e-08
3.5123e-08
-2.14493e-09
7.37038e-09
1.81513e-07
-2.8665e-07
1.8288e-07
1.31798e-09
1.49395e-09
1.58137e-09
-1.00104e-08
2.0052e-10
2.86687e-10
-2.76668e-12
2.61156e-10
1.56974e-11
2.76105e-10
-2.64901e-11
1.11357e-09
-1.62802e-12
-1.50954e-16
3.62599e-12
7.72865e-11
-4.79265e-20
8.30227e-31
-5.13457e-31
4.45416e-30
-1.99346e-29
-5.13843e-31
1.04344e-31
1.06743e-32
5.77416e-31
-1.69832e-29
-1.10499e-27
-2.11781e-26
7.66128e-27
-7.25202e-29
-1.97162e-26
1.27301e-29
5.71162e-30
-9.60447e-26
-2.09952e-26
1.12017e-27
7.1092e-27
-2.21246e-29
1.33586e-26
6.37144e-27
-2.02519e-25
1.3501e-22
1.19007e-23
1.75512e-25
9.80983e-26
-1.28014e-24
1.78297e-26
2.193e-25
-7.79668e-19
3.1564e-19
-3.11191e-18
6.37969e-24
1.39185e-23
-1.1803e-22
-3.45849e-28
2.59508e-21
-7.11797e-20
5.04149e-21
2.05139e-22
3.08379e-22
2.52101e-19
-3.23913e-21
-1.14222e-18
1.22996e-20
7.11232e-20
2.76484e-21
2.74969e-22
-2.13881e-20
-4.59624e-24
5.16357e-21
-8.69175e-23
8.64339e-23
-4.28762e-22
-7.1193e-26
1.47534e-27
2.70937e-27
-1.04806e-31
1.42028e-25
1.94941e-25
-5.74272e-24
2.21197e-27
2.10402e-27
-8.61628e-30
-2.96175e-27
-4.24159e-29
1.10656e-28
6.57792e-29
-1.11048e-26
-1.11556e-26
-2.42637e-28
-4.62312e-29
1.93222e-27
8.44615e-27
3.69939e-28
1.88888e-23
1.23996e-23
8.92889e-24
-3.98086e-22
5.06319e-25
5.48504e-24
-6.6927e-23
4.98394e-27
2.16581e-25
7.25306e-25
4.1526e-25
-6.71582e-25
8.12194e-26
8.1054e-25
1.906e-26
-1.33285e-30
3.28079e-26
1.40565e-39
1.78669e-39
9.59433e-40
-7.04795e-38
-9.19028e-42
7.57045e-42
1.19899e-41
4.14362e-41
-9.342e-42
1.12561e-40
-1.08646e-38
2.01684e-40
-2.4565e-40
1.85956e-41
-1.30157e-38
-3.3935e-37
-1.41905e-36
-5.77966e-35
-2.04089e-36
3.39646e-36
9.6347e-38
-6.0883e-35
-6.00745e-38
-6.11274e-33
1.95591e-35
-1.74194e-34
-2.78156e-34
3.36881e-35
-1.48595e-33
-1.79223e-33
1.42629e-32
-2.78981e-31
2.74484e-34
1.13578e-30
4.33676e-31
-2.93995e-29
-2.36027e-33
2.88404e-32
-6.25759e-39
4.47373e-33
3.42278e-38
1.78099e-34
-4.76698e-46
3.25282e-48
2.66072e-48
-3.20016e-53
2.17289e-45
-2.36592e-51
-6.617e-44
-4.51156e-52
8.11911e-47
-7.46093e-53
6.35547e-50
8.77326e-50
-1.04103e-51
-1.8302e-51
4.5673e-51
-1.87027e-49
2.06542e-51
-3.48816e-56
-3.95623e-53
-2.91957e-60
2.01622e-54
-4.30103e-54
9.97984e-57
-4.39697e-60
-3.67028e-58
-1.6915e-51
-1.00414e-59
1.50132e-58
1.29735e-58
6.69729e-61
-2.79696e-58
1.48183e-57
-3.72223e-56
9.4279e-59
-1.09737e-71
1.46744e-74
1.21917e-73
3.05598e-74
9.53465e-72
8.68435e-72
-1.07947e-69
6.39468e-74
5.93948e-75
1.5619e-72
1.90059e-72
-1.34019e-70
2.31605e-74
1.60139e-74
-1.19313e-67
3.89765e-69
-5.43384e-66
-2.05898e-85
-3.21022e-83
5.29975e-86
2.43561e-85
3.94602e-85
4.45922e-85
-3.40731e-83
1.46363e-82
-1.04489e-80
8.54518e-88
-3.8095e-87
3.17998e-88
-1.4351e-84
7.7509e-86
2.32444e-87
1.16395e-86
5.05404e-84
0
2.63075e-80
-3.1553e-78
-9.63699e-81
6.46275e-64
-1.49725e-67
-2.84474e-62
-2.00754e-69
2.46546e-65
3.7711e-78
2.74662e-78
-2.91903e-76
5.1748e-80
1.03936e-67
-1.02779e-65
5.45295e-70
-1.59568e-78
-4.74764e-70
-2.38159e-68
1.05675e-69
3.48053e-79
-5.12356e-79
-1.9781e-76
-4.85615e-68
7.78554e-71
-2.15192e-76
2.47063e-78
1.51066e-79
1.59218e-76
-1.25511e-74
3.40056e-68
-9.79576e-67
1.67526e-69
7.32552e-70
-8.86431e-67
8.15036e-75
5.38025e-75
-4.92597e-73
6.53375e-77
5.28171e-78
-1.25694e-65
7.2029e-67
-6.37621e-67
-5.40166e-64
5.53778e-71
-8.0037e-70
1.3921e-71
-4.84646e-69
-2.77079e-69
-1.80873e-70
-6.77281e-68
-1.50179e-67
-2.79072e-67
3.39472e-67
-1.80192e-65
2.34716e-67
-1.3935e-65
-6.90941e-69
1.17668e-71
9.9264e-69
2.37661e-68
-3.87446e-76
1.80173e-74
1.36682e-75
1.0543e-57
-2.81926e-55
6.37859e-57
-6.00183e-59
-2.90264e-55
3.79391e-57
4.89349e-58
2.38667e-55
-1.71043e-53
-3.57248e-46
-1.98171e-52
2.44774e-47
-1.07953e-50
-8.22504e-45
6.75032e-51
-4.18331e-49
7.86708e-53
-4.16495e-47
-1.27651e-47
-1.35292e-47
-2.2478e-48
-6.7462e-46
-2.49818e-46
-4.13831e-48
-6.63207e-46
-6.91844e-46
2.48938e-47
-1.44515e-49
6.42973e-46
-2.58665e-44
3.19801e-46
-1.84407e-44
4.35327e-48
1.82345e-43
6.39477e-43
-1.06532e-41
-1.95561e-41
5.02096e-44
-1.06898e-42
1.45337e-44
-5.16524e-40
4.68553e-41
-1.65851e-41
3.49083e-41
-8.17773e-40
2.52988e-41
-7.10555e-40
1.49593e-43
1.1581e-43
-9.08786e-39
-5.00736e-44
-7.34958e-42
-1.31918e-41
-2.87118e-40
1.65748e-39
-2.86106e-37
1.2371e-38
9.20574e-40
-2.62914e-37
6.51972e-39
7.62285e-40
2.28742e-37
-8.13536e-36
-9.05199e-35
-2.16084e-35
1.14692e-35
-7.44103e-34
-6.44002e-34
4.14793e-34
-1.55572e-32
8.35399e-36
9.69817e-43
4.36835e-38
-1.90793e-36
5.6035e-39
1.54567e-37
-3.27636e-36
-2.13225e-34
-4.93615e-34
6.70802e-37
-4.00709e-35
-3.08473e-34
-3.50889e-33
-5.07373e-33
1.12368e-30
7.52554e-31
-8.14033e-30
-1.45639e-30
-5.45033e-32
-3.26176e-30
-6.72645e-31
-1.35363e-31
2.59375e-31
-3.18492e-29
-1.44908e-29
-2.02607e-29
-3.20555e-28
-6.0369e-30
1.50729e-29
-1.19099e-29
-4.85268e-29
1.28299e-28
-3.9402e-28
-1.40293e-28
-6.60373e-26
-1.40991e-25
-1.69561e-28
1.03781e-30
-9.50629e-30
-2.25473e-27
-1.33148e-27
3.21551e-26
-5.47481e-25
-1.52908e-24
-4.01348e-24
-1.87095e-23
-2.50646e-24
8.41045e-24
-4.27108e-24
-2.89723e-23
-3.70358e-24
-3.0287e-22
-2.0674e-23
-7.09483e-23
-9.72051e-23
6.68091e-23
-3.28462e-22
-1.44722e-23
5.35424e-22
-4.7599e-21
-4.62053e-22
-2.0234e-22
1.05243e-24
1.42117e-23
6.8997e-24
9.05476e-23
7.41454e-23
-2.06928e-21
2.96822e-25
5.33055e-24
6.26376e-20
-9.92546e-21
-3.56782e-19
-4.58822e-22
1.49631e-20
-2.31505e-21
2.20294e-22
1.24092e-22
2.26159e-21
-2.50813e-20
2.34537e-20
-8.89859e-20
5.84394e-21
9.90786e-21
-1.28261e-24
1.75003e-20
-1.71582e-19
-1.58516e-23
4.29576e-22
2.74547e-22
2.93575e-23
-6.10401e-23
-1.42336e-23
-5.92559e-21
9.65106e-22
-2.52972e-22
-2.95583e-21
3.23261e-22
-2.65663e-20
1.43953e-18
1.67397e-17
-4.54506e-17
1.95223e-16
-4.312e-15
2.2998e-16
1.02431e-17
3.36399e-17
1.35304e-14
3.21564e-16
7.78561e-16
3.51253e-15
2.23939e-16
1.56815e-15
5.25807e-17
1.28095e-15
-3.26105e-14
-1.38289e-16
2.54878e-16
-1.56602e-18
-9.42418e-14
1.48841e-14
-5.4676e-13
-7.63349e-13
-2.10004e-12
1.11286e-14
-1.39238e-13
-2.16471e-12
-5.72079e-13
-2.39902e-11
1.0289e-12
5.52953e-11
1.99058e-11
-2.93005e-10
3.43195e-12
1.77098e-11
7.41494e-12
-6.25043e-12
-1.97105e-15
-1.60473e-13
2.99464e-15
7.61868e-15
-2.26219e-13
1.79654e-14
6.38742e-14
-2.34151e-12
8.67481e-16
-1.39085e-14
1.38006e-15
-7.76774e-16
1.35148e-15
3.1556e-15
-1.36878e-14
-3.24301e-14
-2.44552e-15
2.90416e-16
-1.18899e-14
7.30899e-15
-5.83392e-14
2.4137e-19
1.33739e-19
4.54211e-20
-3.83519e-18
-6.84225e-23
1.08498e-20
4.46386e-21
2.77944e-22
2.81213e-21
2.81994e-21
2.69056e-21