/*--------------------------------*- C++ -*----------------------------------*\
| =========                 |                                                 |
| \\      /  F ield         | OpenFOAM: The Open Source CFD Toolbox           |
|  \\    /   O peration     | Version:  v2012                                 |
|   \\  /    A nd           | Website:  www.openfoam.com                      |
|    \\/     M anipulation  |                                                 |
\*---------------------------------------------------------------------------*/
FoamFile
{
    version     2.0;
    format      ascii;
    class       volScalarField;
    location    "0.05";
    object      p;
}
// * * * * * * * * * * * * * * * * * * * * * * * * * * * * * * * * * * * * * //

dimensions      [1 -1 -2 0 0 0 0];


internalField   nonuniform List<scalar> 
6576
(
-391.939
-410.968
-380.446
-385.115
-396.975
-376.432
-373.144
-370.269
-387.29
-382.806
-382.118
-373.232
-361.719
-373.876
-281.519
-294.091
-328.261
-332.594
-305.241
-304.723
-331.324
-368.985
-378.57
-449.548
-281.18
-241.539
-168.098
-421.37
-412.816
-414.359
-405.465
-397.463
-356.888
-262.331
-246.381
-261.988
-277.524
-279.117
-265.46
-272.449
-297.097
-358.246
-299.28
2.16279
0.965735
2.29479
0.62722
1.25287
1.64271
2.21478
1.19007
0.662006
-2.91869
-2.91951
-2.93451
-2.88432
-2.8866
-2.90029
-2.8975
-2.92166
-2.88679
-2.87712
-2.85819
-2.89171
-2.92115
-2.88559
-2.66547
-2.70262
-2.72302
-2.73921
-2.70342
-2.77771
-2.7403
-0.569518
-0.597147
-0.604337
-0.59347
-0.566752
-0.588318
-0.614745
-0.528047
-0.517066
-0.545733
-0.563357
-0.535743
-0.5389
-0.566468
-0.032957
-0.0500929
0.190048
0.113521
0.107717
0.0604214
-0.0187833
-1.75645
0.145856
-2.70497
-0.206187
0.0962381
-0.227506
-1.55089
87.23
61.2072
53.0745
60.9593
87.0647
39.684
66.0439
68.1211
55.7366
96.1286
41.3994
70.9117
69.4294
-3.04637
-3.00861
-3.176
-3.04985
-3.21601
-3.27238
-3.10075
-16.5707
-20.0702
-117.635
-86.9046
-69.2001
-13.4053
2.96873
-2.96664
-3.02767
-2.97986
-3.30066
-3.08253
-3.43984
-3.1113
-1.43983
-1.43196
-1.45854
-1.41528
-1.38992
-1.39534
-1.42258
-1.57144
-1.55066
-1.54455
-1.52236
-1.49728
-1.50431
-1.53124
-1.7202
-1.70636
-1.76077
-1.6512
-1.69224
-1.72688
-1.68771
-1.70538
-1.73786
-1.67563
-1.68329
-1.71419
-1.64265
-1.61528
-1.667
-1.63785
-1.83655
-1.89557
-1.85085
-1.7761
-1.82013
-1.85817
-1.8153
-1.83322
-1.87147
-1.80105
-1.79457
-1.82721
-1.73642
-1.76404
-1.7754
-1.74438
-2.2237
-2.29991
-2.19992
-2.19232
-2.2666
-2.15098
-2.08484
-2.12125
-2.19403
-2.51727
-2.48103
-2.56345
-2.41308
-2.36484
-2.47584
-2.43277
-2.57431
-2.57968
-2.69807
-2.54801
-2.42172
-2.50132
-2.60455
-2.91523
-2.97174
-2.9334
-2.76091
-2.76684
-2.82025
-2.80073
-3.36905
-3.73477
-3.66401
-4.2744
-3.81787
-3.59903
-3.89881
-2.75996
-2.78905
-2.77289
-2.68662
-2.70456
-2.72731
-2.70921
-2.59321
-2.65221
-2.58748
-2.61247
-2.55373
-2.51838
-2.58189
-2.40273
-2.31492
-2.35707
-2.43145
-2.39237
-2.32826
-2.36999
-2.14917
-2.1803
-2.10103
-2.20018
-2.2452
-2.15026
-2.19427
-1.99745
-1.93515
-1.97921
-2.06156
-2.01033
-2.0396
-1.99203
-1.95415
-1.99871
-1.84206
-1.79107
-1.8314
-1.81867
-1.85956
-1.78864
-1.82792
-1.61064
-1.62561
-1.59148
-1.56328
-1.59761
-1.59597
-1.56234
84.6192
57.195
50.975
70.6487
44.8854
15.0507
36.3983
26.5181
51.0169
-0.435511
-0.365371
0.966832
-1.59807
-0.818606
-0.318274
-0.317238
0.169523
0.189337
0.22792
0.28269
0.233621
0.204013
0.175139
0.235314
0.193904
0.269562
0.0736265
-1.34321
0.283133
0.837686
0.200849
0.237366
0.431389
0.215195
0.112362
-0.612439
-0.582994
-0.573924
-0.585891
-0.61484
-0.590649
-0.56161
-0.938492
-0.930815
-0.95226
-0.945678
-0.937959
-0.961263
-0.963535
-0.953789
-0.958464
-0.639333
-0.624763
-0.602531
-0.676725
-0.655659
-0.652169
-0.630184
0.146262
0.211047
0.235645
0.113101
0.15086
0.159862
0.135521
0.181637
0.148769
0.164626
0.141083
0.112975
0.162277
0.138821
0.154084
0.169194
0.337414
0.501555
0.239399
0.183004
0.0218817
0.150484
0.239802
0.0259021
0.115479
86.735
87.1319
97.7027
59.7688
61.4798
71.456
72.6108
84.6459
85.4595
98.1362
71.3933
58.7923
15.5611
39.4173
52.9268
64.5479
0.381238
-0.0837662
-0.162634
0.218259
-0.459271
0.355717
-0.196876
0.274305
0.239969
0.277237
0.161555
0.2789
0.145905
0.165733
-0.376093
-0.33812
-0.353294
-0.322588
-0.300023
-0.335998
-0.313141
-0.33978
-0.362739
-0.532237
-0.552768
-0.517721
-0.504188
-0.481968
-0.529898
-0.508077
-0.63506
-0.601126
-0.616144
-0.585889
-0.56523
-0.59858
-0.577715
-0.603137
-0.623312
-0.8469
-0.818958
-0.835306
-0.871936
-0.860091
-0.841426
-0.856574
-0.835655
-0.844352
-0.860809
-0.82999
-0.809666
-0.828359
-0.849005
-2.17192
-2.18539
-2.22463
-2.15141
-2.18562
-2.18694
-2.22336
-2.24998
-2.28647
-2.30113
-2.28548
-2.25052
-2.28524
-2.31978
-2.17464
-2.18824
-2.22451
-2.18939
-2.15596
-2.18785
-2.2232
-2.18225
-2.21976
-2.16767
-2.16647
-2.20198
-2.15029
-2.11476
-2.167
-2.13199
-2.329
-2.36469
-2.31537
-2.32727
-2.2976
-2.36403
-2.33005
-2.44235
-2.38969
-2.42579
-2.44529
-2.48133
-2.41184
-2.44608
-2.44581
-2.46432
-2.49956
-2.42817
-2.39247
-2.42874
-2.4621
-2.72897
-2.71056
-2.67458
-2.73215
-2.76832
-2.73239
-2.69644
-2.55146
-2.58633
-2.58966
-2.58671
-2.62279
-2.64468
-2.60793
-2.78972
-2.73417
-2.75334
-2.5662
-2.58457
-2.52973
-2.91712
-2.88063
-2.87929
-2.88279
-2.91618
-2.89276
-2.86108
-2.8713
-2.8789
-2.91281
-2.81732
-2.85348
-2.8436
-2.87754
-2.89656
-2.93239
-2.86171
-2.87108
-2.81755
-2.85398
-2.91443
-2.88015
-2.89751
-2.86283
-2.83593
-2.87193
-2.93419
-2.91598
-2.91464
-2.89805
-2.88082
-2.87289
-2.81902
-2.85486
-2.89122
-2.91954
-2.91957
-2.93483
-2.88657
-2.88546
-2.89926
-2.89951
-2.59899
-2.57888
-2.54366
-2.61582
-2.65232
-2.59836
-2.63335
-2.59687
-2.56203
-2.44373
-2.40666
-2.46506
-2.48439
-2.51989
-2.44632
-2.48091
-2.48002
-2.53128
-2.49021
-2.46482
-2.50206
-2.53527
-2.49414
-2.30875
-2.33157
-2.34007
-2.35034
-2.38776
-2.38319
-2.34846
-1.99591
-1.9309
-1.96701
-2.06258
-2.0196
-1.96194
-1.9112
-1.98742
-2.00093
-2.05875
-1.95279
-2.00496
-1.8067
-1.75639
-1.77615
-1.8331
-1.76612
-1.78739
-1.84471
-1.67262
-1.59652
-1.60895
-1.66881
-1.56312
-1.61152
-1.69594
-1.10497
-1.10807
-1.14177
-1.06703
-1.09998
-1.11748
-1.08132
-1.04512
-1.07951
-1.04475
-1.01007
-1.04452
-1.01915
-1.05346
-1.07101
-1.03645
-0.912356
-0.89525
-0.938363
-0.901482
-0.920991
-0.934212
-0.953823
-0.538421
-0.567494
-0.5789
-0.591353
-0.620279
-0.594581
-0.565628
-0.602644
-0.628959
-0.586379
-0.574716
-0.600699
-0.545399
-0.571712
-0.551362
-0.580559
-0.593258
-0.635882
-0.606308
-0.579415
-0.608548
-0.278378
-0.306234
-0.263963
-0.250395
-0.278009
-0.22225
-0.250017
-0.13766
-0.109716
-0.150875
-0.164453
-0.192719
-0.10894
-0.137036
-0.136521
-0.164587
-0.196554
-0.168507
-0.153792
-0.12248
-0.151163
-0.151177
-0.179385
-0.16821
-0.196312
-0.0221958
0.00900372
-0.0355946
-0.0370543
-0.0654075
-0.051016
-0.021314
-0.0665526
-0.037857
-0.0796127
-0.0363738
-0.00405052
-0.0337687
-0.0343258
-0.0627157
-0.0803015
0.106257
0.142707
0.0907573
0.0884015
0.0413704
0.0716119
0.235511
0.230083
0.227867
0.244243
0.304287
0.163074
0.168567
0.167373
0.189509
0.153282
0.21469
0.164921
0.288005
0.233252
0.211016
0.245197
0.356918
0.519888
-0.0221796
0.436925
0.18981
0.217744
0.234781
0.227764
0.278507
0.28634
0.241664
0.264434
-0.438719
0.111696
0.2004
0.205231
-0.933104
0.570974
2.23012
-0.0805531
-1.12537
-0.412471
-1.1457
53.5445
39.5201
67.0189
12.1922
39.3329
51.7984
86.1946
59.5823
59.9542
33.0534
61.6182
87.9869
53.5071
61.1301
88.1627
41.1501
10.2262
66.94
40.3059
73.6752
99.8917
72.9133
83.0233
84.1658
94.05
56.9113
56.6145
80.0519
79.8714
53.1566
53.1853
89.9905
89.4524
100.127
62.6683
63.3053
72.9764
46.4985
68.1805
54.5334
41.7461
85.8937
59.7072
51.6945
86.0801
59.5907
38.3444
65.0923
36.1466
10.6673
48.1209
60.4498
34.1958
7.04192
33.4996
0.265817
1.41191
-0.181997
1.57011
0.623444
-0.429048
-0.430004
0.311645
0.384762
-1.24781
-1.16455
-0.744553
-0.214317
-1.23947
0.190066
0.176212
0.150771
0.158596
0.157866
0.13598
0.12708
0.0464485
0.0591034
0.0206319
0.0963486
0.0721176
0.0464949
0.0725746
0.0409599
0.014217
0.050118
0.0122571
0.0390751
0.0626085
0.0359272
-0.0826199
-0.0481323
-0.0577395
-0.036363
-0.0160318
-0.0480138
-0.0249496
-0.0465642
-0.0706249
-0.177806
-0.15231
-0.142137
-0.106529
-0.130686
-0.118141
-0.142726
-0.141063
-0.166145
-0.301017
-0.27797
-0.315163
-0.325813
-0.302578
-0.350796
-0.328177
-1.51004
-1.53031
-1.48138
-1.58785
-1.55788
-1.52244
-1.55015
-1.49135
-1.44865
-1.50004
-1.52497
-1.48291
-1.51069
-1.55533
-1.68079
-1.73037
-1.67681
-1.62382
-1.66874
-1.88221
-1.89472
-1.93416
-1.86772
-1.82848
-1.86148
-1.89751
-1.94288
-1.89483
-1.90558
-1.91107
-1.87662
-1.90884
-1.94324
-1.87638
-1.84167
-1.89387
-1.87624
-1.90945
-1.94434
-1.90946
-2.02794
-1.97648
-2.01059
-2.03064
-2.06563
-1.99773
-2.03062
-2.02957
-2.04657
-2.08286
-1.97803
-2.01283
-2.01237
-2.04595
-2.21928
-2.16552
-2.16735
-2.16226
-2.12671
-2.12719
-2.1601
-2.18353
-2.11041
-2.16122
-2.1771
-2.14447
-2.11136
-2.30673
-2.357
-2.30481
-2.28888
-2.2539
-2.32329
-2.25331
-2.28732
-2.46496
-2.44748
-2.50136
-2.4285
-2.44757
-2.39299
-2.50048
-2.46439
-2.42865
-2.46247
-2.78384
-2.74859
-2.73208
-2.71248
-2.67606
-2.71271
-2.7465
-2.73216
-2.75004
-2.78613
-2.71521
-2.67902
-2.71529
-2.74951
-2.87803
-2.89241
-2.85993
-2.71599
-2.73603
-2.68027
-2.78781
-2.75231
-2.71646
-2.74991
-2.88096
-2.89714
-2.93163
-2.86355
-2.89854
-2.89561
-2.89562
-2.93206
-2.89798
-2.89618
-2.88018
-2.86513
-2.92137
-2.92055
-2.93542
-2.88846
-2.88835
-2.90041
-2.90001
-2.92212
-2.89035
-2.88812
-2.92246
-2.89131
-2.87308
-2.90391
-2.73554
-2.7043
-2.75617
-2.77415
-2.80538
-2.76719
-2.7376
-2.77431
-2.8051
-2.47599
-2.49042
-2.43258
-2.5473
-2.50179
-2.46778
-2.50863
-2.38746
-2.42933
-2.41131
-2.46765
-2.50226
-2.45138
-2.48367
-2.19886
-2.15805
-2.08723
-2.30864
-2.22713
-2.24748
-2.19072
-2.2564
-2.27537
-2.3892
-2.28301
-2.35772
-1.85243
-1.72291
-1.74836
-1.98587
-1.91441
-1.93196
-1.8708
-1.77145
-1.81521
-1.32863
-1.32339
-1.39431
-1.36484
-1.35283
-1.46512
-1.44396
-1.41381
-1.43167
-1.21857
-1.23003
-1.19264
-1.1791
-1.21546
-1.20811
-1.17315
-1.1308
-1.15482
-1.10877
-1.09123
-1.0671
-1.10084
-1.12481
-0.990923
-0.967687
-1.01324
-1.00802
-0.984384
-1.05934
-1.03506
-1.01812
-1.04224
-0.905356
-0.916375
-0.873974
-0.960105
-0.928615
-0.902572
-0.933851
-0.462605
-0.491167
-0.493903
-0.519755
-0.491147
-0.537162
-0.508094
-0.378529
-0.364101
-0.335805
-0.380311
-0.408072
-0.408529
-0.380782
-0.392285
-0.3644
-0.422223
-0.380032
-0.349149
-0.377322
-0.377596
-0.405441
-0.422514
-0.293544
-0.264948
-0.262246
-0.265035
-0.236393
-0.247993
-0.219108
-0.309919
-0.266727
-0.281182
-0.147344
-0.103872
-0.133028
-0.0319651
0.0136207
-0.0177884
0.148437
0.134034
0.160496
0.159468
0.171923
0.164024
0.147336
65.5905
50.9379
37.5327
57.2065
44.5071
30.183
33.1365
6.19953
6.29752
30.1513
95.6444
69.4456
69.4349
84.6019
84.7438
95.01
58.1104
57.6986
68.6375
66.9952
64.5566
51.4592
38.8875
84.7968
57.6081
50.6832
65.1847
38.0282
58.5644
85.6311
61.785
86.9376
48.9158
63.1955
35.9402
59.4482
-0.120418
0.077021
0.110547
-0.266591
-1.00961
0.052391
0.337816
0.0538911
-0.425924
-0.327363
-0.502259
-1.8644
-0.0865221
0.135498
0.226067
0.12023
0.264296
0.212218
0.236493
0.209401
0.235246
0.0836933
0.048742
0.0585496
0.0614942
0.0872515
0.065699
0.100421
-0.0924098
-0.120289
-0.105569
-0.143848
-0.116998
-0.144675
-0.117883
-0.28926
-0.262885
-0.301132
-0.288224
-0.313614
-0.288372
-0.262446
-0.397821
-0.371176
-0.408067
-0.419718
-0.445385
-0.422798
-0.396514
-0.52136
-0.546668
-0.512049
-0.497433
-0.523327
-0.501051
-0.475179
-0.614997
-0.587117
-0.622171
-0.632512
-0.658515
-0.638979
-0.61157
-1.45207
-1.43366
-1.45866
-1.50326
-1.4748
-1.4698
-1.49868
-1.60848
-1.61925
-1.65755
-1.59535
-1.5581
-1.58824
-1.62353
-1.63374
-1.67039
-1.624
-1.63945
-1.60708
-1.67105
-1.63689
-1.67568
-1.62923
-1.64052
-1.64398
-1.61237
-1.64258
-1.6757
-1.67843
-1.63196
-1.6446
-1.64651
-1.61578
-1.67868
-1.64655
-1.80766
-1.77291
-1.75589
-1.79003
-1.75636
-1.73742
-1.70591
-1.7227
-1.75515
-1.62399
-1.57541
-1.60794
-1.62669
-1.65984
-1.59511
-1.62692
-1.62574
-1.64188
-1.67593
-1.60992
-1.57687
-1.60993
-1.64162
-1.7569
-1.72375
-1.76017
-1.75718
-1.79034
-1.81153
-1.77725
-1.92865
-1.89399
-1.8912
-1.84028
-1.87398
-1.86132
-1.89433
-1.75507
-1.70478
-1.73828
-1.94816
-1.89595
-1.91326
-2.08555
-2.04924
-2.03247
-2.22132
-2.18473
-2.16814
-2.15095
-2.18506
-2.11551
-2.15085
-2.16683
-2.18391
-2.21999
-2.14976
-2.11391
-2.35961
-2.32609
-2.30973
-2.29096
-2.25526
-2.291
-2.32484
-2.15957
-2.10813
-2.14426
-2.17593
-2.14197
-2.10857
-2.14296
-2.36484
-2.31379
-2.33045
-2.32952
-2.29614
-2.33047
-2.3652
-2.5974
-2.61401
-2.65106
-2.58137
-2.54451
-2.79557
-2.76414
-2.74746
-2.79464
-2.76211
-2.76087
-2.72956
-2.54435
-2.57764
-2.60262
-2.61806
-2.58467
-2.57993
-2.54793
-2.7645
-2.7979
-2.75108
-2.76381
-2.79856
-2.76857
-2.73478
-2.87998
-2.86301
-2.89189
-2.88338
-2.91767
-2.88052
-2.85139
-2.88773
-2.865
-2.83176
-2.8978
-2.93458
-2.86614
-2.92847
-2.90001
-2.89289
-2.89887
-2.8736
-2.84512
-2.87464
-2.92656
-2.92936
-2.93886
-2.90164
-2.90348
-2.91204
-2.89086
-2.90245
-2.89302
-2.87697
-2.93307
-2.92932
-2.93964
-2.91084
-2.91048
-2.91963
-2.92282
-2.88087
-2.85852
-2.90133
-2.86904
-2.88642
-2.91407
-2.89627
-2.94442
-2.92826
-2.92825
-2.95059
-2.92668
-2.92901
-2.95194
-2.92379
-2.9103
-2.87335
-2.85918
-2.85485
-2.89522
-2.89615
-2.56222
-2.66681
-2.42751
-2.5515
-2.67455
-2.78887
-2.57459
-2.14409
-2.17061
-2.08495
-2.30875
-2.1881
-2.29295
-2.20001
-2.44221
-2.36533
-2.45495
-2.31887
-2.34588
-2.39902
-2.41892
-1.75905
-1.83201
-1.78766
-1.87412
-1.91997
-1.83052
-1.86775
-1.80538
-1.76961
-1.63977
-1.56661
-1.62115
-1.70908
-1.63089
-1.58936
-1.65132
-1.62423
-1.68851
-1.64379
-1.68904
-1.71528
-1.63877
-1.66339
-1.45089
-1.42618
-1.47916
-1.50775
-1.53473
-1.50117
-1.52713
-1.4578
-1.48186
-1.51188
-1.56006
-1.51505
-1.46343
-1.50383
-1.47671
-1.5172
-1.54497
-1.50257
-1.32089
-1.37066
-1.34418
-1.36557
-1.39013
-1.32726
-1.35242
-1.18283
-1.16614
-1.13767
-1.20253
-1.23152
-1.19954
-1.17159
-1.20816
-1.19436
-1.24168
-1.1476
-1.18023
-1.21087
-1.17867
-0.955726
-0.940214
-0.911077
-0.972728
-1.00216
-0.971351
-0.942764
-1.01021
-0.978442
-0.966054
-0.979927
-1.01055
-0.951031
-0.980622
-0.855436
-0.885317
-0.839671
-0.824731
-0.795628
-0.82589
-0.85468
-0.574976
-0.603082
-0.603572
-0.574765
-0.602752
-0.61789
-0.589722
-0.693192
-0.722302
-0.725234
-0.769615
-0.739977
-0.722407
-0.751577
-0.563154
-0.605596
-0.60602
-0.649097
-0.562973
-0.620004
-0.446203
-0.475024
-0.489369
-0.477843
-0.449131
-0.491926
-0.506342
-0.535402
-0.477775
-0.506206
-0.332825
-0.361418
-0.375547
0.139516
0.16039
0.167574
0.151574
0.154733
0.168989
0.176268
55.6728
43.0765
28.0796
31.4098
7.96906
4.83573
30.0316
94.4536
67.6952
66.4977
86.0732
86.929
97.7239
60.9842
60.6055
72.2007
71.769
65.1314
53.3313
39.1432
0.896306
0.323882
0.574905
0.560989
0.690748
0.872621
0.608999
1.35029
-0.101801
0.320909
0.622518
0.75804
-0.0516713
0.172865
-0.103172
-0.0637262
-0.0889321
-0.144285
-0.118869
-0.092456
-0.117652
-0.109954
-0.137148
-0.0974826
-0.0837057
-0.110842
-0.0852828
-0.0581698
-0.0839234
-0.0552034
-0.24851
-0.224073
-0.209175
-0.247628
-0.222477
-0.221285
-0.195682
-0.220098
-0.247008
-0.20875
-0.193716
-0.221127
-0.169926
-0.198723
-0.196214
-0.168071
-0.331759
-0.359737
-0.322488
-0.320066
-0.348133
-0.313698
-0.284254
-0.324988
-0.29638
-0.44806
-0.476976
-0.440572
-0.451643
-0.480204
-0.429174
-0.45843
-1.37491
-1.40996
-1.36477
-1.41107
-1.37824
-1.3814
-1.34926
-1.38293
-1.41643
-1.37101
-1.41678
-1.38494
-1.38695
-1.35538
-1.4197
-1.37167
-1.38695
-1.36816
-1.33739
-1.36806
-1.39962
-1.53097
-1.49942
-1.49573
-1.46777
-1.49961
-1.47969
-1.44745
-1.36198
-1.33118
-1.36661
-1.3609
-1.33017
-1.53775
-1.50586
-1.50129
-1.50698
-1.53853
-1.31879
-1.364
-1.3182
-1.34811
-1.37898
-1.55052
-1.50385
-1.48785
-1.51849
-1.55037
-1.62852
-1.67868
-1.64466
-1.75627
-1.80716
-1.77132
-1.70582
-1.73975
-1.56864
-1.60257
-1.61608
-1.6315
-1.59904
-1.60136
-1.56838
-1.89957
-1.86455
-1.88381
-1.83369
-1.86885
-1.83351
-1.86755
-1.8056
-1.76948
-1.75745
-1.7718
-1.80599
-1.77428
-1.74013
-2.07905
-2.0432
-2.02728
-1.97117
-2.00798
-2.00828
-2.04304
-2.32843
-2.36835
-2.31032
-2.29258
-2.32969
-2.25289
-2.29336
-2.64432
-2.68343
-2.62002
-2.68819
-2.70535
-2.65829
-2.63625
-2.90793
-2.90433
-2.89077
-2.91559
-2.94105
-2.927
-2.90347
-2.92452
-2.92494
-2.90521
-2.92116
-2.94379
-2.90926
-2.95041
-2.95604
-2.94722
-2.97205
-2.96076
-2.96719
-2.9808
-2.95561
-2.95819
-2.95567
-3.03091
-2.96984
-3.0005
-2.99632
-3.01635
-3.01265
-3.14246
-3.05414
-3.09248
-3.73567
-4.13613
-4.03603
-4.00607
-4.35795
-3.25893
-4.69981
-3.14653
-27.3293
-22.5231
-28.0898
-17.6542
-16.3386
-4.36502
-6.39427
-4.69903
-2.44025
-4.88443
-5.84708
-2.9741
-3.39948
-4.43073
-4.42559
-4.47097
-2.7553
-4.42004
-4.98395
-4.32388
-4.02865
-4.02199
-3.48941
-3.26479
-3.3499
-3.61567
-3.48745
-3.33184
-3.36939
-2.83017
-4.25002
-5.38955
-4.14184
-3.95842
-2.19255
-2.23826
-2.28055
-2.24757
-2.28743
-2.3463
-2.30441
-2.49739
-2.46069
-2.43537
-2.36633
-2.40528
-2.49276
-2.45846
-2.40863
-2.44424
-1.9941
-2.04487
-2.07006
-2.08777
-2.13706
-2.08891
-2.04155
-2.04191
-2.00469
-2.0653
-2.04803
-2.01088
-2.08945
-2.05443
-1.95552
-1.99405
-1.92898
-1.95147
-1.91684
-1.90769
-1.87262
-1.66602
-1.64015
-1.6129
-1.65797
-1.68608
-1.64698
-1.61824
-1.34694
-1.37824
-1.32827
-1.31181
-1.28101
-1.31509
-1.34528
-1.17577
-1.20682
-1.20982
-1.2069
-1.2386
-1.2582
-1.22522
-1.06812
-1.0385
-1.08449
-1.08631
-1.11594
-1.09799
-1.06899
-1.11658
-1.08732
-1.1314
-1.08596
-1.05303
-1.08317
-1.08369
-1.11342
-1.13179
-0.993283
-0.962693
-0.959972
-0.962842
-0.932827
-0.914618
-0.944679
-0.964642
-1.01094
-0.98
-0.811174
-0.840701
-0.843631
-0.870374
-0.840773
-0.888679
-0.858573
-0.854482
-0.839612
-0.884108
-0.823218
-0.794752
-0.824456
-0.852552
-0.838959
-0.794261
-0.823939
-0.720537
-0.676461
-0.705823
-0.721301
-0.707156
-0.677687
-0.735352
-0.765479
-0.735789
-0.706328
0.093184
0.0667763
0.0592094
0.0477254
0.0765964
0.0711439
0.102119
0.113513
0.143182
0.126434
0.148985
0.12512
0.108998
0.115419
0.105118
0.240461
-0.441923
0.368544
0.363067
0.493805
0.895479
1.14923
0.0183744
0.722459
0.033722
1.51452
0.488357
0.0883999
87.7671
87.6162
98.4592
61.1755
61.3971
71.0507
72.5365
68.2637
94.7475
68.4573
68.7366
55.4742
42.3366
-1.12837
-1.16173
-1.11851
-1.13151
-1.16332
-1.10414
-1.1351
-1.13673
-1.16887
-1.12526
-1.13871
-1.16972
-1.11058
-1.14086
-1.17318
-1.12918
-1.14179
-1.14367
-1.11424
-1.14307
-1.17347
-1.12493
-1.13922
-1.1704
-1.11056
-1.07984
-1.10975
-1.13961
-1.2785
-1.2472
-1.24451
-1.19847
-1.22906
-1.21709
-1.24739
-1.24905
-1.29626
-1.26445
-1.25066
-1.29525
-1.26339
-1.26581
-1.23535
-1.29546
-1.26466
-1.24683
-1.29128
-1.25854
-1.23164
-1.26248
-1.292
-1.26058
-1.2844
-1.25082
-1.24043
-1.22541
-1.25693
-1.25358
-1.28573
-1.2229
-1.20313
-1.17551
-1.26862
-1.23963
-1.23352
-1.20618
-1.54705
-1.51929
-1.52981
-1.46269
-1.45369
-1.47368
-1.4902
-1.63625
-1.69515
-1.68558
-1.62011
-1.67831
-1.70059
-1.62856
-1.83714
-1.85868
-1.97445
-1.74881
-1.84313
-1.85263
-1.71194
-1.76146
-1.52931
-1.5454
-1.61233
-1.60195
4.66027
-1.00479
-0.954497
1.46135
-2.93713
-3.67641
-3.54446
-3.02153
-3.84746
-3.10419
-2.65456
-3.19517
-3.90467
-3.10967
-2.23039
-2.23474
-2.42236
-2.62612
-2.55555
-2.45074
-2.33531
-3.32895
-3.40727
-3.13583
-2.98918
-2.96474
-2.96166
-2.96194
-2.98659
-2.95036
-2.96465
-3.01596
-2.9629
-2.98722
-2.92037
-2.91849
-2.94036
-2.90759
-2.93622
-2.93826
-2.93153
-2.93759
-2.92523
-2.90917
-2.90858
-2.89678
-2.89909
-2.73273
-2.68839
-2.74226
-2.76344
-2.72529
-2.75672
-2.79628
-2.19184
-2.2476
-2.227
-2.23061
-2.26744
-2.22955
-2.19408
-2.10453
-2.08308
-2.04813
-2.09215
-2.12465
-2.08601
-2.05172
-1.97251
-1.94817
-1.9146
-1.99202
-2.02764
-1.985
-1.95225
-1.82024
-1.78804
-1.84233
-1.86414
-1.89821
-1.84537
-1.87842
-1.80763
-1.83959
-1.91968
-1.88318
-1.87028
-1.91974
-1.88505
-1.85238
-1.88591
-1.46656
-1.44924
-1.41647
-1.51547
-1.48219
-1.48167
-1.44996
-1.38419
-1.33559
-1.35038
-1.43207
-1.46469
-1.46785
-1.4972
-1.46493
-1.51771
-1.48428
-1.28698
-1.33493
-1.31827
-1.33534
-1.28808
-1.38384
-1.18934
-1.20512
-1.1577
-1.22336
-1.25561
-1.20751
-1.19234
-1.1606
-1.19199
-1.22309
-1.06591
-1.08131
-1.03538
-1.10095
-1.13249
-1.08808
-1.07275
-1.10263
-1.10213
-1.13315
-0.815576
-0.785093
-0.829277
-0.841845
-0.873215
-0.812823
-0.843444
-0.155094
-0.142216
-0.178875
-0.128404
-0.106339
-0.00901072
-0.033156
-0.0456451
-0.0574509
-0.0822943
-0.0577156
-0.032766
-0.0800403
-0.0590137
-0.0489863
-0.0191867
-0.0351034
-0.0371013
-0.0561406
-0.0474965
-0.0335571
-0.0130648
-0.0588244
-0.0826654
0.0266913
0.0357779
0.0344774
0.0583704
0.0669787
0.0425904
0.0500052
0.0291644
0.00337282
0.0467445
0.039068
0.0583614
0.0406624
0.0549624
-0.0211367
0.250618
0.0808397
0.0943833
0.111328
-0.0190867
-0.0127375
54.2457
67.2198
40.7538
87.5001
60.9846
53.1728
39.8079
66.509
87.5995
61.0105
55.2565
68.3754
94.7821
41.9286
67.0619
68.7381
85.2533
85.3276
95.9637
58.8842
58.6943
68.9193
70.1017
70.117
97.3395
71.4252
-0.888337
-0.859705
-0.89118
-0.905553
-0.935137
-0.917459
-0.888367
-0.886619
-0.871966
-0.843221
-0.952871
-0.982944
-0.994991
-0.981762
-0.95167
-1.00897
-0.97837
-0.746638
-0.731455
-0.722463
-0.712314
-0.688619
-0.691753
-0.716227
-0.842105
-0.854543
-0.823055
-0.802788
-0.833875
-0.830507
-0.799844
-1.22278
-1.20348
-1.22539
-1.14798
-1.1557
-1.17635
-1.17515
-1.2663
-1.32696
-1.27981
-1.23876
-1.29463
-1.21449
-1.27883
-1.14782
-1.13088
-1.17432
-1.05605
-1.08531
-1.11571
-1.0934
-1.15956
-1.24828
-1.13652
-1.11017
-1.18539
-1.11658
-1.03498
-2.82585
-3.12881
-2.6407
-3.21829
-3.32488
-2.94286
-2.9712
-2.75871
-2.67454
-2.67704
-2.69506
-2.67079
-2.61432
-2.60941
-2.66613
-2.64253
-2.69754
-2.76799
-2.7186
-2.65264
-2.65499
-2.79253
-2.74117
-2.82334
-2.77281
-2.80408
-2.74856
-2.7158
-2.76426
-2.78632
-2.8883
-2.87923
-2.9127
-2.89657
-2.92334
-2.88174
-2.92345
-2.89137
-2.89515
-2.86398
-2.91087
-2.93664
-2.90536
-2.89414
-2.87854
-2.93162
-2.86118
-2.89572
-2.89542
-2.91827
-2.93447
-2.91741
-2.89894
-2.89612
-2.88436
-2.88202
-2.6264
-2.58692
-2.56978
-2.60715
-2.56825
-2.51254
-2.55076
-2.5311
-2.56933
-2.08482
-2.13697
-2.11877
-2.12052
-2.155
-2.11994
-2.0857
-1.98051
-1.94779
-2.00009
-1.95067
-1.98292
-1.98597
-2.01807
-1.8353
-1.86955
-1.87313
-1.90484
-1.86996
-1.92718
-1.89136
-1.76843
-1.73386
-1.73099
-1.70059
-1.73442
-1.71431
-1.68028
-1.78858
-1.736
-1.75354
-1.5977
-1.54824
-1.5994
-1.58111
-1.61531
-1.6494
-1.4467
-1.46281
-1.41338
-1.37354
-1.34403
-1.32584
-1.37147
-1.34213
-1.30889
-1.33704
-0.830851
-0.806211
-0.788102
-0.777938
-0.802673
-0.747705
-0.772633
-0.64498
-0.669843
-0.687188
-0.672445
-0.697464
-0.727829
-0.702291
-0.660908
-0.675477
-0.651763
-0.619549
-0.642393
-0.645835
-0.621962
-0.518807
-0.558491
-0.546609
-0.568231
-0.597363
-0.542209
-0.570731
-0.329598
-0.344398
-0.306445
-0.357689
-0.381475
-0.354889
-0.331136
-0.343227
-0.330119
-0.366515
-0.293292
-0.315425
-0.340109
-0.317197
-0.328075
-0.301578
-0.337887
-0.347334
-0.374145
-0.22249
-0.235221
-0.212604
-0.184124
-0.206144
-0.208554
-0.186097
-0.119323
-0.135177
-0.0990847
-0.123699
-0.146988
-0.100511
-0.122147
-0.125998
-0.117305
-0.0922898
-0.109165
-0.136657
-0.115133
-0.0893981
51.8471
38.4713
65.1352
86.5325
60.3601
52.3412
65.538
39.1322
86.5976
59.8474
53.6922
66.5592
93.0935
40.3594
67.2233
65.9306
84.915
84.9374
95.6653
58.8899
58.2024
69.2672
69.8099
69.5912
96.3298
70.3969
-0.584823
-0.543574
-0.556502
-0.530869
-0.503334
-0.557984
-0.530124
-0.659996
-0.631934
-0.662793
-0.688277
-0.660034
-0.705346
-0.676876
-0.775295
-0.772569
-0.803931
-0.729791
-0.758232
-0.746955
-0.775322
-0.658215
-0.644045
-0.615762
-0.820365
-0.791478
-0.777137
-0.820282
-0.790561
-0.778293
-0.764235
-0.792427
-0.791744
-0.82061
-0.752387
-0.725893
-0.768406
-0.784061
-0.811714
-0.755918
-0.783115
-0.726774
-0.753709
-1.73496
-1.62073
-1.51792
-1.41101
-1.42727
-1.51924
-1.57069
-1.67511
-1.85023
-1.72602
-1.74884
-1.86718
-1.68266
-1.77152
-2.48253
-2.43643
-2.42661
-2.40687
-2.44543
-2.48394
-2.44181
-2.87382
-2.85595
-2.88963
-2.70939
-2.65444
-2.69246
-2.72738
-2.68918
-2.65403
-2.69158
-2.88438
-2.91944
-2.87417
-2.85015
-2.81192
-2.8816
-2.91891
-2.88653
-2.85001
-2.90059
-2.93512
-2.89694
-2.9343
-2.91733
-2.9178
-2.89659
-2.89536
-2.88068
-2.88271
-2.88829
-2.87385
-2.85399
-2.89741
-2.93075
-2.87832
-2.85944
-2.89428
-2.89294
-2.92312
-2.88992
-2.87964
-2.92034
-2.88585
-2.85835
-2.88966
-2.45765
-2.49314
-2.44236
-2.4527
-2.4222
-2.45606
-2.49058
-2.15076
-2.09517
-2.15082
-2.13312
-2.16955
-2.2062
-2.012
-1.96068
-2.01343
-2.02887
-2.06359
-1.99398
-2.02995
-2.06381
-1.8498
-1.86786
-1.8157
-1.72387
-1.77497
-1.74364
-1.70564
-1.73473
-1.77157
-1.74057
-1.74583
-1.78172
-1.73348
-1.74837
-1.71622
-1.78157
-1.74721
-1.58004
-1.60933
-1.59752
-1.64709
-1.61527
-1.64555
-1.61409
-1.5904
-1.60736
-1.57399
-1.60067
-1.63708
-1.63914
-1.60411
-1.50062
-1.46855
-1.4486
-1.40049
-1.43148
-1.46612
-1.43559
-1.4773
-1.44902
-1.42799
-1.4738
-1.44542
-1.40989
-1.43599
-1.16676
-1.11938
-1.14587
-1.21172
-1.18399
-1.14981
-1.176
-1.07867
-1.10063
-1.12513
-1.14267
-1.11904
-1.08388
-1.10776
-0.984584
-1.00983
-1.03019
-1.01387
-1.03914
-1.0739
-1.04695
-1.00604
-0.972467
-1.01328
-1.01958
-1.05453
-0.904594
-0.882286
-0.861228
-0.819435
-0.840902
-0.899811
-0.877282
-0.867046
-0.845158
-0.874262
-0.843697
-0.882169
-0.888035
-0.920174
-0.901956
-0.870884
-0.893501
-0.924776
-0.748782
-0.727346
-0.734503
-0.69419
-0.714733
-0.697422
-0.719176
-0.636286
-0.622418
-0.65812
-0.585343
-0.606567
-0.63122
-0.609607
-0.521268
-0.537088
-0.499031
-0.573115
-0.550824
-0.523646
-0.546098
-0.413479
-0.428496
-0.391114
-0.441838
-0.464349
-0.415546
-0.438383
-0.407465
-0.380932
-0.41662
-0.401045
-0.427809
-0.379007
-0.405326
-0.0861261
-0.0560047
-0.0973356
-0.0571821
-0.0836616
-0.0828335
-0.109137
51.5773
38.1672
64.663
86.8241
61.2154
52.7163
39.0448
66.0196
87.0621
60.1288
53.94
66.754
93.691
40.1939
67.0081
67.8797
71.0165
96.7619
70.6788
89.546
63.1913
54.8976
40.1826
67.5323
63.0806
89.1439
38.8122
13.3295
51.9639
65.5218
91.9489
38.961
64.9799
65.9423
1.12504
-0.96154
0.493715
-1.62817
-0.580964
-0.83207
-0.29919
1.43662
-0.0622315
0.416098
0.226023
0.801665
0.771957
0.207079
0.0489174
0.129361
0.199695
0.0916528
0.129204
0.151405
0.291981
0.181636
0.101419
0.056809
0.0877811
0.0992485
0.0711812
0.0939047
0.104121
0.0966324
0.0825891
0.0918135
-0.0539436
-0.0444247
-0.0728716
-0.0489306
-0.0454163
-0.0276106
-0.0561058
-0.135731
-0.122436
-0.14573
-0.134997
-0.155197
-0.15395
-0.176617
-0.336439
-0.375543
-0.34938
-0.323618
-0.348356
-0.375238
-0.349567
-0.317143
-0.291476
-0.33102
-0.344429
-0.370921
-0.343733
-0.317662
-0.451806
-0.479426
-0.438163
-0.424738
-0.451916
-0.424692
-0.397326
-0.483079
-0.441625
-0.455475
-0.439039
-0.411183
-0.466642
-0.43896
-0.455421
-0.483088
-0.435375
-0.393268
-0.42139
-0.580074
-0.5522
-0.547403
-0.552163
-0.524428
-0.533464
-0.505467
-0.595332
-0.56725
-0.553597
-0.567455
-0.595398
-0.451957
-0.438339
-0.47956
-0.424514
-0.396832
-0.424678
-0.452029
-0.230787
-0.270458
-0.246373
-0.217214
-0.242005
-0.269642
-0.244792
-0.197845
-0.233018
-0.221433
-0.243078
-0.26924
-0.218445
-0.244087
0.0078181
0.0175223
0.0272047
0.0646025
0.0209469
-0.0150914
0.0303422
2.1152
0.611674
2.19202
0.164599
0.246848
0.253519
0.238334
0.206273
0.283233
0.301784
0.210288
0.122195
0.148039
-0.0989867
0.592026
1.36003
2.92599
1.38818
2.68231
1.91442
-0.101679
-0.0752162
-0.0819476
-0.0850797
-0.106292
-0.0834681
-0.0778241
-0.053139
-0.0684341
-0.0824169
-0.0224271
-0.0288432
-0.0430232
-0.056488
-0.127414
-0.137608
-0.109463
-0.0992798
-0.119517
-0.118682
-0.0935077
-0.68906
-0.659548
-0.652639
-0.642039
-0.612969
-0.634839
-0.663914
-0.501679
-0.530808
-0.538806
-0.527376
-0.555917
-0.577654
-0.549613
-0.766764
-0.738412
-0.732786
-0.698491
-0.728267
-0.742585
-0.713868
-0.723203
-0.694258
-0.7139
-0.72785
-0.747103
-0.697801
-0.677747
-0.701005
-0.721122
-0.909628
-0.908123
-0.924912
-0.902505
-0.883513
-0.895273
-0.914023
-0.904604
-0.915708
-0.896409
-0.891882
-0.875463
-0.908014
-0.890972
-0.94862
-0.944162
-0.951452
-0.938435
-0.926721
-0.947865
-0.937095
-0.947841
-0.950435
-0.959694
-0.951878
-0.933682
-0.965654
-0.969395
-0.989697
-0.972625
-0.968028
-0.993985
-0.994356
-1.28875
-1.34075
-1.33754
-1.25319
-1.25541
-1.30617
-1.30379
-1.38875
-1.36473
-1.44161
-1.4043
-1.34919
-1.88258
-1.9058
-1.84535
-1.9363
-1.97548
-1.93016
-1.89504
-2.11283
-2.0996
-2.07844
-2.12176
-2.15888
-2.15766
-2.12072
-2.27772
-2.31796
-2.26331
-2.2787
-2.31764
-2.27647
-2.24184
-2.4765
-2.43871
-2.42146
-2.40262
-2.43695
-2.4746
-2.43879
-2.56882
-2.51173
-2.54885
-2.58771
-2.62694
-2.7152
-2.65998
-2.69826
-2.73198
-2.69738
-2.66189
-2.69804
-2.84584
-2.88079
-2.8651
-2.80898
-2.84884
-2.84693
-2.80937
-2.9358
-2.90263
-2.89771
-2.86845
-2.81298
-2.8523
-2.91335
-2.8776
-2.8953
-2.85947
-2.83172
-2.86861
-2.91357
-2.91359
-2.9339
-2.89595
-2.87788
-2.81391
-2.85075
-2.86991
-2.8861
-2.93574
-2.89824
-2.89966
-2.66735
-2.72123
-2.70415
-2.70246
-2.73784
-2.7033
-2.66727
-2.72837
-2.76619
-2.72538
-2.72932
-2.69172
-2.70718
-2.66997
-2.7304
-2.78835
-2.7507
-2.58073
-2.52577
-2.58297
-2.56315
-2.60075
-2.63726
-2.49046
-2.45606
-2.43838
-2.38356
-2.4184
-2.49161
-2.45679
-2.41991
-2.45451
-2.42187
-2.38355
-2.43864
-2.4555
-2.49195
-2.41993
-2.45476
-1.93012
-1.96321
-1.98575
-2.03866
-2.00516
-1.96668
-1.99888
-1.98814
-2.0058
-2.02306
-2.05446
-2.01676
-2.05634
-2.01977
-1.89065
-1.85789
-1.83713
-1.81796
-1.84714
-1.85464
-1.88624
-1.79146
-1.84345
-1.82864
-1.89533
-1.85593
-1.71128
-1.69312
-1.7213
-1.7625
-1.73145
-1.72901
-1.75944
-1.69972
-1.71817
-1.68309
-1.70791
-1.74693