/*--------------------------------*- C++ -*----------------------------------*\
| =========                 |                                                 |
| \\      /  F ield         | OpenFOAM: The Open Source CFD Toolbox           |
|  \\    /   O peration     | Version:  v2012                                 |
|   \\  /    A nd           | Website:  www.openfoam.com                      |
|    \\/     M anipulation  |                                                 |
\*---------------------------------------------------------------------------*/
FoamFile
{
    version     2.0;
    format      ascii;
    class       volScalarField;
    location    "0.05";
    object      p_rgh;
}
// * * * * * * * * * * * * * * * * * * * * * * * * * * * * * * * * * * * * * //

dimensions      [1 -1 -2 0 0 0 0];


internalField   nonuniform List<scalar> 
6576
(
2793.49
2773.65
2779.59
2788.32
2801.04
2808.41
2787.12
2778.17
2796.42
2791.11
2831.01
2813.21
2800.18
2814.77
2768.26
2780.13
2748.41
2777.7
2781.7
2821.93
2771.36
2819.11
2824.07
2777.63
2791.48
2832.27
2876.31
2802.45
2770.43
2768.72
2793.8
2751.86
2792.25
2811.71
2798.54
2811.83
2798.73
2832.91
2786.39
2816.25
2780.84
2769.36
2804.14
4.35345
2.44771
3.17389
1.53763
2.54527
2.36114
2.94481
2.03553
1.47747
0.00766478
0.00684938
0.00236113
0.0157632
0.0134823
0.0102969
0.0130893
0.00644968
0.0150427
0.0168245
0.0226132
0.0153751
0.0069589
0.0162422
0.0804405
0.0695663
0.0623092
0.0592599
0.0687721
0.0470397
0.0581633
0.59539
0.594037
0.599985
0.597714
0.598156
0.602866
0.602716
0.579929
0.577773
0.575382
0.584034
0.585372
0.582215
0.580923
0.526653
0.427355
0.613707
0.531552
0.602754
0.526651
0.622909
-1.29896
0.386009
-1.7952
0.536572
0.304633
2.30964
-0.178385
102.12
102.373
102.123
102.125
101.955
101.871
101.954
103.156
103.91
104.887
102.695
105.85
104.464
-0.109576
-0.0715696
-0.194508
-0.117995
-0.288509
-0.325257
-0.161604
1225.01
2132.9
1207.59
2621.4
2578.62
2692.17
2717.4
-0.0403057
-0.101332
-0.0429997
-0.397724
-0.181115
-0.52616
-0.199608
0.395121
0.389855
0.389557
0.406534
0.405618
0.4002
0.399235
0.381754
0.389397
0.382369
0.40456
0.403359
0.396331
0.39568
0.34248
0.343186
0.328186
0.358931
0.344162
0.335797
0.348694
0.357295
0.351091
0.373912
0.366247
0.361625
0.393751
0.394843
0.382541
0.385414
0.318097
0.298488
0.316933
0.33913
0.321375
0.309614
0.326207
0.333622
0.321644
0.352651
0.345999
0.339626
0.377865
0.376527
0.365168
0.369904
0.154275
0.104342
0.164919
0.172514
0.124506
0.200731
0.240582
0.217311
0.170802
-0.0341672
-0.0110923
-0.0540971
0.0437274
0.0656894
0.00725197
0.0241044
-0.103468
-0.0958674
-0.186237
-0.0816241
0.0101969
-0.0420265
-0.109561
-0.324561
-0.315838
-0.207806
-0.226069
-0.205578
-0.244597
-0.246704
-0.108485
0.0719662
0.140348
-0.773968
-0.528139
-0.543669
-0.422796
-0.0841402
-0.0999594
-0.109744
-0.0502426
-0.0419014
-0.0646509
-0.0728359
-0.00500898
-0.0377364
-0.0124186
-0.0242693
0.00819607
0.0172577
-0.0199771
0.0628433
0.111239
0.0953617
0.047254
0.0600515
0.09789
0.082437
0.202546
0.184552
0.224406
0.177811
0.159068
0.201456
0.183717
0.262299
0.285182
0.267404
0.237604
0.26256
0.246423
0.267718
0.279327
0.261041
0.308212
0.319787
0.305734
0.318464
0.303847
0.322216
0.309207
0.329428
0.327593
0.335447
0.337368
0.329316
0.330957
0.338308
105.265
104.117
104.465
104.432
104.918
103.471
103.008
105.603
104.508
0.313378
0.330747
1.87344
-0.853963
0.0495331
0.667509
0.452964
0.578475
0.572013
0.597527
0.625334
0.600363
0.586763
0.584093
0.602158
0.586801
1.35972
0.808453
-0.57838
0.722355
1.37321
0.801542
0.848321
1.22579
1.09078
0.597626
0.534954
0.538123
0.534055
0.535226
0.532553
0.530468
0.53323
0.78259
0.763991
0.781959
0.788541
0.769985
0.81237
0.783822
0.78043
0.802031
0.569369
0.570801
0.566758
0.571392
0.566182
0.569671
0.56538
0.510225
0.647831
0.733494
0.538878
0.555242
0.553929
0.522465
0.509558
0.515706
0.518992
0.521157
0.519322
0.516134
0.51891
0.508036
0.497437
0.609874
2.63287
1.20011
0.467582
1.67189
0.695438
1.04447
1.13881
0.503986
103.377
103.773
103.834
102.683
104.397
103.834
105.017
104.353
105.167
104.705
104.238
104.775
105.117
105.017
105.478
103.962
1.24969
1.48865
0.567538
2.19282
2.06295
3.25094
1.05302
1.218
1.02781
1.25528
0.966736
3.15172
0.865401
1.84792
0.55671
0.555269
0.553234
0.557663
0.553952
0.557391
0.553972
0.553609
0.556926
0.584499
0.590244
0.585877
0.586272
0.582216
0.586838
0.582383
0.613056
0.607576
0.605696
0.609675
0.604058
0.610122
0.604711
0.605565
0.611666
0.677113
0.665642
0.675569
0.691491
0.67706
0.669449
0.680577
0.688357
0.692799
0.702617
0.680885
0.674933
0.682516
0.688146
0.197325
0.196989
0.184032
0.204695
0.196765
0.195446
0.185307
0.176203
0.165992
0.164472
0.166987
0.175666
0.167226
0.158965
0.194611
0.194156
0.184157
0.193002
0.200156
0.19454
0.18547
0.195763
0.184537
0.197211
0.198413
0.189175
0.201454
0.210699
0.197876
0.206607
0.158511
0.149102
0.159001
0.160238
0.163636
0.149753
0.157459
0.131002
0.144243
0.134427
0.130691
0.120931
0.137857
0.129895
0.129294
0.123924
0.114963
0.133795
0.143216
0.133226
0.126138
0.0546082
0.059883
0.0695825
0.0540533
0.0441595
0.053817
0.0634836
0.101604
0.0930063
0.0923035
0.0926345
0.082831
0.0767061
0.0871758
0.0376595
0.0537872
0.0477599
0.0982506
0.0930213
0.108437
0.00689857
0.0171136
0.0140721
0.0149483
0.00784569
0.0137451
0.0191458
0.0176785
0.0144609
0.00682721
0.0322434
0.0223685
0.0234837
0.0158188
0.0114044
0.00185032
0.0199697
0.0184216
0.0325321
0.0223803
0.00791849
0.0159285
0.0117071
0.0201085
0.0272971
0.0175744
0.00223682
0.00731221
0.00864844
0.0120992
0.0161941
0.017552
0.0320065
0.0224413
0.0123628
0.00682178
0.00679099
0.00203634
0.0135073
0.0146137
0.0113298
0.0110802
0.08122
0.0881935
0.0971289
0.0775213
0.0673069
0.0818439
0.0731416
0.0833344
0.0918997
0.118225
0.129011
0.110026
0.103837
0.0946197
0.115633
0.107319
0.099449
0.0876006
0.102395
0.101507
0.0905365
0.0836148
0.0984611
0.152464
0.142783
0.147421
0.137144
0.12601
0.130579
0.139027
0.263837
0.289431
0.279601
0.236586
0.253289
0.284664
0.309128
0.272326
0.271954
0.240409
0.293819
0.267927
0.365458
0.389488
0.382869
0.365333
0.40603
0.384759
0.353724
0.499528
0.549352
0.550057
0.529607
0.609027
0.560623
0.502481
0.642393
0.626148
0.631865
0.627781
0.621109
0.629885
0.639762
0.584
0.589028
0.597512
0.579636
0.571461
0.583697
0.575665
0.584384
0.59267
0.594142
0.584973
0.581273
0.57874
0.585508
0.572286
0.578952
0.525764
0.522968
0.5247
0.525384
0.522735
0.522157
0.524833
0.514094
0.514055
0.517221
0.515746
0.516038
0.518786
0.51875
0.512823
0.509903
0.510342
0.507133
0.51043
0.511047
0.50819
0.523046
0.521466
0.524322
0.524752
0.523415
0.526622
0.525131
0.531445
0.533112
0.531367
0.530928
0.528937
0.533888
0.532069
0.532583
0.530794
0.529419
0.53119
0.532767
0.535175
0.532768
0.532754
0.530822
0.531487
0.529661
0.542863
0.547786
0.542602
0.542832
0.540755
0.540319
0.543745
0.53961
0.542029
0.539567
0.543392
0.546811
0.543369
0.542812
0.540698
0.538878
0.56609
0.576264
0.563729
0.561373
0.553756
0.557721
0.571667
0.591076
0.59283
0.606973
0.654229
0.492516
0.519595
0.530903
0.540697
0.507902
0.566443
0.541667
0.724668
0.604645
0.588602
0.605334
0.729645
1.31031
0.639439
0.794854
0.517364
0.505455
0.507483
0.561209
0.547999
0.6456
0.600069
0.889219
0.491979
0.553712
0.490174
0.537752
2.90351
2.92477
2.84066
0.792442
-0.361434
1.38057
-0.208314
103.469
102.583
103.806
104.901
105.507
105.084
104.587
104.25
104.58
103.988
105.142
105.251
104.767
104.376
105.427
105.223
90.4696
105
102.412
105.206
105.147
104.408
100.8
101.942
101.316
100.964
100.664
101.394
101.214
100.77
100.774
105.005
104.467
104.632
103.959
104.597
103.757
103.522
104.946
104.458
104.806
100.783
100.873
100.743
100.97
100.757
100.531
101.003
101.297
87.6782
101.516
100.802
100.405
90.092
99.3942
0.723064
1.66016
0.160504
1.79111
0.850301
-0.181161
-0.236867
1.23253
2.18514
-0.555295
-0.529327
-0.136687
3.12711
0.171768
0.918844
0.597354
0.552723
0.588537
0.567864
0.523242
0.535172
0.532557
0.532074
0.533017
0.529905
0.53195
0.532604
0.532407
0.531448
0.530981
0.527468
0.529022
0.529563
0.526821
0.526415
0.53487
0.529943
0.533474
0.528574
0.522629
0.530062
0.52685
0.531511
0.533727
0.544788
0.544008
0.541043
0.537237
0.539355
0.538762
0.540454
0.542117
0.543311
0.579234
0.576005
0.578225
0.580714
0.577672
0.582007
0.57835
0.421253
0.41413
0.423644
0.396003
0.399699
0.40886
0.407424
0.439946
0.456364
0.444391
0.432599
0.448384
0.446876
0.428514
0.381891
0.358584
0.372734
0.386309
0.367659
0.272449
0.273077
0.259915
0.273798
0.28676
0.280035
0.27028
0.255573
0.264211
0.266597
0.261107
0.26928
0.263335
0.255216
0.265145
0.273572
0.260796
0.265278
0.258351
0.249736
0.258339
0.230082
0.242123
0.234291
0.230012
0.221292
0.236643
0.23003
0.230204
0.226341
0.216327
0.242322
0.233799
0.234258
0.226957
0.184706
0.199048
0.19722
0.197925
0.2072
0.206726
0.200088
0.194182
0.210673
0.199277
0.19654
0.202893
0.20973
0.162326
0.151474
0.164241
0.167036
0.175734
0.158899
0.17633
0.16859
0.125907
0.130248
0.115786
0.133464
0.127533
0.14269
0.114038
0.123851
0.133317
0.125769
0.0409048
0.0498811
0.0532533
0.059707
0.0698503
0.0594788
0.0519709
0.0531671
0.0484252
0.0386163
0.0569797
0.0668897
0.0568982
0.0489599
0.0150403
0.0137975
0.0199999
0.0561953
0.0492936
0.0656403
0.0369323
0.0461531
0.0557246
0.0485535
0.0138649
0.0108233
0.00261066
0.0181342
0.0094224
0.0123515
0.0123437
0.00217521
0.00997674
0.0117781
0.0146407
0.016549
0.00498459
0.00580236
0.00145107
0.0116119
0.0117272
0.0101812
0.0105763
0.00189575
0.00739465
0.00523676
0.00156085
0.00643159
0.00713804
0.00259325
0.0375813
0.0425416
0.0300866
0.0252471
0.0203007
0.0322065
0.0355124
0.0250832
0.0205797
0.0859508
0.0846583
0.103081
0.0671967
0.086425
0.0941593
0.0795854
0.0737318
0.045
0.0761561
0.0198101
0.0114789
0.0360864
0.0300698
0.165975
0.193649
0.23819
0.0956098
0.150851
0.134959
0.165471
0.113466
0.116126
0.0218596
0.100427
0.0513405
0.407298
0.497413
0.498283
0.31327
0.358459
0.354047
0.388925
0.462003
0.444531
0.707761
0.68673
0.65522
0.684692
0.670422
0.623825
0.618713
0.635719
0.644138
0.511273
0.512954
0.52407
0.511334
0.501246
0.508598
0.517283
0.511463
0.51372
0.520354
0.524759
0.52261
0.515145
0.517455
0.519957
0.516917
0.510781
0.516003
0.513358
0.504096
0.502092
0.505902
0.50805
0.50042
0.502539
0.505526
0.498224
0.503437
0.503205
0.498202
0.508739
0.506453
0.506345
0.504141
0.506473
0.5025
0.505292
0.514982
0.516272
0.518292
0.51489
0.513405
0.512948
0.514419
0.514365
0.515973
0.512272
0.515048
0.517027
0.51513
0.514857
0.513287
0.51198
0.521894
0.524213
0.524288
0.524127
0.526492
0.525402
0.528012
0.520409
0.524186
0.52287
0.533209
0.537267
0.534386
0.543483
0.549655
0.544522
0.534763
0.543621
0.529783
0.523493
0.582159
0.545951
0.535864
102.377
100.862
100.551
100.976
101.429
100.228
102.568
97.819
74.7121
99.3894
100.9
100.977
100.966
101.243
101.385
101.14
101.008
100.616
100.94
99.3962
101.343
101.384
101.949
99.6866
98.7739
99.7321
101.095
100.215
99.7303
100.521
96.7184
95.6876
97.0819
98.227
97.0815
93.4334
0.221011
0.38054
0.359883
1.97526
6.42226
1.42986
1.59542
0.796039
2.29613
0.383858
0.315787
-0.690321
2.50151
2.70132
0.503303
0.422815
0.52723
0.4684
0.46503
0.500732
0.509167
0.46516
0.456833
0.426886
0.419067
0.41692
0.450618
0.456977
0.582011
0.580409
0.58199
0.583125
0.583699
0.582299
0.582814
0.586612
0.586711
0.587877
0.587647
0.588533
0.587499
0.58715
0.587534
0.587903
0.590426
0.591913
0.592522
0.588833
0.588841
0.595375
0.596344
0.591548
0.593026
0.593408
0.589409
0.589005
0.580567
0.582171
0.58653
0.589328
0.589601
0.582861
0.583993
0.391642
0.396915
0.398189
0.379871
0.382053
0.387052
0.384444
0.335961
0.338329
0.326303
0.33595
0.346923
0.34306
0.334055
0.328219
0.317851
0.324825
0.322509
0.328604
0.317183
0.325073
0.312562
0.319591
0.321438
0.317983
0.323312
0.319385
0.312541
0.309805
0.316866
0.317364
0.315455
0.319903
0.309562
0.315416
0.281307
0.289786
0.293667
0.285799
0.293193
0.298993
0.304228
0.300576
0.2944
0.3187
0.327872
0.321619
0.318636
0.311763
0.323938
0.318405
0.318708
0.315707
0.307926
0.321388
0.328163
0.32138
0.315964
0.291778
0.298653
0.291131
0.291494
0.284617
0.279194
0.287196
0.253169
0.261552
0.261711
0.273213
0.265795
0.267942
0.261211
0.291852
0.302733
0.295507
0.248549
0.261343
0.257166
0.216265
0.226301
0.229932
0.182977
0.193288
0.196742
0.200795
0.192955
0.209955
0.200894
0.198045
0.19411
0.184305
0.201978
0.211548
0.149799
0.157039
0.160263
0.165892
0.175311
0.165855
0.158291
0.200932
0.212953
0.2031
0.19771
0.205389
0.212506
0.204396
0.148943
0.160577
0.157056
0.157986
0.16509
0.157038
0.148587
0.0828096
0.0793367
0.0685626
0.0856978
0.0962824
0.0335553
0.038699
0.0422417
0.0344778
0.0407376
0.0419787
0.0470041
0.0920575
0.0850504
0.0732065
0.0709018
0.078012
0.0827523
0.0884724
0.0383426
0.0312157
0.0386219
0.0390271
0.0305619
0.0342717
0.0417832
0.0130908
0.0169153
0.0143231
0.00997951
0.00196901
0.00846426
0.0156877
0.00562559
0.0108366
0.0177963
0.0101597
-0.000335568
0.0155374
-0.00386715
-0.0016884
-0.00320406
-0.000547818
-0.00156022
0.00514381
0.00190625
0.00141779
-0.00138242
-0.00036124
5.59224e-05
-0.00178017
0.000168979
-0.00493416
0.00376113
4.58596e-05
0.00295267
-0.00671397
-0.00296733
-0.00277698
-0.0107659
-0.010407
-0.00904525
-0.0122395
-0.00795975
-0.0118922
-0.0152711
-0.022411
-0.0135034
-0.0148774
-0.0233552
-0.0203969
-0.0305129
-0.0348869
-0.0265544
-0.0289045
-0.0487285
-0.0454146
-0.12074
-0.0811076
-0.0836611
-0.0563522
-0.0782986
-0.0660729
-0.0932121
-0.0601938
0.0285862
0.0441976
-0.0495145
-0.0978792
-0.107248
-0.0733025
0.239285
0.205381
0.272297
0.120062
0.274009
0.120956
0.191274
0.0462015
0.109044
0.0590398
0.142339
0.141587
0.088659
0.0948945
0.460332
0.426793
0.458002
0.397824
0.378249
0.415142
0.404184
0.440285
0.449777
0.514865
0.548609
0.520351
0.48497
0.536881
0.552135
0.516448
0.486619
0.461754
0.493329
0.448085
0.44812
0.472078
0.47373
0.481347
0.479778
0.466218
0.450763
0.450059
0.457341
0.457655
0.474438
0.476656
0.432564
0.423792
0.442525
0.441591
0.42747
0.441455
0.427239
0.425745
0.441867
0.474651
0.464298
0.47764
0.456252
0.45796
0.46828
0.469399
0.446293
0.449843
0.452043
0.439732
0.437018
0.442728
0.444403
0.434105
0.434767
0.426861
0.44211
0.435761
0.431394
0.437319
0.46319
0.465563
0.468425
0.459326
0.456172
0.460704
0.463015
0.452501
0.457992
0.457242
0.456507
0.452158
0.459127
0.455812
0.471513
0.467909
0.47414
0.475942
0.478768
0.474783
0.472269
0.499064
0.497235
0.497683
0.499275
0.497565
0.496503
0.498394
0.488361
0.485528
0.485223
0.480257
0.483619
0.485423
0.482529
0.500094
0.497066
0.496642
0.49298
0.500275
0.495797
0.510251
0.507706
0.506499
0.507515
0.50995
0.50657
0.505292
0.502508
0.507582
0.505428
0.518524
0.516207
0.515216
0.395649
0.424671
0.399385
0.428087
0.457455
0.446254
0.443894
99.4521
100.004
97.4248
101.08
100.243
80.2033
98.9081
99.7088
99.2266
98.0255
102.715
103.571
103.854
103.901
103.489
104.474
104.176
101.918
103.256
102.202
1.13926
0.683193
1.13043
0.863061
1.1164
1.76764
1.0947
3.84765
3.32828
3.10502
1.88779
1.96181
1.83684
1.8105
0.580007
0.580039
0.58111
0.578309
0.577449
0.577586
0.578666
0.585425
0.584507
0.584759
0.585398
0.584537
0.58382
0.584657
0.58518
0.587624
0.583568
0.581728
0.583488
0.58445
0.583325
0.584517
0.583843
0.580386
0.579752
0.578596
0.580492
0.579357
0.578006
0.575485
0.577994
0.579861
0.574768
0.573066
0.570901
0.573322
0.571532
0.566553
0.569721
0.5684
0.570732
0.567951
0.565311
0.5623
0.564368
0.562083
0.56056
0.557581
0.376843
0.368068
0.373843
0.366951
0.373512
0.370352
0.376214
0.368818
0.361595
0.3676
0.36125
0.366806
0.364802
0.370088
0.355649
0.364263
0.362126
0.364857
0.369347
0.364953
0.359676
0.335864
0.341134
0.341904
0.346507
0.340943
0.344808
0.350768
0.364957
0.369475
0.364701
0.366034
0.370491
0.335163
0.340777
0.340971
0.339657
0.334384
0.371648
0.365853
0.372241
0.368607
0.364007
0.332613
0.339865
0.342732
0.338367
0.332761
0.318553
0.307812
0.315548
0.293284
0.281809
0.291374
0.304315
0.296661
0.332011
0.324358
0.323988
0.3217
0.327885
0.325565
0.332266
0.26385
0.272594
0.266466
0.277174
0.268293
0.277351
0.269589
0.287746
0.297593
0.296481
0.295271
0.287358
0.292785
0.300664
0.220131
0.229703
0.232483
0.249184
0.23865
0.238344
0.229864
0.154684
0.141042
0.159655
0.164266
0.153423
0.177675
0.163473
0.0183446
-0.00762855
0.0163617
-0.0255287
-0.0164088
0.00436902
0.000131471
-0.00172755
-0.0112662
-0.0108541
-0.0222304
-0.0214103
-0.0380227
-0.0363906
-0.031145
-0.0490721
-0.055647
-0.0132046
-0.00954656
-0.0275838
-0.0238815
-0.0295256
-0.00953347
-0.0713374
-0.0601148
-0.0546935
-0.0679477
-0.0492903
-0.0650144
-0.0753952
-0.104651
-0.0239986
-0.0998583
-0.0822865
-0.123378
-0.0688754
-0.246224
-0.142633
-0.205783
-0.502762
0.0687372
4.45807
-1.08661
-0.545187
2.43339
-1.32559
1017.02
1635.08
1913.48
2701.58
2685.12
2605.44
2586.79
9.6222
0.479714
22.4863
2.37301
7.21253
37.4373
66.8922
0.634519
0.565201
0.56948
7.5413
11.6181
3.48984
3.03334
1.39194
2.25903
0.492243
-0.0851743
0.165846
0.431525
-0.244565
3.47374
5.21537
7.97071
4.5644
9.25325
4.73021
15.4419
0.237987
0.218552
0.189394
0.209238
0.195656
0.163061
0.178673
0.118028
0.128454
0.14063
0.170264
0.157589
0.122659
0.13068
0.154242
0.144913
0.331339
0.306846
0.294787
0.290216
0.267206
0.289082
0.310161
0.305425
0.316375
0.295179
0.299309
0.310181
0.284166
0.292915
0.31738
0.30512
0.330776
0.321427
0.329783
0.338922
0.347725
0.379148
0.391878
0.392849
0.374056
0.372229
0.385054
0.387514
0.400436
0.395412
0.405968
0.409288
0.413809
0.406003
0.402096
0.426202
0.421438
0.421056
0.421352
0.415927
0.412091
0.418798
0.442886
0.446232
0.439655
0.439519
0.43617
0.439296
0.442019
0.435527
0.438508
0.433731
0.439754
0.443782
0.439917
0.439397
0.435937
0.433334
0.452786
0.4571
0.457193
0.45695
0.460689
0.463133
0.459348
0.456902
0.450021
0.454682
0.475485
0.472235
0.471932
0.468837
0.472162
0.466299
0.470128
0.472467
0.474199
0.469117
0.477455
0.479645
0.476217
0.474398
0.472224
0.477508
0.474106
0.485542
0.490203
0.487117
0.487405
0.488412
0.491604
0.486492
0.482641
0.486055
0.48924
0.522361
0.52223
0.527801
0.529455
0.53205
0.526597
0.531296
0.490162
0.496257
0.49013
0.473408
0.47606
0.433668
0.465824
2.6875
0.596937
5.3002
0.598792
0.862496
2.42278
4.91228
5.35936
1.52361
4.70217
6.94636
5.05844
2.47759
10.8357
104.409
104.258
104.59
104.093
104.314
103.458
104.936
103.145
103.506
103.49
103.771
103.647
103.637
0.413172
0.406079
0.409889
0.41003
0.404496
0.411125
0.406436
0.40481
0.39894
0.403144
0.402826
0.398097
0.404683
0.400675
0.394632
0.399223
0.399746
0.397865
0.401017
0.398469
0.394345
0.39909
0.397935
0.393039
0.400319
0.404769
0.401137
0.397553
0.377784
0.382806
0.38287
0.389488
0.385177
0.386636
0.382617
0.382703
0.374906
0.380444
0.382845
0.377669
0.383253
0.380836
0.385021
0.377461
0.381987
0.386674
0.381644
0.3881
0.388732
0.384167
0.380918
0.386059
0.38852
0.395826
0.393076
0.394953
0.389713
0.393058
0.387193
0.406227
0.41286
0.414201
0.399923
0.402636
0.408747
0.409808
0.511238
0.525864
0.502203
0.569317
0.55205
0.532059
0.541812
0.474593
0.441968
0.46467
0.490734
0.45881
0.462798
0.508549
0.435774
0.401051
0.324694
0.471506
0.40346
0.450629
0.548073
0.512428
0.721416
0.675763
0.682054
0.648876
113.347
70.2842
43.3337
209.77
78.0511
80.3145
91.1238
2.4449
4.86732
14.2496
0.803926
0.599071
3.05556
6.03204
0.562426
0.474992
0.397019
0.225568
0.179329
0.364386
1.07425
-0.244703
-0.411816
-0.224723
-0.0829052
-0.035433
-0.0665463
-0.0307061
-0.0733065
-0.0420629
-0.079322
-0.0892046
-0.0148879
-0.0341795
-0.0123928
-0.0236593
-0.00601322
-0.0258724
-0.0278425
-0.0300081
-0.00517338
-0.000721403
0.00112538
0.00141469
0.00200622
0.00329167
0.000983338
0.0394263
0.0574909
0.0430436
0.0350008
0.046875
0.0417233
0.0284492
0.234338
0.217997
0.225454
0.221849
0.211297
0.222911
0.232104
0.255963
0.264276
0.272944
0.255208
0.248982
0.261343
0.269355
0.287256
0.298459
0.305748
0.280883
0.271541
0.287904
0.29438
0.32128
0.327204
0.312329
0.303656
0.295863
0.309291
0.302517
0.320751
0.315072
0.278777
0.289003
0.288761
0.278717
0.287136
0.293528
0.286272
0.372784
0.376965
0.383457
0.363284
0.370289
0.370811
0.376245
0.389457
0.398649
0.396989
0.380118
0.373775
0.373242
0.367544
0.373533
0.362794
0.369953
0.40784
0.399309
0.402822
0.398896
0.406739
0.389805
0.42402
0.421384
0.429381
0.41891
0.41293
0.421614
0.423655
0.42911
0.423995
0.419179
0.442344
0.440085
0.446603
0.440585
0.435323
0.440318
0.442515
0.438912
0.439412
0.43467
0.485096
0.489303
0.484533
0.485103
0.48001
0.487849
0.483505
0.541224
0.540964
0.543719
0.541638
0.537427
0.52965
0.531781
0.53243
0.533763
0.535195
0.533498
0.532171
0.537449
0.5322
0.529089
0.519474
0.529834
0.527836
0.535073
0.530579
0.53138
0.525596
0.532389
0.534824
0.508513
0.491722
0.503448
0.496316
0.525207
0.474534
0.506018
0.384947
0.433302
0.437852
0.450901
0.446212
0.429193
0.415422
1.02892
0.965181
0.683041
1.88663
1.27549
0.716424
0.83284
104.17
104.006
103.816
102.39
102.151
102.222
101.995
102.42
102.489
102.175
103.429
103.41
103.541
103.239
102.097
103.765
101.895
101.969
102.095
101.802
101.611
101.326
102.504
101.648
102.595
102.95
0.424597
0.426953
0.424382
0.423147
0.419839
0.421752
0.424567
0.424563
0.426078
0.428547
0.42225
0.418454
0.419545
0.419635
0.42345
0.418701
0.423028
0.470824
0.472869
0.468723
0.478871
0.476291
0.473157
0.474959
0.467324
0.468024
0.473235
0.467227
0.462416
0.465784
0.470171
0.730399
0.736565
0.701518
0.778929
0.744932
0.724283
0.751761
0.739434
0.70505
0.765337
0.766971
0.737383
0.817517
0.779455
0.910462
0.914258
0.857686
0.975959
0.920426
0.890022
0.938605
0.951294
0.888867
1.01384
1.00078
0.952092
1.04904
1.10284
-0.146011
-0.440525
0.322412
-0.385309
-0.251518
0.130125
-0.25966
-0.132554
-0.0424159
-0.100031
-0.0776253
-0.0428768
-0.0503923
-0.070237
-0.0832633
-0.0473862
-0.0117219
-0.042754
-0.0202135
0.0547978
0.0222842
-0.0647904
-0.0415065
0.00138167
0.0124854
-0.00564663
0.0235935
0.0300687
0.00788868
0.0121129
0.00475599
0.00069225
-0.00649588
0.00525589
0.00476307
0.0121954
0.00465261
0.0104518
0.0119318
0.0168166
0.000590565
0.00110577
0.00609949
0.013819
0.0162775
0.00262231
0.0204939
0.0122417
0.0125362
0.00808687
0.00239862
0.00894536
0.0116465
0.0144682
0.0157118
0.0180518
0.0932297
0.106432
0.11043
0.0993417
0.111961
0.128253
0.116315
0.122833
0.110879
0.236269
0.223533
0.228595
0.226841
0.218639
0.227419
0.235385
0.261745
0.268184
0.255304
0.265305
0.259334
0.256288
0.250461
0.292214
0.284234
0.283288
0.275228
0.28383
0.268655
0.278194
0.308275
0.316572
0.316814
0.323566
0.316008
0.320359
0.328112
0.303021
0.316186
0.31178
0.346749
0.356792
0.345047
0.350197
0.342274
0.33446
0.37688
0.3739
0.383914
0.404484
0.407722
0.412776
0.406553
0.409624
0.416584
0.414714
0.522373
0.520736
0.525706
0.522732
0.524273
0.526689
0.528037
0.52431
0.525723
0.521516
0.523121
0.524378
0.52029
0.519552
0.543415
0.541985
0.539423
0.545361
0.548793
0.545351
0.542947
0.545378
0.545107
0.543852
0.548505
0.54565
0.548252
0.546006
0.550654
0.548992
0.54753
0.548838
0.551328
0.551639
0.549116
0.563301
0.56327
0.566288
0.560683
0.564826
0.566418
0.563054
0.552176
0.552397
0.555502
0.559193
0.558658
0.561415
0.561822
0.558163
0.560367
0.564623
0.562213
0.558394
0.54634
0.543623
0.540302
0.541964
0.54495
0.538875
0.543516
0.552803
0.548358
0.547097
0.556497
0.555282
0.550529
0.549988
101.772
101.534
101.922
101.422
101.526
101.39
101.449
101.319
101.487
101.011
101.865
101.594
101.852
101.67
102.252
100.965
101.557
101.579
101.796
101.808
101.119
101.674
102.202
101.122
101.585
101.912
0.453086
0.454921
0.455131
0.454487
0.455746
0.453649
0.455233
0.442728
0.444513
0.442559
0.440723
0.442689
0.43942
0.441613
0.434286
0.434385
0.431926
0.437748
0.435583
0.43635
0.434259
0.442757
0.443789
0.445796
0.430382
0.432992
0.434195
0.432217
0.435661
0.434791
0.435711
0.433795
0.434478
0.431888
0.442241
0.442459
0.43936
0.436843
0.435467
0.438711
0.437789
0.441578
0.440919
0.567263
0.652886
0.74213
0.810198
0.822777
0.731043
0.719691
0.602293
0.453336
0.5381
0.528446
0.436347
0.568313
0.505722
0.136345
0.156167
0.152849
0.159441
0.147165
0.134928
0.150784
0.0192455
0.0239753
0.0165734
0.0715474
0.0870858
0.0753374
0.0667005
0.0786253
0.0874972
0.0762196
0.0150736
0.00629147
0.0173936
0.0282748
0.0402291
0.0178478
0.00681749
0.0181811
0.0284205
0.0108691
0.00262343
0.0145206
0.00256603
0.00902484
0.00855537
0.0139989
0.0152245
0.0194001
0.0173635
0.0179222
0.0192184
0.025939
0.0105511
0.00349356
0.0165017
0.0222461
0.0136826
0.0150169
0.00498699
0.0119102
0.014302
0.00777126
0.0159756
0.0224569
0.0174239
0.134976
0.125758
0.137126
0.139917
0.144144
0.136566
0.128317
0.214127
0.2303
0.214061
0.21862
0.208469
0.198103
0.248709
0.260617
0.247284
0.244978
0.23654
0.25359
0.243903
0.236316
0.289097
0.284177
0.296923
0.330059
0.318378
0.323431
0.33515
0.332343
0.321775
0.3265
0.321247
0.311629
0.320454
0.318702
0.324571
0.311784
0.319864
0.355648
0.352633
0.351308
0.341153
0.346698
0.342688
0.347874
0.358423
0.354602
0.361702
0.361292
0.351158
0.349103
0.357857
0.378132
0.38393
0.390736
0.399438
0.394724
0.386355
0.390616
0.405834
0.407838
0.415729
0.409329
0.411434
0.420683
0.420866
0.462362
0.47033
0.470114
0.456817
0.45827
0.466176
0.466265
0.506663
0.510974
0.49961
0.495209
0.49257
0.501451
0.50385
0.500021
0.501049
0.49383
0.497006
0.49802
0.489532
0.490212
0.504836
0.512137
0.510742
0.517574
0.508901
0.554671
0.550703
0.558623
0.561001
0.56581
0.559453
0.555707
0.565942
0.561554
0.532451
0.536741
0.537682
0.544955
0.539092
0.531034
0.535829
0.539489
0.534489
0.573784
0.568944
0.574925
0.575824
0.581557
0.572591
0.577114
0.585554
0.586284
0.589997
0.583946
0.588997
0.59062
0.585958
0.569192
0.56651
0.565153
0.569897
0.565912
0.566815
0.570638
0.571876
0.569997
0.567965
0.569794
0.573559
0.569809
0.573249
0.573511
0.573768
0.577493
0.579931
0.579443
0.575693
0.57565
0.579536
0.583385
0.581465
0.582204
0.582001
0.582829
0.582801
101.502
101.23
101.45
101.714
102.381
101.765
101.231
101.93
101.952
101.291
102.113
101.789
102.45
101.504
102.042
102.902
102.547
102.017
102.174
104.436
104.357
103.947
102.369
103.443
104.24
104.034
103.48
102.784
103.576
103.998
104.149
103.542
103.444
104.408
2.26076
0.564846
2.86493
-0.846066
-0.00871808
-0.365671
2.50157
3.34271
1.10629
1.24124
1.7368
2.86068
4.42065
0.653428
0.371004
0.433225
0.731387
0.377396
0.41979
1.23154
1.09136
0.72124
0.567951
0.464133
0.468993
0.467651
0.465346
0.461854
0.433772
0.456383
0.456069
0.43471
0.418152
0.440808
0.438638
0.378495
0.408285
0.426091
0.423872
0.429206
0.416226
0.432346
0.429941
0.436016
0.437264
0.440873
0.456226
0.456536
0.456423
0.455908
0.457447
0.456841
0.456236
0.458004
0.457395
0.457265
0.456994
0.456779
0.45769
0.457485
0.454722
0.453379
0.455228
0.455514
0.454612
0.45556
0.45665
0.453103
0.455143
0.454431
0.455102
0.456682
0.453775
0.455181
0.454485
0.453094
0.455388
0.45808
0.456234
0.447616
0.449215
0.449632
0.449251
0.450711
0.450433
0.452154
0.446957
0.448762
0.449278
0.448557
0.446891
0.454571
0.455051
0.453244
0.455738
0.457144
0.455574
0.454499
0.456773
0.456517
0.454325
0.457208
0.458693
0.457332
0.455906
0.445921
0.450163
0.448609
0.453241
0.453355
0.451598
0.452232
0.361836
0.396157
0.410901
0.502768
0.479765
0.431674
0.456246
2.82966
1.26559
2.95809
0.46208
0.521304
0.536656
0.554611
0.496569
0.719696
0.72227
0.486082
0.435045
0.436722
2.31962
3.08768
3.29072
5.74721
6.9071
8.29963
5.97416
0.415086
0.415272
0.395403
0.405409
0.410472
0.407032
0.386392
0.418956
0.416799
0.429092
0.404999
0.424859
0.410678
0.42349
0.446282
0.449226
0.451095
0.435002
0.441041
0.441876
0.440774
0.559057
0.562292
0.556063
0.553525
0.556319
0.560724
0.557926
0.562504
0.559652
0.564792
0.563083
0.560819
0.565357
0.567123
0.585517
0.587593
0.580082
0.574963
0.571463
0.583421
0.585862
0.576527
0.579196
0.599906
0.599094
0.606117
0.602867
0.596644
0.599663
0.605822
0.732626
0.720993
0.743618
0.713474
0.706189
0.720706
0.728231
0.73765
0.752822
0.732707
0.724097
0.714239
0.73424
0.725006
0.798736
0.790056
0.822181
0.782646
0.768085
0.799492
0.783986
0.786378
0.796921
0.813938
0.769204
0.761124
0.829875
0.852409
0.845244
0.849179
0.827501
0.854095
0.827449
0.760772
0.748187
0.725126
0.75692
0.780979
0.756496
0.732603
0.660777
0.697933
0.647331
0.632095
0.660927
0.364035
0.353951
0.374983
0.336591
0.323684
0.342729
0.351578
0.269546
0.269644
0.27766
0.260627
0.249777
0.250998
0.26166
0.209772
0.195805
0.211041
0.208793
0.19613
0.21102
0.21937
0.142387
0.153902
0.158015
0.163712
0.155662
0.144295
0.153825
0.111395
0.129065
0.118223
0.105636
0.0926939
0.06575
0.0815458
0.0695474
0.0621052
0.0704286
0.0796434
0.0697686
0.027082
0.0184132
0.020966
0.0376679
0.0240872
0.0259914
0.0372747
0.00194313
0.00883588
0.0137554
0.0210536
0.0371075
0.0240699
0.0090063
0.018472
0.0139167
0.0234663
0.0315062
0.0208944
0.00971785
0.00970083
0.00252605
0.0142009
0.0191314
0.0371154
0.0265511
0.020532
0.017486
0.00200006
0.0132213
0.0118056
0.0741797
0.0597226
0.0636643
0.065351
0.0562505
0.0645117
0.0742615
0.0578357
0.0462903
0.0582027
0.0568854
0.0682075
0.0632568
0.0741888
0.0575542
0.0390289
0.0503959
0.099489
0.115029
0.0972448
0.103925
0.0926095
0.0823781
0.124999
0.133119
0.137664
0.153063
0.1445
0.123852
0.132388
0.142998
0.134669
0.140098
0.152135
0.136462
0.132747
0.122571
0.142031
0.133487
0.290234
0.283415
0.274014
0.260519
0.26775
0.27995
0.274023
0.262871
0.258352
0.254232
0.249108
0.260528
0.247224
0.257519
0.307802
0.31429
0.321907
0.327934
0.325037
0.317537
0.312216
0.323788
0.31121
0.312882
0.298744
0.311864
0.342656
0.347671
0.345773
0.330848
0.335616
0.338057
0.333911
0.354211
0.348896
0.3577
0.359157
0.346416
0.34353
0.354467
0.376055
0.381111
0.390756
0.400098
0.395765
0.388764
0.385592
0.434399
0.417932
0.420452
0.449998
0.448369
0.405721
0.405682
0.417717
0.406099
0.393565
0.39908
0.409944
0.435464
0.440698
0.441999
0.423703
0.425758
0.429837
0.428231
0.491555
0.478869
0.477113
0.497407
0.502297
0.485624
0.484725
0.535152
0.530577
0.544288
0.550399