/*--------------------------------*- C++ -*----------------------------------*\
| =========                 |                                                 |
| \\      /  F ield         | OpenFOAM: The Open Source CFD Toolbox           |
|  \\    /   O peration     | Version:  v2012                                 |
|   \\  /    A nd           | Website:  www.openfoam.com                      |
|    \\/     M anipulation  |                                                 |
\*---------------------------------------------------------------------------*/
FoamFile
{
    version     2.0;
    format      ascii;
    class       surfaceScalarField;
    location    "0.05";
    object      phi;
}
// * * * * * * * * * * * * * * * * * * * * * * * * * * * * * * * * * * * * * //

dimensions      [0 3 -1 0 0 0 0];
oriented        oriented;


internalField   nonuniform List<scalar> 
13152
(
7.86993e-07
2.00924e-05
-1.30718e-06
-1.95722e-05
1.85212e-05
-1.72542e-05
-4.79965e-07
-3.5088e-06
4.21224e-05
-3.46571e-05
3.52972e-05
-1.94735e-06
2.12492e-05
-7.54785e-05
2.84805e-05
-2.44855e-05
6.02689e-05
-1.60847e-05
-2.9728e-05
-2.85472e-05
7.43598e-05
3.43619e-07
-1.67298e-05
3.01483e-07
-2.99388e-05
5.54485e-07
7.75641e-06
5.15653e-06
-2.96427e-05
7.78254e-06
2.75357e-07
-5.09179e-06
-1.56729e-05
-2.98741e-05
-8.61137e-06
-1.49888e-05
-5.16611e-06
2.87663e-05
3.79311e-08
-8.6347e-06
-1.45982e-08
-1.44637e-05
-4.87178e-07
5.60684e-06
-3.04334e-05
1.61918e-05
-2.96142e-05
3.00549e-05
2.94628e-05
-6.38561e-07
-5.70475e-08
-1.53404e-05
-2.99579e-05
2.67279e-08
-7.4941e-05
2.25246e-07
1.5952e-05
3.03254e-05
-4.52484e-08
7.50436e-05
3.5812e-05
1.27446e-05
2.53418e-05
-7.38984e-05
2.83252e-07
-5.72376e-07
3.61011e-05
1.25479e-05
2.83995e-07
-1.8865e-05
7.35353e-05
7.7505e-05
2.91998e-05
-5.87893e-07
-2.94445e-05
8.32527e-07
-1.61428e-05
-2.72183e-05
7.25609e-05
2.5851e-07
-1.69892e-05
-7.85843e-06
7.7977e-06
3.19237e-07
5.20218e-06
-3.00499e-05
-4.97204e-06
-1.44485e-05
-2.92143e-05
-1.42382e-05
1.08933e-07
2.92472e-05
1.41807e-07
1.65846e-05
1.40679e-05
-1.08664e-05
-1.97862e-05
1.97763e-06
-7.10425e-06
2.17112e-05
5.23592e-06
1.08096e-05
-1.57903e-05
1.16454e-06
7.52153e-06
1.19733e-05
-3.863e-05
3.30796e-06
-2.20825e-06
4.13621e-06
4.37468e-06
9.74288e-06
-8.20719e-06
1.37464e-05
1.55787e-06
-1.91464e-07
2.48949e-06
-7.23887e-07
-1.57414e-06
4.06063e-06
-1.62068e-06
-2.63141e-06
-2.99035e-06
-4.53949e-06
7.62497e-07
1.82905e-07
-2.56608e-06
4.93374e-07
-4.54764e-07
-2.59063e-06
9.36519e-08
-6.94721e-06
-8.08845e-07
-1.79726e-06
-2.07675e-07
2.81378e-06
-4.85415e-07
-6.71847e-07
3.48416e-07
-1.98311e-06
-2.99562e-07
3.56108e-06
2.13205e-06
-7.67624e-06
3.26578e-06
-4.2608e-09
-1.70046e-06
4.75856e-06
-2.4026e-07
2.17876e-06
2.39089e-06
2.60755e-06
-7.1772e-06
4.77755e-07
2.46026e-06
-7.59249e-07
2.30021e-06
5.68435e-07
-5.82737e-07
2.79725e-06
2.45744e-07
2.27875e-06
-2.5393e-07
-2.44308e-06
7.54054e-06
4.04103e-07
8.04126e-08
-2.22052e-07
-4.49634e-07
5.91274e-07
-3.11485e-07
-6.38547e-07
1.03045e-06
-2.23468e-07
-3.10069e-07
5.23135e-07
-3.70276e-07
-7.91405e-07
-6.07082e-07
6.80583e-07
-4.95399e-07
-3.35151e-07
-1.17574e-06
1.322e-07
3.64957e-07
-1.49794e-07
-3.47363e-07
2.05443e-07
-4.06228e-07
3.32987e-07
-7.37854e-07
1.30826e-06
-1.28453e-07
5.11698e-07
-5.33038e-07
4.22012e-07
-8.97825e-07
-1.98604e-07
2.14388e-07
-4.24757e-07
9.83841e-06
4.08208e-06
-5.98465e-06
-7.93583e-06
-4.70495e-06
-5.63085e-06
2.01742e-05
3.86169e-06
-4.48456e-06
-2.88463e-06
-1.52976e-06
8.27608e-06
-1.28706e-05
5.50138e-06
-9.96649e-06
2.80587e-06
-2.88217e-05
-2.57081e-05
-1.77598e-05
-3.76766e-06
4.72355e-05
1.0779e-05
-1.30291e-05
-2.34579e-05
-6.77484e-06
-2.05946e-07
-4.97726e-06
2.69933e-05
-3.50451e-05
9.8835e-06
-3.83187e-05
2.78915e-05
-2.47828e-05
5.11171e-05
-3.10903e-08
3.19188e-08
-5.45958e-09
4.63102e-09
6.33526e-08
3.08781e-08
-1.25321e-07
5.54136e-08
3.98579e-08
-2.94899e-08
9.72683e-08
-3.69003e-08
-3.99245e-09
-3.0957e-08
-1.41025e-07
2.93707e-07
-1.0516e-07
-2.43574e-07
-2.7467e-07
3.20976e-07
1.97267e-07
-1.46053e-07
2.53794e-07
-3.51314e-07
-1.07341e-07
-3.13382e-07
-6.30817e-07
1.20559e-06
-2.00576e-07
-5.37583e-07
-8.65271e-07
-9.88665e-06
7.10478e-06
7.48993e-06
-4.70806e-06
1.49083e-05
1.07011e-05
2.22773e-05
1.07702e-05
1.12429e-05
3.41349e-06
2.04232e-06
5.24532e-06
4.22839e-06
2.14624e-05
-4.89237e-07
1.54878e-05
9.04301e-06
2.64374e-05
-2.26514e-07
-2.48096e-05
-1.40128e-06
-2.53217e-05
-2.74918e-05
7.92509e-05
1.42729e-07
-2.56909e-05
-2.83572e-05
2.80187e-05
4.8122e-07
2.73082e-05
-8.13563e-05
-2.83562e-06
3.36251e-06
-3.37026e-07
-1.23751e-06
-2.1752e-05
9.19228e-06
1.37972e-05
-1.35851e-05
6.21513e-06
6.13244e-06
1.67296e-05
2.48525e-05
2.34724e-06
8.44989e-06
-4.58199e-06
3.07099e-06
8.46853e-06
1.13677e-05
1.38118e-05
3.92912e-05
1.08252e-06
1.02218e-06
-1.22074e-06
-8.83962e-07
4.60303e-07
-2.46879e-06
3.09101e-06
-1.40485e-06
2.88732e-06
1.81017e-07
2.29999e-06
-3.70175e-06
1.66864e-06
-2.37159e-06
1.6003e-06
-2.40045e-06
2.49544e-06
-1.23986e-06
-3.58056e-07
-1.97755e-06
3.57547e-06
1.53324e-06
-1.71526e-06
-1.05784e-06
-3.16551e-06
4.3407e-06
5.68052e-07
2.96449e-06
-5.2478e-06
2.11476e-06
-2.60454e-06
1.64549e-06
-2.69625e-06
2.63243e-06
1.37493e-06
4.34939e-06
-3.92205e-07
-5.33211e-06
1.1768e-06
-9.24039e-07
1.12217e-06
1.32709e-06
4.19909e-06
3.15625e-06
-4.85169e-07
-3.59512e-06
3.25055e-07
3.95336e-06
-3.96329e-06
5.61544e-06
-4.84067e-06
-1.09159e-06
-2.26504e-06
-2.358e-06
5.71463e-06
-1.47231e-06
-3.57379e-06
3.95451e-06
-2.4002e-06
-1.33715e-06
-3.95787e-07
-1.29031e-06
-6.71911e-07
-1.36967e-06
-2.5999e-06
1.88668e-06
2.2062e-06
-6.49308e-06
3.20149e-06
-2.65196e-06
4.85939e-07
3.50587e-07
2.39713e-06
1.43951e-06
-2.02085e-06
-1.06834e-06
1.64969e-06
-5.66915e-06
1.97935e-06
5.1293e-06
-3.60872e-07
-7.32913e-06
4.15084e-06
-1.26467e-06
3.27473e-07
5.47305e-06
-5.30717e-06
7.614e-06
-6.93272e-06
-2.09666e-06
-2.01773e-06
-3.61963e-06
7.73402e-06
-1.50992e-06
-5.26358e-06
4.67684e-06
-1.38109e-06
-2.14656e-06
-6.57596e-06
-5.11465e-06
8.07098e-06
-3.65942e-06
-8.18014e-06
-2.2099e-06
4.32675e-06
-3.49794e-06
4.1464e-06
-8.50286e-06
-2.90178e-06
3.38876e-06
-3.68968e-06
-2.28572e-06
-5.25002e-06
-5.75692e-06
1.32926e-05
-3.52033e-06
-8.46021e-06
9.69482e-06
-5.79099e-06
-2.97937e-06
-1.02602e-06
-3.16389e-06
-1.56702e-06
-3.45395e-06
-6.03229e-06
5.1249e-06
5.97009e-06
-1.6886e-05
7.98537e-06
-5.83985e-06
-1.35716e-06
6.17865e-06
1.15898e-06
4.02551e-06
1.17685e-05
-1.22637e-06
-1.45676e-05
4.38275e-06
3.3544e-06
-3.71165e-06
2.31314e-06
1.38381e-05
-9.81291e-06
1.8319e-06
1.13354e-05
-3.82975e-06
-1.02616e-05
1.44067e-05
-1.53178e-05
6.11785e-06
4.26787e-06
-6.38138e-06
-4.00434e-06
-3.0042e-06
-7.85312e-06
1.69752e-05
-1.54839e-05
1.67475e-05
4.83596e-06
7.51186e-06
-1.87292e-05
1.38438e-05
-1.30122e-05
-1.15071e-05
1.74978e-05
-1.94791e-05
8.44209e-06
-4.69945e-06
-6.19249e-06
2.44986e-06
-2.23567e-05
2.98176e-06
2.7817e-05
-4.42905e-06
-2.26271e-05
1.24257e-05
-1.87067e-06
3.71827e-06
1.11573e-05
-1.4068e-05
2.0768e-05
-2.03677e-05
2.92502e-05
6.33579e-06
-5.32385e-06
-3.02621e-05
-1.15484e-05
4.71287e-06
3.60857e-05
4.58387e-06
-9.79644e-06
-2.08893e-05
-5.13654e-06
3.06097e-05
-4.32156e-06
-2.63641e-05
2.08344e-05
-3.04798e-05
2.04107e-05
5.52802e-06
-1.81022e-06
-4.6346e-06
9.16801e-07
-1.18522e-05
2.12515e-08
1.7359e-05
-5.16339e-06
-8.49903e-06
8.66098e-06
1.66009e-07
-1.34616e-05
4.78344e-06
4.79436e-06
-1.02133e-05
1.5018e-05
-1.52107e-05
2.5834e-07
-3.45399e-06
-6.15779e-06
9.35344e-06
-4.35392e-06
-8.84933e-06
-5.00663e-06
-2.80129e-06
5.15736e-06
-5.60059e-06
-8.4061e-06
-9.88723e-06
8.88679e-06
-2.90324e-07
-1.46035e-05
-8.6922e-06
-2.52416e-06
2.69787e-06
3.04997e-06
-3.22368e-06
7.62905e-06
-4.86936e-07
-9.66627e-06
2.1677e-06
8.15921e-06
-9.47573e-06
2.13684e-06
1.03889e-05
-1.36402e-06
8.15583e-06
-1.00068e-05
1.24604e-05
-2.25157e-06
-6.38588e-06
1.3496e-06
7.28784e-06
-2.08959e-06
-2.62399e-06
2.46201e-06
-9.20235e-07
-7.55523e-06
7.66548e-06
-7.47433e-07
-9.54204e-06
2.03431e-06
8.09318e-06
6.44398e-06
-8.11165e-06
9.82791e-06
-1.98222e-06
2.12221e-06
2.24432e-06
-2.38432e-06
5.86027e-06
-2.7132e-06
2.05472e-06
5.92776e-06
-6.86209e-06
2.64583e-06
6.46058e-06
-1.86966e-06
-7.37675e-06
-1.84061e-06
1.18034e-07
4.3684e-06
2.71264e-07
-3.98154e-06
1.69375e-06
-4.13568e-06
3.8665e-06
-1.02423e-06
1.41605e-06
-1.54927e-06
1.15745e-06
3.57387e-06
-3.99013e-07
5.63013e-07
4.42691e-06
4.06997e-06
-1.46185e-07
1.10412e-06
4.12329e-06
3.78826e-06
-4.33346e-06
5.4554e-06
1.12191e-06
-3.38859e-07
-1.01686e-06
2.33815e-07
-2.92031e-06
4.44269e-08
3.99779e-06
-1.18344e-06
-2.07573e-06
2.13515e-06
4.44229e-07
-3.59624e-06
1.07458e-06
1.29439e-06
-2.99331e-06
4.11231e-06
-3.73252e-06
8.4002e-08
-1.06293e-07
-2.04493e-09
2.43364e-08
-9.34619e-09
-2.19973e-08
1.15345e-07
1.34569e-07
-2.50209e-07
3.04674e-08
-3.2024e-08
-4.88308e-10
-7.54852e-08
8.39553e-08
-5.07879e-08
6.36297e-07
-4.5094e-07
-2.67482e-08
-2.74249e-07
-7.83146e-09
5.68643e-07
-6.66036e-08
-1.02075e-06
-1.02482e-05
1.09083e-06
1.01781e-05
-1.02905e-05
-2.26921e-06
1.15389e-05
-1.67012e-05
-3.83747e-06
3.33669e-06
-5.86067e-06
2.54768e-07
-1.76991e-06
6.19743e-06
1.48341e-05
-3.7396e-05
9.22672e-06
-2.61219e-07
-8.30745e-07
-1.0119e-06
2.10387e-06
-6.24226e-07
-1.47476e-06
1.83777e-06
-1.07393e-06
-3.81044e-07
1.04207e-06
6.71492e-07
-2.78749e-06
2.80883e-07
3.80148e-07
2.71213e-06
-1.20242e-06
-2.98447e-06
-5.88788e-07
2.28902e-06
3.62781e-07
-8.93709e-07
5.48765e-08
-8.36136e-06
1.99916e-05
-9.12921e-08
8.01417e-06
2.82605e-05
-9.41718e-06
-5.35798e-06
1.22965e-05
2.47871e-06
4.68552e-06
-5.59205e-06
-8.51065e-06
-7.2346e-06
6.56213e-06
7.23855e-07
1.79171e-06
-8.10761e-06
1.02664e-06
-8.81343e-06
-1.71853e-06
-4.48942e-06
1.23696e-05
-4.2217e-07
1.37891e-07
5.94988e-07
-3.10709e-07
5.22203e-07
7.29753e-07
-1.67413e-06
4.85322e-07
1.74773e-07
8.11577e-09
5.32131e-07
1.89507e-07
7.06914e-07
-1.03809e-07
-3.12656e-07
1.50489e-06
3.94247e-07
3.67371e-06
5.10302e-07
-2.56457e-06
-1.61944e-06
-1.86243e-06
2.54141e-07
5.282e-06
-2.10515e-06
7.53022e-07
1.05942e-06
-6.57439e-07
-2.96656e-06
-5.09039e-07
1.82261e-06
5.3482e-06
2.74844e-07
-7.72819e-06
2.77084e-06
3.33038e-06
-1.22633e-06
3.48813e-06
-1.60893e-06
-7.6806e-07
2.16114e-07
-1.07469e-07
6.59415e-07
1.79158e-06
8.74629e-08
-2.64711e-06
9.46605e-07
1.06109e-06
1.40346e-06
-5.21893e-07
-9.8904e-07
-1.8506e-07
2.24793e-06
1.89391e-06
-2.32835e-06
2.65546e-06
4.78957e-07
2.72315e-07
1.01514e-06
-1.76641e-06
-6.48593e-06
4.00669e-06
2.9582e-06
2.33127e-06
-8.54489e-06
7.63813e-08
2.00006e-07
3.73031e-06
-2.66014e-06
5.69472e-06
-1.69651e-07
-1.59219e-07
1.04549e-06
-9.43676e-07
1.92976e-07
-2.94356e-06
3.69426e-06
6.56404e-07
-2.89282e-07
-1.3108e-06
-9.17031e-07
8.01173e-07
1.31431e-06
-2.40476e-06
-1.7105e-07
-3.38577e-07
2.02719e-06
2.2009e-06
-2.91378e-06
1.41591e-06
4.4023e-07
3.38697e-06
-2.88809e-06
2.6443e-06
1.06458e-05
5.66156e-06
-3.98885e-06
-1.23185e-05
6.43199e-06
1.94348e-05
-1.5221e-05
2.74356e-06
9.34999e-06
3.32174e-06
-1.7245e-06
-5.58609e-06
6.67431e-06
1.60822e-05
-2.09358e-08
3.79135e-06
-1.02685e-06
-1.03923e-05
1.97214e-05
-1.4879e-06
-2.2301e-06
5.78954e-07
-3.89782e-09
-1.09228e-07
-3.75111e-08
1.50637e-07
-2.45349e-07
9.31744e-08
1.48277e-07
-2.41324e-07
-1.13254e-07
1.81292e-08
-3.44376e-07
4.19421e-07
-2.20221e-07
2.00839e-07
6.32157e-07
-1.21786e-06
2.98683e-07
4.76617e-08
7.18472e-08
-1.19997e-07
1.81204e-09
5.89973e-08
-1.31477e-08
9.79956e-08
-1.03627e-07
3.16968e-07
3.93255e-08
-3.37168e-07
3.55736e-08
8.70238e-07
-3.88736e-08
-2.58969e-07
-1.64477e-08
-2.03049e-07
7.72284e-06
4.6453e-06
1.57881e-06
-1.39469e-05
5.32397e-06
-1.12164e-05
1.36153e-05
-6.808e-07
1.06501e-05
-8.92323e-06
8.68623e-06
-4.438e-07
1.85314e-06
-1.26298e-07
8.52094e-06
-1.10512e-05
1.19529e-05
8.80388e-06
2.51867e-06
1.72402e-06
-1.30466e-05
-4.62779e-06
9.1243e-06
4.30737e-06
7.35673e-07
-2.8448e-06
1.17523e-06
-4.46927e-06
4.02971e-06
4.87021e-06
-6.53978e-06
1.15636e-06
3.49866e-06
7.7506e-06
3.49582e-07
1.69049e-06
-9.25813e-07
-1.11426e-06
7.90256e-07
-8.07019e-07
3.66347e-07
3.60142e-07
2.12061e-06
1.81143e-06
-3.28594e-07
-2.28986e-06
9.80963e-07
1.19682e-06
4.91412e-07
1.54221e-07
-9.74221e-07
1.46339e-07
1.32604e-06
-4.73568e-07
9.80055e-07
-1.24516e-06
-1.40429e-06
-5.98811e-07
-3.80641e-08
2.04117e-06
1.81063e-07
-2.52741e-07
-1.33261e-06
-6.63899e-07
2.4615e-07
1.61507e-06
7.99753e-09
-2.28697e-06
8.38972e-07
1.02225e-06
1.73995e-06
-1.9847e-06
2.54086e-06
3.72824e-07
1.80522e-06
-5.59634e-07
-1.61841e-06
6.49593e-07
-6.09481e-07
3.32712e-07
4.16962e-07
2.03786e-06
1.52384e-06
-3.6533e-07
-1.76799e-06
6.94833e-07
1.16172e-06
4.14149e-07
4.69979e-08
-8.26473e-07
8.58102e-08
1.02318e-06
-4.46632e-07
9.49407e-07
-9.59266e-07
9.10593e-07
-7.10479e-10
-9.9003e-07
8.01479e-08
-1.41778e-06
-4.92841e-07
2.82121e-06
-8.35708e-07
-5.82795e-07
1.67193e-06
1.08336e-06
-3.74533e-06
8.33997e-07
9.18078e-07
-1.09408e-06
1.43524e-06
-8.4644e-07
-7.02805e-08
-1.08379e-06
1.74712e-07
9.79361e-07
-1.44457e-06
1.04798e-06
3.26313e-07
1.54653e-06
-4.0749e-06
9.60354e-07
-1.06045e-06
2.74807e-07
-8.44724e-07
2.78444e-06
-3.9972e-07
6.02978e-07
8.63648e-08
-1.00898e-06
2.16489e-06
-2.26741e-06
1.11149e-06
5.0394e-06
-1.12929e-06
-4.9191e-06
2.18031e-07
6.98626e-06
5.49567e-06
-2.29356e-07
-7.53373e-06
2.69938e-06
3.90777e-06
5.67868e-06
-7.03733e-06
8.5961e-06
2.28454e-06
2.27541e-06
2.57971e-06
-7.13966e-06
1.67438e-06
4.34842e-06
-3.73827e-06
1.43635e-06
2.51344e-06
-5.04662e-06
2.28405e-06
7.11099e-06
4.8151e-06
-7.28202e-06
3.31953e-06
2.93191e-06
8.117e-06
-4.81455e-07
2.03866e-06
6.37384e-07
-2.19459e-06
4.24823e-06
-2.05713e-06
-2.67254e-06
-4.33436e-07
6.72033e-06
-4.73665e-06
2.92875e-06
2.44529e-06
2.40351e-07
-7.17157e-06
5.56525e-06
-7.38202e-06
8.06058e-06
4.01492e-06
2.14769e-07
-2.42104e-06
-1.80865e-06
-2.31726e-06
-5.77526e-08
6.38993e-06
1.25314e-07
-2.22781e-06
1.03976e-06
-6.48522e-07
-2.81228e-06
-6.88552e-07
1.67054e-06
-3.65044e-06
2.60123e-06
1.17453e-06
-5.81546e-09
-5.87244e-06
-1.01089e-06
2.92356e-06
-1.66523e-06
3.67766e-06
-2.45897e-07
-1.93037e-06
-1.50139e-06
-2.10184e-06
-7.69298e-07
6.5488e-06
-1.74669e-07
-2.17306e-06
-3.66957e-06
3.66072e-06
-1.65814e-07
8.20876e-07
-6.66348e-06
-4.9575e-06
7.84894e-06
-6.06698e-06
-1.44804e-06
-4.03644e-07
3.26539e-07
1.52515e-06
2.56759e-06
2.83143e-06
-6.84707e-06
2.3479e-06
-1.83966e-07
6.59379e-07
-6.31938e-07
2.99092e-07
-5.27643e-07
2.71216e-06
4.26006e-07
1.77349e-06
2.24625e-06
4.07012e-07
2.11103e-06
-4.11807e-07
-2.10624e-06
2.47849e-06
-2.19609e-06
1.24602e-07
-2.69236e-06
7.28188e-06
-2.50891e-06
1.91309e-06
2.27389e-06
-6.88903e-06
8.43383e-07
-7.65582e-07
6.41113e-08
-5.58928e-07
-1.98553e-06
3.65967e-07
2.17849e-06
-2.94051e-06
2.81518e-06
-4.33597e-07
2.77036e-06
-7.69639e-06
7.4728e-07
-7.14359e-07
3.33047e-07
-6.19523e-07
3.54529e-06
-5.31163e-07
2.72682e-06
1.52485e-06
7.04835e-07
2.08763e-06
4.06487e-07
-3.19895e-06
3.24803e-07
6.82711e-07
-3.02679e-07
1.97809e-06
4.34345e-07
6.54894e-07
2.61036e-06
-2.85877e-06
2.76088e-06
-1.42327e-06
-2.95741e-06
8.73091e-08
-1.37272e-06
-2.8312e-06
7.74922e-06
4.85189e-07
3.80816e-07
4.78933e-07
-2.64911e-06
-6.88579e-07
-1.247e-06
-7.09507e-06
-1.71968e-06
-2.05062e-06
-1.78078e-07
3.94838e-06
-3.79858e-07
-8.23478e-07
-5.16347e-07
-4.4307e-07
-1.98741e-06
2.44548e-06
-2.20652e-06
-1.06244e-06
-3.50816e-06
5.77556e-06
-3.66559e-06
-2.85645e-07
-7.85952e-06
5.39115e-07
1.99248e-06
-2.01249e-06
-5.19108e-07
7.61607e-07
-9.73504e-07
7.51017e-07
-1.26758e-06
4.02169e-06
2.27498e-06
3.60605e-06
-7.89352e-06
2.58716e-06
-8.31267e-07
-2.57139e-07
2.8897e-06
2.92168e-06
-2.74146e-06
5.70808e-07
-3.68112e-07
-2.65129e-06
-2.93531e-07
2.64698e-06
2.97834e-07
3.73851e-06
1.88475e-06
-8.27455e-06
3.29669e-06
1.48287e-07
-8.90204e-07
-2.09725e-07
3.7469e-06
-9.62707e-07
3.70329e-07
-3.53763e-07
-1.09582e-06
1.23986e-06
-1.67113e-06
3.54661e-07
1.69411e-06
-1.4805e-06
3.89497e-06
-4.72821e-06
-4.62219e-06
-3.63766e-06
4.9506e-07
-3.98341e-06
-1.26561e-06
-2.86152e-06
-3.05892e-06
-2.08412e-07
-3.96988e-06
-2.82657e-06
-4.09047e-07
3.74091e-07
3.89344e-06
-8.20051e-06
-4.85487e-07
-2.37479e-07
3.21722e-06
-1.01725e-06
-1.96249e-06
4.9708e-06
-1.92312e-06
-3.28516e-06
-5.52832e-06
-4.02078e-06
-8.50007e-07
2.97313e-07
-4.64556e-07
1.55568e-07
-2.9287e-06
2.72595e-06
-8.09871e-06
-9.97517e-07
3.64596e-07
-3.18718e-06
-5.63249e-07
3.38584e-06
-5.18409e-06
3.835e-06
1.71368e-06
-2.11923e-07
-8.15935e-06
6.08082e-06
-3.56821e-06
-3.07586e-06
1.43349e-07
9.32331e-06
1.56473e-06
-8.81598e-07
-4.25134e-06
-9.47621e-07
2.6557e-06
-1.51947e-06
4.40685e-06
-2.61297e-06
-4.51188e-06
-1.96061e-07
2.28543e-06
2.42252e-06
2.79534e-06
1.22566e-06
-8.53288e-06
-4.20863e-07
3.02016e-06
4.86699e-06
-2.02938e-06
-3.25847e-06
-1.43662e-06
9.32377e-06
3.5644e-06
-4.36811e-06
4.41322e-06
3.43564e-06
1.48721e-06
-3.4579e-06
-1.46495e-06
-3.94075e-06
-2.89085e-06
1.02672e-05
-5.71201e-06
3.74603e-06
2.49242e-06
-9.69636e-06
6.91832e-06
-4.63724e-06
-7.44179e-06
1.14693e-05
-1.06614e-05
2.90229e-06
6.67874e-06
-2.48821e-07
-9.33221e-06
1.26506e-06
-1.23397e-06
2.8712e-06
3.64552e-06
4.29828e-06
6.31051e-06
-1.65893e-06
-5.88555e-06
3.93363e-07
8.78834e-06
-7.06909e-06
1.1108e-05
-8.97685e-06
-1.92204e-06
-2.49803e-06
2.17509e-06
2.24498e-06
-1.07497e-06
-4.98276e-06
-7.55454e-06
-2.35695e-08
6.56707e-06
6.08791e-06
-6.31341e-06
-2.06919e-06
1.89456e-07
8.19314e-06
1.27117e-06
-3.27402e-06
-4.31056e-06
-2.34178e-06
1.54376e-06
6.20566e-06
4.23621e-07
-8.97107e-06
2.11726e-06
5.63217e-06
7.30983e-06
-1.01602e-05
9.61654e-06
-5.23922e-06
-2.95655e-06
-9.06192e-07
9.10196e-06
4.0696e-07
-2.29639e-06
-3.3498e-06
4.65096e-07
-3.0147e-06
-4.80429e-06
2.54929e-06
2.7201e-06
2.74466e-06
-1.05637e-05
3.72219e-06
-3.27392e-06
5.36527e-06
-4.72868e-06
-4.28649e-06
-4.9763e-06
1.39915e-05
-1.21226e-06
-4.48755e-06
9.71129e-07
-9.73234e-07
-4.52552e-06
-4.43697e-06
4.36812e-06
-9.04387e-07
6.4099e-06
-1.53724e-05
1.36309e-06
5.59256e-07
7.54901e-07
1.59972e-06
1.91353e-06
2.01768e-06
-5.53093e-06
-6.9914e-07
6.47548e-07
1.65131e-06
2.9642e-06
-1.74981e-06
2.64983e-06
-3.49628e-06
1.494e-06
-1.21486e-06
5.516e-06
-4.07465e-06
5.82399e-06
-5.55326e-06
-3.62504e-07
-1.48586e-06
3.46873e-07
1.50149e-06
-1.66545e-06
2.2065e-06
-9.03557e-07
9.00993e-07
-4.05231e-06
1.69128e-06
-1.95791e-06
6.13507e-07
-7.04478e-07
3.89724e-06
4.91523e-07
-6.68886e-07
-1.78056e-06
-6.67111e-07
4.54154e-07
-4.84544e-07
2.02393e-06
-2.52443e-07
1.67583e-06
1.08095e-06
1.17852e-06
-3.93531e-06
2.34286e-08
8.65866e-07
7.86539e-07
1.04345e-06
6.09328e-08
-9.16209e-07
7.83914e-07
9.98159e-07
9.5544e-07
-6.93134e-07
-1.54036e-06
3.36772e-06
-5.23995e-07
4.74762e-07
-4.14769e-08
-4.32097e-07
-1.18871e-09
-2.96167e-07
-2.65118e-07
1.03604e-06
-3.46251e-07
8.60402e-09
8.19923e-07
1.99916e-07
-1.36609e-06
6.50255e-07
1.78265e-07
-1.03301e-06
1.41814e-06
-1.2652e-06
-3.38893e-07
-3.40136e-07
-3.48357e-07
1.02739e-06
-1.7839e-07
-5.95657e-07
4.35156e-07
-1.25361e-07
-3.9316e-07
-7.17376e-07
-6.15488e-07
9.84509e-07
-1.97977e-07
-1.11505e-06
-5.45732e-07
-1.95115e-07
-1.13686e-06
4.4815e-07
1.48051e-07
-6.2446e-08
-5.33755e-07
-1.45219e-07
1.72489e-08
5.76121e-07
1.8705e-07
-1.84216e-07
-7.78756e-07
2.15689e-07
7.50118e-07
-1.42023e-08
-9.48765e-07
7.64663e-07
-8.41308e-07
9.97603e-07
1.7413e-07
-9.8891e-08
-2.03065e-07
1.27827e-07
-2.4067e-07
-2.81049e-07
6.9585e-07
-2.31388e-07
-1.08173e-07
1.95038e-07
-2.52972e-07
-1.45131e-07
-1.79756e-07
9.37433e-08
2.63673e-07
-7.48033e-07
-2.42548e-08
-3.73159e-07
7.81078e-08
1.45341e-07
1.4971e-07
2.37954e-07
2.07092e-07
-8.18204e-07
7.95913e-08
2.36472e-07
3.32484e-07
-2.35541e-07
-1.73518e-08
-3.15993e-07
8.8495e-07
8.05236e-07
3.08345e-07
-9.06487e-07
1.84897e-07
7.65683e-07
3.42197e-07
-2.69391e-07
2.11101e-07
-4.01492e-07
-3.37852e-07
-1.4979e-07
8.89134e-07
-1.48588e-07
-2.70255e-07
-4.1781e-07
-6.86283e-08
1.15277e-07
3.63713e-08
-5.69458e-07
8.87975e-08
-4.21476e-08
1.24573e-07
2.01744e-07
-2.89945e-07
4.52552e-07
-2.39181e-07
7.63102e-07
-8.31611e-07
1.06587e-06
-5.8312e-07
1.08747e-07
2.48424e-07
2.25949e-07
3.37889e-07
4.85927e-07
-1.40694e-06
1.1176e-07
3.34879e-07
2.91733e-07
-6.63537e-08
-1.13619e-07
1.99143e-08
6.06698e-07
-3.95906e-07
2.22114e-07
4.22219e-07
2.78194e-07
-1.88169e-07
-6.04457e-07
8.46486e-07
-3.92616e-07
-2.17778e-07
-3.07545e-07
1.13202e-06
-2.66524e-07
-6.48727e-08
1.9201e-07
1.51963e-07
-6.10497e-07
1.67309e-07
-4.0171e-08
6.33144e-08
-3.03966e-07
5.70759e-07
-3.40136e-07
1.1097e-06
-9.45996e-07
1.14828e-07
5.46703e-07
2.84466e-07
6.92287e-07
6.50737e-07
1.65299e-07
6.41816e-07
5.28832e-07
2.87205e-07
-3.12288e-07
1.48294e-06
5.2162e-07
-7.19496e-07
-2.86352e-07
8.71459e-08
9.18702e-07
-1.48674e-07
-2.29506e-07
-3.41317e-07
-1.65007e-06
5.26856e-07
-4.35041e-06
1.30249e-06
-7.40346e-07
-1.34108e-06
7.78927e-07
-9.00535e-07
-7.10753e-07
-1.51765e-06
-1.23236e-07
6.60345e-07
-3.02827e-06
-9.77941e-07
9.27533e-07
2.33798e-06
-6.8839e-06
1.23681e-06
1.96224e-06
5.5186e-06
8.05434e-07
8.15488e-07
-1.65217e-06
-7.72058e-06
-6.5524e-06
-3.22414e-06
-1.00787e-05
-2.10504e-06
1.85883e-07
5.08551e-06
4.2988e-07
-2.87109e-06
8.66983e-07
-6.51316e-07
4.86985e-06
7.20674e-07
5.7619e-07
1.18945e-05
-8.306e-08
-1.46825e-05
-1.07532e-06
-1.50425e-06
1.14961e-06
-1.01112e-06
-1.42283e-05
-4.89946e-06
1.68977e-05
4.25783e-06
-2.40392e-06
-1.11932e-06
4.77678e-07
-1.83556e-06
1.24527e-05
-9.40209e-06
-3.50153e-06
-1.10117e-05
4.09483e-06
1.93695e-05
-2.12423e-05
8.285e-07
7.61253e-06
3.7403e-07
-2.92288e-05
6.03712e-06
9.32914e-06
8.028e-07
6.20164e-06
2.56391e-07
9.50853e-08
-5.60331e-07
1.23614e-06
1.95714e-07
-5.01461e-07
-6.39326e-07
9.45073e-07
6.33649e-07
6.73542e-07
-1.11148e-06
-1.27518e-07
2.59706e-07
6.12856e-08
-2.02818e-07
1.4015e-08
8.55491e-08
2.35442e-07
5.27355e-07
-5.66314e-08
-2.64222e-08
-2.9616e-08
-3.23951e-07
1.6968e-07
1.83887e-07
-1.80674e-07
3.21991e-08
1.18858e-07
-8.77011e-08
-4.16923e-07
8.88528e-09
-2.83118e-07
4.43912e-07
-7.17032e-08
1.12788e-07
-4.36937e-07
7.12194e-08
2.78017e-07
-8.97694e-08
-7.64091e-07
-6.49034e-07
6.4855e-07
-1.02192e-06
-8.82514e-08
5.70822e-07
1.43395e-07
1.15813e-06
-3.65442e-08
2.72706e-08
-3.99541e-10
9.67308e-09
6.63236e-08
1.75117e-08
-1.20379e-07
1.84034e-08
7.51908e-08
5.48432e-09
2.58955e-08
-3.17793e-08
2.44095e-08
-1.41349e-09
5.8479e-08
1.87876e-08
-5.88632e-08
-3.4025e-08
1.67695e-07
-1.31424e-08
5.0128e-09
3.00548e-08
1.00971e-07
5.2095e-08
9.13249e-08
-2.44391e-07
1.32638e-08
2.76111e-08
6.00957e-08
7.93739e-08
-1.38469e-08
6.50173e-08
-2.35593e-08
2.08466e-08
-7.83578e-09
3.22652e-07
3.07593e-08
2.75234e-08
3.76636e-07
6.40597e-08
4.61542e-07
-1.1699e-08
3.3232e-08
-2.08111e-08
-7.21884e-10
3.75736e-08
9.64667e-09
-5.89193e-08
1.18827e-07
-4.80217e-08
2.57973e-08
-3.18529e-08
-1.47555e-08
6.87836e-08
-3.33396e-08
-3.4845e-07
5.3606e-07
-4.28324e-07
-4.56542e-07
6.46433e-07
-1.59131e-07
-5.99343e-07
1.04005e-07
3.8795e-08
-1.17733e-08
1.32048e-07
2.38737e-08
-1.27299e-07
2.64359e-07
-4.96768e-08
2.63835e-08
-1.78753e-07
2.30999e-05
2.79874e-05
-1.31713e-06
-4.97701e-05
-1.26183e-05
1.91103e-05
1.66079e-05
9.24212e-06
6.12701e-06
2.6375e-05
-7.22592e-06
1.42719e-05
2.87109e-05
9.35025e-06
1.41638e-05
8.072e-07
-6.03623e-06
6.68628e-06
1.5808e-06
-2.23084e-06
9.99126e-06
-9.67732e-06
-6.35017e-06
-6.94192e-07
1.73717e-05
-1.45323e-05
3.69976e-06
1.01383e-05
2.5246e-06
3.14821e-07
1.81984e-05
-2.4176e-05
2.23038e-05
1.19626e-06
1.28141e-06
1.41012e-06
-3.8878e-06
8.34122e-07
1.58952e-06
-1.22738e-06
1.97259e-06
1.42944e-07
-3.26733e-06
-1.14407e-06
5.82152e-06
-8.83419e-07
-7.94394e-07
-4.15383e-06
4.98234e-06
-4.89431e-06
1.91938e-07
-1.01398e-06
1.02973e-06
-2.07692e-07
-1.01624e-06
1.09625e-06
1.11934e-07
1.14214e-06
-3.17236e-06
-1.68273e-06
-1.72464e-06
4.50362e-06
-9.09532e-07
-6.61255e-07
1.55401e-07
7.72153e-08
-5.39496e-07
-2.16135e-06
3.73468e-07
2.01992e-06
-2.32045e-07
1.43871e-06
6.53454e-07
-4.25351e-06
1.66408e-06
1.48099e-07
3.10292e-06
1.73935e-06
-4.18882e-06
3.90095e-07
4.73274e-06
-3.24536e-06
5.29953e-06
-1.35791e-06
1.27808e-06
2.77936e-06
-1.22549e-06
-2.83195e-06
8.70572e-07
-1.29318e-06
1.70069e-06
1.4608e-06
2.18914e-06
4.58543e-06
-1.33765e-06
-4.54096e-06
9.93161e-07
5.29296e-06
1.13729e-06
1.11565e-07
-2.5865e-06
-1.20738e-07
2.25119e-06
-9.04798e-07
2.24486e-06
-2.01873e-06
-5.3714e-07
8.58818e-07
1.57379e-06
-1.89547e-06
1.07855e-06
1.48443e-06
-3.10013e-06
9.94008e-07
9.43368e-07
-1.75611e-07
-1.66233e-06
-1.44876e-06
2.21651e-06
3.61876e-08
-7.66015e-07
-9.32503e-07
-6.76557e-07
-7.36009e-07
1.32389e-07
5.86033e-07
1.02963e-06
9.61882e-07
6.29343e-07
4.50252e-07
-2.04148e-06
8.23581e-08
9.20689e-07
-4.11671e-08
1.3447e-08
6.98252e-07
1.65815e-06
9.45069e-07
-2.15297e-06
2.3193e-07
2.34691e-06
1.51088e-06
-5.52368e-07
2.44106e-06
1.93647e-06
2.44965e-06
1.32681e-06
-5.71293e-06
-7.58058e-07
1.04559e-06
1.64894e-06
3.39614e-06
-1.70455e-06
1.47907e-06
-3.12488e-06
2.6914e-06
-1.87466e-06
5.00267e-06
-3.72631e-06
-5.52437e-06
-3.08983e-06
-1.6425e-06
-4.09815e-07
5.14215e-06
2.20875e-07
-1.68176e-06
-1.62895e-06
-1.98916e-06
5.6753e-07
-4.8246e-06
-2.60136e-06
7.01614e-06
-4.73019e-07
-6.03335e-06
4.64868e-06
-7.11087e-06
2.61485e-06
5.08759e-06
1.93442e-06
-6.67142e-06
-9.51933e-07
3.43962e-06
-7.94395e-07
1.77688e-06
4.29414e-06
5.39912e-06
-8.26794e-07
9.34084e-07
7.60831e-07
-8.6812e-07
3.77592e-06
-1.25846e-06
-3.34424e-06
-6.48866e-07
5.35887e-06
-2.01483e-06
1.16632e-06
1.60935e-06
-5.46988e-07
-2.33596e-06
2.41107e-06
-4.21652e-06
2.92852e-06
-1.56981e-06
-3.39861e-06
-1.88316e-07
5.15673e-06
-3.67725e-07
4.46108e-07
-1.6482e-06
-1.02339e-06
-2.74294e-06
-3.75639e-06
2.25949e-06
1.943e-06
2.5421e-07
-5.6588e-06
4.09186e-06
-4.86104e-06
6.16303e-06
-1.77835e-06
1.5632e-07
1.29972e-06
3.22317e-07
1.54649e-06
1.40899e-06
-4.73384e-06
1.55815e-06
1.4466e-07
1.07632e-06
1.31689e-06
-9.8422e-07
1.40655e-06
9.69482e-07
-2.29246e-06
5.25716e-06
-8.30921e-07
-9.8467e-07
-3.9186e-07
2.46655e-07
1.12988e-06
1.89065e-06
2.13218e-06
-5.00751e-06
1.7953e-06
-2.96517e-07
5.12471e-07
-4.57451e-07
1.91629e-07
-4.58247e-07
2.10059e-06
2.79439e-07
1.39529e-06
1.61648e-06
2.16503e-07
1.77844e-06
-1.72028e-06
-2.74669e-07
2.31967e-06
-1.453e-06
-6.50168e-07
-1.95397e-06
6.05208e-06
2.0523e-06
1.49692e-06
-5.26951e-06
1.48107e-06
1.00355e-06
-9.59634e-07
5.30632e-07
-9.34946e-07
-2.79351e-06
-2.93594e-06
6.6644e-06
2.04615e-07
-1.70651e-07
-9.68914e-07
-3.04636e-06
4.57451e-07
-1.05744e-06
8.35589e-07
5.11901e-08
7.82161e-07
-2.80852e-06
2.12885e-06
-4.39305e-06
2.0631e-06
9.01331e-07
-4.15415e-07
1.82458e-06
1.20148e-06
-5.83458e-06
1.73456e-06
1.41198e-07
-3.60263e-06
6.23852e-06
-2.86048e-06
-6.00966e-07
2.73051e-06
-4.6163e-07
6.87033e-07
-2.95591e-06
-1.59671e-06
-2.51985e-06
-5.64833e-07
-1.4935e-06
-2.77983e-06
2.84595e-06
-6.30947e-07
2.33322e-06
-6.60655e-06
-2.00214e-06
1.69322e-07
6.0417e-06
6.88551e-06
-4.5659e-07
2.76693e-06
1.61598e-06
3.36402e-07
-2.214e-06
2.03401e-06
-1.56411e-07
-2.28139e-06
2.31903e-06
2.98765e-07
1.87552e-06
-6.37091e-06
-3.05802e-06
-2.35101e-06
7.72806e-06
-2.00097e-06
-7.58305e-07
1.24218e-06
-1.36762e-06
9.25162e-07
-3.05683e-06
-2.54237e-06
-2.67534e-06
-4.45745e-07
-2.32291e-06
-2.88182e-07
-4.03816e-07
-2.5843e-06
-2.69628e-06
2.43627e-06
-1.43804e-07
2.50251e-06
-7.78309e-06
1.09367e-06
-9.14067e-07
8.54592e-07
7.44592e-07
2.61547e-06
-7.71962e-07
-2.5881e-06
2.65934e-06
-2.6808e-06
7.66051e-07
-3.26345e-06
8.53827e-06
-2.19592e-06
2.54049e-06
-1.11651e-06
3.34374e-06
-8.12774e-06
3.73638e-07
2.89308e-07
-3.49318e-07
-3.08401e-07
-2.11865e-06
-3.80198e-06
-8.84934e-06
3.38144e-07
-3.05711e-06
2.53171e-06
1.87257e-07
-2.81049e-06
2.82043e-06
3.2821e-07
2.44385e-06
-8.31145e-06
-3.60304e-06
-2.82901e-06
9.25247e-06
-2.50071e-06
-7.74123e-07
1.3836e-06
-1.44045e-06
1.0863e-06
1.30258e-09
2.87665e-06
-3.2437e-06
3.65745e-07
4.56788e-06
-5.56409e-06
-4.72495e-06
-6.45941e-06
1.13992e-06
-9.9477e-06
-4.04347e-06
-3.15729e-07
-9.36295e-06
6.81892e-06
4.5772e-06
-1.35682e-06
-1.00393e-05
-4.89172e-06
-5.28693e-06
-3.16153e-06
-6.30217e-07
4.19658e-07
-5.29717e-06
-4.09417e-07
-3.37209e-06
-1.00261e-05
-2.84598e-07
4.12945e-06
-1.3845e-06
-2.46035e-06
6.01799e-06
-2.36572e-06
-3.93687e-06
-7.23822e-06
-5.5021e-06
-1.02008e-06
1.15202e-07
-4.79616e-07
-2.5186e-07
-3.13394e-06
3.52828e-06
-1.10184e-05
-1.85861e-06
-2.75828e-06
-3.31965e-06
-3.11519e-07
6.38945e-06
-7.54921e-07
-1.40991e-06
-5.93448e-07
-2.97823e-06
-1.09633e-06
-3.42087e-06
-5.13254e-06
8.24189e-06
-3.23809e-06
-1.59268e-06
5.26415e-06
-1.14805e-05
-9.64709e-07
-5.97708e-06
2.83688e-07
3.84252e-06
1.85087e-06
2.67542e-06
2.19019e-06
-1.08427e-05
1.54149e-07
2.80495e-06
8.36235e-06
-4.38209e-06
-3.82611e-06
-1.06307e-06
1.22304e-05
-2.77647e-06
4.25493e-06
2.36405e-06
2.74702e-06
-3.33332e-06
1.02761e-05
-1.19112e-05
1.3468e-05
2.15043e-06
-2.99971e-07
3.83728e-06
-5.68774e-06
-3.10486e-06
3.21474e-06
2.04055e-06
5.71236e-06
-9.1172e-06
-1.22156e-06
-5.95501e-06
1.03913e-05
-3.81826e-06
-2.93545e-06
4.82955e-06
-5.05319e-06
3.78056e-06
1.05362e-05
-1.85645e-06
3.22012e-06
-3.3398e-06
3.90023e-06
3.25185e-06
1.05045e-05
1.09494e-05
1.1747e-07
2.70183e-06
1.21478e-05
8.64986e-06
4.44299e-06
-2.13633e-06
2.78296e-06
-5.08962e-06
-1.04555e-05
1.33315e-05
-6.41322e-06
-1.3416e-05
1.01667e-05
-1.73467e-05
-1.19235e-05
-5.80102e-06
3.77889e-07
1.74232e-06
-4.81115e-06
-8.8547e-06
-6.30553e-06
2.24683e-06
1.2257e-05
5.31301e-06
-2.38755e-05
3.66951e-06
1.08343e-05
8.96483e-06
-8.46297e-06
-8.36782e-07
-6.95009e-06
1.76531e-06
6.02156e-06
-1.01697e-05
8.42851e-06
2.96369e-06
-2.00835e-05
5.69583e-06
-9.46557e-06
5.53504e-06
-3.61896e-06
1.53363e-05
2.10131e-06
-3.19345e-06
-8.37344e-06
-2.7632e-06
1.24555e-06
-2.5109e-06
8.1762e-06
-2.74067e-06
7.82856e-06
4.3514e-06
1.48976e-06
-1.36697e-05
-8.67572e-08
5.63102e-06
2.2843e-06