/*--------------------------------*- C++ -*----------------------------------*\
| =========                 |                                                 |
| \\      /  F ield         | OpenFOAM: The Open Source CFD Toolbox           |
|  \\    /   O peration     | Version:  v2012                                 |
|   \\  /    A nd           | Website:  www.openfoam.com                      |
|    \\/     M anipulation  |                                                 |
\*---------------------------------------------------------------------------*/
FoamFile
{
    version     2.0;
    format      ascii;
    class       volVectorField;
    location    "0.05";
    object      U;
}
// * * * * * * * * * * * * * * * * * * * * * * * * * * * * * * * * * * * * * //

dimensions      [0 1 -1 0 0 0 0];


internalField   nonuniform List<vector> 
6576
(
(0.0278698 -1.47757 -0.0438274)
(-0.0741986 -1.52922 0.0596425)
(-0.024157 -1.56092 0.0123427)
(0.0402929 -1.44988 -0.0502579)
(-0.00194118 -1.50375 0.00430071)
(-0.0658115 -1.58751 0.0652339)
(-0.0105187 -1.53874 0.0264782)
(0.0149309 -1.50087 0.00493095)
(0.0154043 -1.24651 -0.0102006)
(0.0145254 -1.46247 0.000613643)
(-0.0108073 -1.50457 -0.0175971)
(-0.0127724 -1.53608 -0.0150469)
(0.000163871 -1.55525 0.0100197)
(0.00751632 -1.48812 -0.000418347)
(0.0518686 -1.47044 0.0208207)
(0.0109692 -1.80154 -0.0242795)
(0.0529401 -0.900767 0.0296563)
(0.0165102 -1.70834 -0.0091848)
(0.0451787 -1.56129 0.0540043)
(0.0161216 -1.48809 0.00748011)
(0.0384739 -1.38679 0.041226)
(0.00156382 -1.54841 0.0232199)
(0.00940323 -1.47435 0.00966284)
(-0.00495571 -1.5009 -0.0123743)
(0.00275373 -1.60026 0.0139647)
(0.0395878 -1.52863 0.0433922)
(0.051743 -1.50241 0.053968)
(-7.50759e-05 -1.45904 0.0136184)
(-0.00641906 -1.57731 -0.0267302)
(0.00523181 -0.975378 -0.00479401)
(-0.0453867 -1.56843 0.055494)
(-0.0196733 -1.45163 -0.00848373)
(-0.00560549 -1.5471 -0.00245313)
(0.00248357 -1.45282 0.0199362)
(0.00620392 -1.46622 0.0206278)
(-0.0151903 -1.23849 0.00938318)
(0.0100756 -1.57112 0.012902)
(-0.00537508 -1.53048 0.0115836)
(0.0121981 -1.49142 0.0126553)
(0.00315545 -1.47173 0.0116119)
(-0.00190223 -1.4009 0.012325)
(-0.0108221 -1.47693 0.00626727)
(-0.00581646 -1.42871 -0.00152613)
(-0.212808 0.241787 0.364758)
(-0.382015 0.318168 0.377468)
(-0.140043 -0.00135632 0.496656)
(-0.821997 0.0605331 0.339223)
(-0.61188 0.0682533 0.398742)
(0.311961 0.2788 0.486322)
(0.186908 0.257416 0.376888)
(-0.1015 0.485056 0.512152)
(-0.0643769 0.0172158 0.811408)
(-0.0128344 0.120271 -0.0236116)
(-0.00126718 0.146305 0.0243076)
(0.00544011 0.132828 0.00031722)
(-0.0153994 0.15147 0.0325513)
(-0.0125799 0.117969 -0.00985785)
(-0.0214752 0.126086 -0.000760446)
(-0.00725937 0.138757 0.0130657)
(-0.0101842 0.126383 -0.0204445)
(-0.0187006 0.123386 0.00254877)
(0.00232018 0.147986 -0.0228402)
(0.00750062 0.139305 0.00725289)
(0.0106014 0.144868 -0.00109447)
(-0.00462969 0.158868 0.0212028)
(-0.0276964 0.163204 0.0422681)
(-0.000152973 0.137008 -0.00746502)
(0.00858474 0.142963 -0.0127097)
(0.000636598 0.130249 -0.0312491)
(0.0248477 0.164035 0.00426619)
(-0.0174094 0.154335 0.0238407)
(0.00862956 0.145796 -0.00943103)
(-0.0231412 0.14533 0.0162694)
(-0.000272254 -0.0113768 0.0211699)
(0.000458554 -0.010073 0.0192952)
(-0.000127711 -0.0148363 0.0148334)
(-0.000224149 -0.0147849 0.0139903)
(0.00323201 -0.0130708 0.0142675)
(0.00338018 -0.0194918 0.00620495)
(-0.00324894 -0.0254915 0.00583291)
(4.66613e-05 -0.00787113 0.01996)
(-0.000865062 -0.00548551 0.0204384)
(0.00253955 -0.01138 0.0246683)
(-0.0012992 -0.0100734 0.0223775)
(0.00142871 -0.00644293 0.0169851)
(0.00289997 -0.00728632 0.017548)
(0.00472152 -0.00817302 0.0290374)
(0.319607 0.198443 0.343967)
(0.219744 -0.00864657 0.368664)
(-0.0140252 -0.158498 0.392561)
(-0.257875 -0.144417 -0.0414995)
(0.155195 0.312413 -0.0531275)
(0.297108 0.367942 0.0245488)
(0.365126 0.593064 -0.00447809)
(-0.552914 -0.575842 1.08842)
(0.234395 -0.956521 1.14245)
(-0.371023 0.0050044 0.481987)
(-0.252666 -0.627131 0.622179)
(0.363811 -0.716772 0.442606)
(-0.253278 0.173551 0.787379)
(-0.365599 0.205292 1.02588)
(0.00212426 -0.00147048 -0.00291875)
(-0.000207532 0.000197625 -0.00613293)
(-8.35377e-05 0.00489074 -0.00316922)
(-0.000155094 0.00352905 -0.00238811)
(-0.000330808 0.00174132 0.00270396)
(8.27331e-05 0.0028999 0.000897594)
(-0.00283722 0.00294961 0.00188541)
(0.00595341 0.00901766 -0.00529294)
(0.000117041 0.00741499 -0.0127873)
(-0.0104008 -0.000918259 -0.0122359)
(-0.00394251 0.0274419 -0.0156995)
(-0.00827001 0.00356314 -0.0347543)
(-0.00951341 -0.00733256 -0.0125097)
(0.228929 -0.392084 0.0860432)
(0.00576161 -0.539676 0.0675997)
(0.132214 -0.417338 0.12112)
(-0.0730462 -0.606823 0.424068)
(0.0167197 -0.670843 0.324638)
(0.295535 -0.504803 0.194376)
(0.243187 -0.36673 0.0554569)
(-0.00625553 -1.40209 -0.0136376)
(0.048234 -1.55768 0.0563997)
(-0.0250891 -1.47165 -0.0273804)
(-0.00159177 -1.60658 0.0136144)
(-0.0640881 -1.58009 -0.026748)
(0.0595645 -1.69824 0.113534)
(-0.095504 -1.58748 -0.0135635)
(0.00712942 -0.78147 -0.124708)
(0.0737599 -0.739991 -0.0497232)
(-0.00161086 -0.715569 -0.0962625)
(-0.0207524 -0.583402 -0.497264)
(-0.152582 -0.843575 -0.445835)
(0.100812 -0.565837 0.12691)
(-0.104493 -0.828434 -0.292557)
(0.000326445 0.0528114 0.0647297)
(-0.000764329 0.0543435 0.0585679)
(-0.0043424 0.0499865 0.0543364)
(-0.000554781 0.038742 0.069148)
(0.00404626 0.0450264 0.0755625)
(-0.000855897 0.0453387 0.0701658)
(-0.0025628 0.0430847 0.0604757)
(-0.0036434 0.0637635 0.0787256)
(0.000722782 0.0642841 0.0946666)
(0.000183374 0.0668362 0.0829901)
(-0.00401347 0.0430008 0.0962017)
(0.00802307 0.0497504 0.103439)
(0.0067648 0.0507068 0.0992682)
(-0.00260752 0.0447729 0.0915824)
(-0.015421 0.0920353 0.11652)
(-0.0022588 0.0590985 0.0668507)
(0.00687977 0.0811738 0.101384)
(-0.0155804 0.0716484 0.0765398)
(0.0123416 0.0597068 0.0732297)
(0.00908861 0.0911692 0.109562)
(-0.0327023 0.099894 0.123398)
(-0.00202965 0.0680047 0.107792)
(-0.000827152 0.070244 0.113275)
(0.000786987 0.071266 0.115941)
(0.00174697 0.0603208 0.108499)
(-0.000582866 0.0652526 0.118972)
(-0.00344383 0.0510644 0.119921)
(0.00867968 0.0505255 0.120279)
(0.00310035 0.0566434 0.119155)
(0.00862453 0.0515583 0.116653)
(-0.00277096 0.0695481 0.0982314)
(0.00808182 0.100268 0.138687)
(-0.0134328 0.108232 0.151269)
(-0.0172837 0.0813711 0.110494)
(0.0117615 0.0701952 0.102202)
(0.0083225 0.11284 0.147694)
(-0.0293553 0.111383 0.15785)
(-0.0140047 0.0940848 0.149795)
(-0.0240674 0.0826995 0.150757)
(0.00297322 0.124327 0.1837)
(0.00244768 0.0482792 0.156354)
(-0.00573475 0.0607936 0.157688)
(0.0201368 0.0685718 0.162751)
(0.00367949 0.0573347 0.158057)
(0.0134664 0.0768509 0.131391)
(0.00118724 0.0706097 0.133976)
(0.000743373 0.172759 0.251858)
(-0.00855391 0.174953 0.268155)
(0.00189152 0.159623 0.283475)
(0.000810135 0.147868 0.271115)
(-0.0244492 0.165568 0.306)
(-0.031438 0.116634 0.308661)
(0.0165759 0.113358 0.293332)
(0.0188803 0.115043 0.292063)
(-0.0131319 0.128597 0.310934)
(-0.0171885 0.25767 0.288006)
(-0.00458671 0.237577 0.185841)
(0.00989679 0.264643 0.242234)
(0.016845 0.229719 0.211571)
(-0.0101904 0.193737 0.248406)
(0.0186202 0.251536 0.266926)
(-0.0117319 0.190524 0.298556)
(0.0053527 0.251858 0.357923)
(-0.0166026 0.308587 0.322076)
(0.0494336 0.309359 0.315095)
(-0.00189355 0.230796 0.350257)
(-0.0340076 0.224844 0.355122)
(-0.0230184 0.291732 0.327377)
(0.0556598 0.323228 0.2973)
(-0.00242147 0.35382 0.197742)
(-0.0213347 0.497819 0.430506)
(-0.0887261 0.470522 0.417265)
(0.017777 0.324191 0.224394)
(0.0598997 0.332725 0.206706)
(0.0378941 0.430932 0.376912)
(-0.00386009 0.38332 0.324873)
(-0.133636 -0.594926 -0.845757)
(-0.0545742 -0.368148 -0.694435)
(0.0198926 -0.279234 -0.435693)
(0.214042 -0.524746 -0.318278)
(0.124473 -0.212394 -0.403504)
(-0.0220819 -0.702906 -0.627101)
(0.335658 -0.935917 -0.304294)
(-0.000884823 0.260464 0.0773912)
(-0.0114266 0.313222 0.160268)
(-0.0277808 0.311016 0.1511)
(0.00197536 0.256122 0.120811)
(0.0316871 0.252902 0.084471)
(0.00985057 0.291706 0.142071)
(-0.0078782 0.286098 0.137254)
(-0.0213628 0.274684 0.174597)
(0.0138366 0.254525 0.155419)
(-0.000267254 0.253969 0.183735)
(0.0289553 0.2686 0.118055)
(-0.0135267 0.283848 0.16638)
(0.0192546 0.273402 0.209772)
(0.00015697 0.244299 0.14968)
(-0.00310344 0.153207 0.150911)
(-0.0434846 0.184288 0.160833)
(-0.00265853 0.17441 0.155029)
(0.0188078 0.219056 0.224434)
(-0.00893102 0.205722 0.209543)
(-0.07728 0.187711 0.209849)
(-0.0186381 0.224331 0.234764)
(0.00750222 0.143156 0.134691)
(-0.00426226 0.131207 0.127729)
(-0.0292472 0.149268 0.151919)
(-0.0171828 0.155856 0.195818)
(0.00634071 0.154895 0.180498)
(-0.0432423 0.158551 0.194561)
(-0.00319945 0.174023 0.188499)
(-0.00105875 0.100981 0.108241)
(0.0015691 0.094561 0.128958)
(0.00514771 0.104736 0.111015)
(0.00508302 0.122582 0.13462)
(-0.00969114 0.119746 0.131587)
(0.0070411 0.115176 0.13308)
(0.00247315 0.100235 0.135321)
(-0.00648477 0.0937348 0.128665)
(-0.000212146 0.10548 0.115976)
(-0.00188992 0.0594256 0.0780081)
(-0.0183584 0.07869 0.0856164)
(0.00161135 0.0741309 0.0834095)
(-0.006226 0.06972 0.10267)
(0.0146991 0.0934967 0.113162)
(-0.04455 0.0812583 0.106841)
(0.00422438 0.110526 0.122654)
(0.000372868 0.0569189 0.0180411)
(0.00786741 0.0848845 0.0466192)
(-0.0139179 0.0708261 0.0389094)
(-0.00974628 0.0681619 0.0208838)
(0.00871895 0.0608953 0.0242867)
(0.00781715 0.0879319 0.0523073)
(-0.0275743 0.0707399 0.0379016)
(-0.00286432 0.00123288 0.00565628)
(0.00424667 0.00310109 0.0097056)
(0.00370888 -0.0237597 0.00401169)
(-0.0040152 0.00219141 0.00541578)
(0.00141272 -0.00122796 0.00652954)
(-0.0137276 0.0291383 -0.00141717)
(0.0148519 -0.0213341 0.00114948)
(-0.0209517 -0.00662 0.00848614)
(0.00377355 -5.77795e-05 0.000356691)
(-0.225536 -0.694349 -0.486233)
(-0.115462 -0.585752 -0.861511)
(0.279166 -0.833995 -0.514264)
(-0.579453 0.605491 -0.90327)
(-0.693935 0.384957 -0.289146)
(0.505284 0.0029339 -0.210447)
(-0.274474 0.274486 -0.533138)
(0.0167437 0.0396948 0.0396082)
(0.0155794 0.0465456 0.03541)
(-0.00150735 0.105023 0.0545703)
(0.000844222 0.12976 -0.00495488)
(-0.0196191 0.0666968 -0.0329237)
(0.0175061 0.0728398 -0.0102677)
(-0.029044 0.0430478 -0.0235636)
(0.0490036 0.10767 -0.0428216)
(0.000442142 0.0327331 -0.00728176)
(-0.171088 -0.0546064 0.431412)
(-0.345725 -0.753178 -0.215322)
(-0.408424 0.393335 0.415729)
(0.579222 0.0308222 0.842895)
(-0.211341 -0.139401 -0.209044)
(0.0620306 0.279703 0.529074)
(-0.147646 -0.0165452 -0.262723)
(-0.222315 0.496448 -0.382212)
(0.0373746 0.495057 -0.0323586)
(0.599147 0.169023 0.83118)
(-0.00180458 -0.00575376 -0.0325329)
(0.000740973 -0.00565301 -0.0308463)
(-2.21432e-05 -0.00844006 -0.0279993)
(0.00630247 0.00369304 -0.0361222)
(-0.00381614 -0.00189206 -0.0364548)
(-0.00100617 -0.00801078 -0.0286298)
(0.0029458 -0.0041705 -0.0280725)
(0.00628041 -0.111215 -0.027215)
(-0.00845954 -0.0996484 -0.0374076)
(-0.000347954 -0.105414 -0.0286703)
(0.00927716 -0.113265 -0.0260975)
(-0.00340948 -0.101647 -0.0377781)
(0.0320976 -0.13907 -0.063074)
(-0.00938068 -0.135434 -0.0596215)
(-0.00408974 -0.119918 -0.0495367)
(0.0142859 -0.123608 -0.0336664)
(0.000234353 -0.0111876 -0.0390382)
(0.00426337 -0.024923 -0.0538364)
(-0.00479577 -0.0201932 -0.0491574)
(0.0114332 -0.0188848 -0.0416413)
(-0.00524246 -0.0133033 -0.0416884)
(0.0148776 -0.0325091 -0.0590183)
(-0.00624888 -0.0245138 -0.0510945)
(0.0929118 0.0734306 0.00632584)
(-0.0916131 0.120601 0.133033)
(-0.213354 0.186837 0.221021)
(0.212235 0.0932325 -0.0712878)
(0.178441 0.228747 -0.0951392)
(-0.0806494 0.123468 0.0820916)
(-0.0346338 0.00644222 -0.0141007)
(-0.0321696 -0.0408677 0.0799738)
(0.00127839 -0.146046 0.0194021)
(0.032375 -0.0605517 0.0541269)
(0.00721997 -0.0183055 0.0462733)
(-0.0356061 -0.00023705 0.0205217)
(-0.0110695 -0.0446385 0.050199)
(-0.0912628 0.0171026 0.109921)
(0.0567103 -0.116156 -0.0509003)
(-0.0497196 -0.0453426 0.0260227)
(0.125892 -0.346152 -0.123977)
(-0.0323457 0.30019 -0.578678)
(-0.0387487 0.244942 -0.536205)
(0.224295 -0.424085 -0.120222)
(0.0295253 0.323658 -0.633884)
(-0.0448053 0.119248 0.0183453)
(0.0219938 0.308765 -0.447699)
(-0.0569437 0.265122 -0.484344)
(0.112392 -0.161516 0.0204971)
(0.00556639 0.00112487 -0.00745967)
(0.000998969 0.0107419 0.00357221)
(0.0107149 -0.000134162 -0.0127484)
(0.0162836 0.0176219 -0.00243313)
(0.00385302 0.00336083 -0.00800329)
(0.0190036 -0.00391788 0.0143845)
(0.00964268 -0.00437555 0.00491895)
(-0.000568241 -0.000190543 0.0045248)
(0.00240216 0.000456165 0.00588162)
(-0.00260563 -2.75439e-05 0.00630407)
(0.00140626 0.00146503 0.00565766)
(0.000189092 -0.00143906 0.00482437)
(-0.0099087 0.000501462 -0.00420473)
(0.00458069 0.0125048 -0.00692927)
(0.00173117 0.00873207 0.00109102)
(-0.000307964 -0.0011649 0.00345108)
(-0.00335733 -0.102103 0.304929)
(-0.0456971 0.367355 0.0695612)
(-0.100043 -0.847348 -0.00414911)
(0.0216616 0.489871 0.0185263)
(0.205746 -0.0169106 -0.00617665)
(0.0145054 0.46589 -0.211018)
(-0.0916076 -0.100716 -0.200819)
(0.057036 -0.0138753 0.281792)
(0.148286 0.0895379 0.326421)
(0.0152925 0.182512 0.0280746)
(-0.0835145 -0.0529895 0.173543)
(-0.0323501 0.0697142 -0.237878)
(-0.0624067 -0.214949 0.157697)
(-0.0806629 -0.119822 -0.159066)
(0.00257395 -0.0209271 -0.0420528)
(0.000128233 -0.0174674 -0.0379338)
(-0.000181943 -0.0233159 -0.0402046)
(0.00137472 -0.025135 -0.0420469)
(-0.0029169 -0.0223177 -0.0455259)
(-0.000651597 -0.0216786 -0.0417863)
(-0.00115027 -0.0225587 -0.0431005)
(0.000481076 -0.0227279 -0.0399519)
(0.00114473 -0.0207988 -0.0407575)
(-0.00439117 -0.0190723 -0.0380617)
(0.0124584 -0.0253988 -0.0369538)
(0.000212203 -0.0141729 -0.0340671)
(0.00376196 -0.0244138 -0.0469479)
(-0.00378595 -0.0200957 -0.0447738)
(0.0177875 -0.0382764 -0.0559002)
(-0.00272564 -0.0278539 -0.0489526)
(0.00946886 -0.0293204 -0.0375822)
(-0.000412738 -0.0188021 -0.0307666)
(-0.0032587 -0.0292694 -0.0377539)
(0.00313065 -0.0247393 -0.0319753)
(-0.00402129 -0.021767 -0.035201)
(0.00236373 -0.0238607 -0.0301297)
(-0.00201259 -0.0217021 -0.0332573)
(-0.000556993 -0.0246553 -0.0350828)
(0.00382069 -0.0261861 -0.0316427)
(0.000385622 -0.0542787 0.00259053)
(-0.00201485 -0.0538542 0.0161534)
(0.0113565 -0.0633776 0.0231446)
(0.00937416 -0.0704332 0.0174931)
(-0.0107575 -0.0666313 0.0166405)
(-0.00784633 -0.0694845 0.0275109)
(0.025549 -0.085379 0.0435427)
(0.000246056 -0.0578442 0.00680855)
(-0.008261 -0.071247 -0.0147303)
(0.00824533 -0.0762803 0.00537607)
(0.00606111 -0.0623814 0.00488632)
(0.000965422 -0.0528761 -0.00100631)
(-0.000233627 -0.0650952 -0.0116755)
(0.022308 -0.0866961 0.000481176)
(0.00276734 0.118593 0.059208)
(0.0267352 0.135732 0.0947764)
(-0.00649576 0.130862 0.0724856)
(0.00882482 0.153299 0.0911262)
(-0.00710365 0.150103 0.0749337)
(0.0434562 0.177186 0.12718)
(0.00456014 0.167788 0.100355)
(0.00476421 0.134482 0.0740189)
(-0.0189142 0.137882 0.0707303)
(-0.00151607 0.130906 0.080694)
(-0.0144802 0.147149 0.047131)
(0.0158916 0.137452 0.0599471)
(0.017923 0.148473 0.0585013)
(-0.00435694 0.156587 0.0467131)
(0.00135134 0.112775 0.0338679)
(0.0222447 0.13182 0.0539973)
(-0.00835962 0.125725 0.0386614)
(-0.00705763 0.139343 0.0474328)
(0.00581271 0.143153 0.0598226)
(0.0238045 0.164101 0.0813947)
(-0.00816006 0.156958 0.0689712)
(0.0163593 0.11821 0.0319642)
(-0.00032786 0.119665 0.0289054)
(-0.000624135 0.109401 0.00893926)
(0.012199 0.110746 0.0250937)
(0.00105343 0.115173 0.0233293)
(-0.0122856 0.115297 0.0227902)
(-5.18209e-05 0.110603 0.0275019)
(-0.00787465 0.111735 0.0214496)
(-0.00167558 0.109203 0.0238076)
(0.03673 0.124576 0.0316238)
(0.0020196 0.123354 0.011428)
(-0.00127874 0.110666 -0.00558172)
(-0.00546293 0.135103 -0.000920715)
(0.000415537 0.12842 0.0164094)
(0.0107831 0.151606 0.0233135)
(0.0346816 0.151015 0.0489156)
(0.0132913 0.09518 0.00235762)
(0.00354249 0.127735 0.00763282)
(-0.016575 0.127494 0.0223094)
(0.0057969 0.131404 -0.0159969)
(0.00845335 0.125941 -0.00166608)
(0.0107878 0.134396 -0.00706031)
(-0.0120596 0.124592 0.0178615)
(-0.000888528 0.120293 -0.0226639)
(0.0199397 0.140348 -0.00239621)
(-0.0136314 0.139184 0.00361441)
(-0.0223614 0.133758 0.0263092)
(0.00841884 0.127829 0.00165387)
(0.0151113 0.150717 0.0146712)
(-0.039446 0.153339 0.0462592)
(0.00214373 0.175685 0.0321535)
(0.0185861 0.146571 -0.00870068)
(-0.00178156 0.144395 0.00062154)
(-0.0114019 0.151253 0.0115449)
(-0.00366608 0.164715 0.0190107)
(0.0111807 0.140505 -0.00984514)
(-0.0104852 0.13854 0.0043901)
(0.0103774 0.14243 -0.00519601)
(0.00824094 0.142231 -0.0121695)
(0.00192873 0.163983 -0.0268839)
(-0.00359577 0.139153 0.0189704)
(0.0168461 0.139677 -0.000821315)
(-0.0051244 0.148028 -0.0062542)
(-0.0229652 0.145022 0.0211249)
(-0.0112524 0.149675 -0.00316689)
(-0.022912 0.110694 -0.000220117)
(0.0157205 0.142143 -0.026716)
(-0.00507741 0.135632 0.0206657)
(0.021571 0.104545 0.00249901)
(0.00329465 0.133141 0.000631786)
(0.00814966 0.142038 -0.0150646)
(0.0362117 0.147837 -0.0459765)
(-0.00188715 0.147255 0.0166699)
(0.0830223 0.213316 -0.0818889)
(0.0291055 0.191233 -0.0510382)
(-0.0179667 0.143652 0.0101045)
(0.00672458 0.158407 -0.00576167)
(0.000510352 0.157257 0.0388688)
(-0.0123086 0.166124 0.0203632)
(0.00677817 0.156801 0.0139723)
(-0.000195105 0.148511 0.017817)
(0.0090235 0.138753 0.00883712)
(-0.0101923 0.182064 -0.00667415)
(0.0403078 0.171462 -0.0415078)
(-0.0231682 0.169121 0.00992584)
(0.00167885 0.157069 -0.00974904)
(-0.0128521 0.174804 -0.0094569)
(0.00118817 0.163276 -0.0177314)
(0.00729972 0.153925 0.00408984)
(0.0130113 0.157252 0.00241426)
(-0.0038036 0.157541 -0.0188437)
(-0.00374732 0.158326 -0.0115959)
(0.00349168 0.145933 0.00188806)
(0.000486431 0.144445 0.00528999)
(-0.00135333 0.149631 0.00748068)
(0.0071704 0.151781 0.00704636)
(-0.000982472 0.157561 0.00538317)
(0.0156204 0.1504 -0.000683405)
(0.00461259 0.154587 0.0178242)
(-0.0202473 0.164233 0.00527279)
(-0.00600329 0.150616 0.00825062)
(-0.000810895 0.161225 0.0242909)
(-0.00279746 0.152484 0.00753167)
(-0.00754329 0.158104 0.00915507)
(0.00888995 0.152496 0.0015306)
(-0.0127479 0.156976 -0.0202768)
(-0.00272759 0.176273 0.0247692)
(-0.00420234 0.166994 0.0102661)
(-0.018859 0.148957 0.00700413)
(-0.0216849 0.178837 0.043714)
(-0.0193297 0.172091 0.0329102)
(-0.0259336 0.163312 0.0182525)
(-0.00140208 0.15663 0.0236089)
(-0.0110994 0.162174 0.0319449)
(-0.00164256 0.153381 0.0427551)
(0.0202423 0.174507 0.0542805)
(0.00243945 0.174726 0.0496169)
(0.0139245 0.159457 0.0442993)
(0.000880035 0.166491 0.0425947)
(-0.0088589 0.16263 0.0352372)
(-0.00288304 0.159413 0.042139)
(-0.0327853 0.175508 0.0805264)
(0.00626034 0.16291 0.0649983)
(-0.00267859 0.154561 0.0199413)
(0.0381795 0.174999 0.0632499)
(0.0065024 0.179232 0.067041)
(0.0299592 0.194767 0.0792127)
(-0.0307899 0.21756 0.119051)
(-0.00378033 0.17873 0.0894082)
(0.00818535 0.195013 0.0753819)
(0.0193696 0.185316 0.0530823)
(-0.0141768 0.17111 0.0654425)
(0.00952541 0.207502 0.0814785)
(0.000357345 0.218332 0.0540135)
(-0.00167114 0.198449 0.0388634)
(0.00739767 0.186591 0.106801)
(0.00316811 0.153848 0.0683205)
(-0.00596259 0.191115 0.0826744)
(0.0305635 0.171692 0.11611)
(0.00160626 0.164553 0.0901392)
(0.0176719 0.215312 0.119598)
(0.0447155 0.215542 0.149136)
(-0.00120234 0.1172 0.13667)
(-0.00382847 0.094832 0.132225)
(0.00211086 0.099089 0.136765)
(0.00243819 0.123507 0.122672)
(0.00429053 0.118339 0.115358)
(-0.030041 0.115345 0.188171)
(0.0161343 0.080351 0.174226)
(0.000429353 0.085739 0.115757)
(0.0308279 0.102552 0.166288)
(-0.0129578 0.106698 0.148525)
(0.0331136 0.0991082 0.187464)
(-0.0315892 0.1437 0.219125)
(0.00113945 0.0832269 0.175196)
(0.0412945 0.106772 0.196914)
(0.000569551 0.029379 0.15911)
(-0.0246586 0.0496895 0.184215)
(0.017172 0.0542679 0.196521)
(0.0722962 0.138808 0.244295)
(-0.00715824 0.106056 0.210595)
(-0.01824 -0.00574516 0.266285)
(0.0497762 0.0335855 0.278491)
(0.000677629 -0.0542058 0.244529)
(-0.0414768 -0.0155612 0.291822)
(0.0181863 -0.0495743 0.285213)
(0.0620298 0.0588979 0.327736)
(-0.0607845 0.0177428 0.308146)
(0.0115086 -0.0473971 -0.10267)
(-0.000511247 -0.0332553 -0.0874722)
(-0.00677728 -0.0326767 -0.0917206)
(0.00940201 -0.02848 -0.109587)
(-0.00595824 -0.00889319 -0.109994)
(-0.00629683 -0.00850953 -0.115587)
(0.0211924 -0.0417852 -0.104268)
(-3.70752e-05 -0.0174734 -0.0733928)
(-0.000973318 -0.0161206 -0.0799876)
(0.00260753 -0.0146632 -0.0751018)
(0.00434702 -0.0112851 -0.0747343)
(0.000564485 -0.0106447 -0.0730985)
(0.00576105 -0.012012 -0.0763883)
(0.00271899 -0.011134 -0.0748888)
(0.00277341 -0.0123789 -0.0762245)
(0.00317853 -0.0121242 -0.0745778)
(0.0107231 -0.016514 -0.0717773)
(-0.0135995 -0.0142406 -0.0689527)
(0.000184627 0.0028621 -0.0621785)
(-0.0139762 -0.0201287 -0.0732832)
(0.0208296 -0.035309 -0.0832799)
(-0.0041764 -0.0120129 -0.0637273)
(0.0122132 -0.0226122 -0.0705745)
(0.00253771 0.000593722 -0.0178094)
(-0.00343375 -0.00333149 -0.0193938)
(0.00036124 -0.000508641 -0.0179693)
(0.00482001 0.00699906 -0.0305029)
(-0.00180479 0.0037173 -0.0267347)
(-0.00405042 0.00470243 -0.0273142)
(0.00873225 0.00949813 -0.0327264)
(-0.000365957 0.0102918 -0.0191929)
(0.00177515 0.00811106 -0.0186)
(2.29299e-05 0.00849921 -0.0199876)
(-0.00293648 0.00653028 -0.018635)
(-0.00104509 0.00253294 -0.0193277)
(-0.00164574 0.00364997 -0.0207645)
(-0.00143327 0.00143723 -0.0196972)
(0.00167175 0.0105106 -0.0099943)
(-0.00316421 0.00858274 -0.0107961)
(0.000323852 0.00971224 -0.00928641)
(-0.00247749 0.0143366 -0.0175511)
(0.00617969 0.0164257 -0.0240532)
(0.00958338 0.0187672 -0.0256554)
(-0.0049652 0.0172564 -0.0193577)
(0.00311477 0.0135882 -0.00253397)
(-9.20094e-06 0.0134126 -0.002372)
(-0.000226549 0.0136633 -0.00544956)
(0.00521747 0.0183337 0.00282549)
(-0.00600847 0.0180518 0.00839207)
(0.00114673 0.0142771 -0.000313262)
(-0.00518204 0.0150245 0.00497531)
(-0.00335357 0.0101446 0.00266137)
(-0.00252226 0.0154958 -0.00228376)
(-0.000144314 0.0208427 -0.00692076)
(0.00323518 0.0128385 0.000332151)
(0.00109877 0.0172743 -0.00289438)
(0.00376471 0.0169277 0.00401875)
(-0.0107393 0.0260878 0.015186)
(0.00473069 0.0175159 0.0053304)
(-0.00870809 0.0242324 0.0132916)
(0.000793919 0.0166488 0.00458652)
(0.00522076 0.0146053 0.000246565)
(0.000527589 0.0200641 0.00574958)
(0.00310906 0.0298911 0.00852366)
(-0.00180995 0.0184791 0.00111592)
(0.0104466 0.0241851 -0.00623219)
(-0.00127413 0.0176764 0.00227796)
(0.0121339 0.0283401 -0.0110822)
(-0.00322307 0.0206614 -0.00314901)
(-0.00630157 0.0194792 0.00394601)
(-0.00305151 0.0268392 -0.00209112)
(0.000299915 0.0349375 -0.0117094)
(0.00487656 0.0154958 0.00631781)
(0.00590146 0.0173657 -0.000767588)
(-0.00358082 0.0200138 0.00815174)
(0.00913282 0.0291556 0.0133732)
(0.000121969 0.0308469 0.0206488)
(0.0210146 0.0418028 0.0286622)
(-0.00117457 0.0216471 0.00309301)
(-0.00750729 0.020773 0.00037187)
(-0.0073418 0.0281271 -0.00167124)
(-0.00043289 0.0238546 -0.00258304)
(-0.00220093 0.0190456 0.00443173)
(-0.00436706 0.018617 -0.00185028)
(-0.0015321 0.0213289 0.00386233)
(-0.0147907 0.0450044 -0.0113905)
(-0.0053471 0.0432403 0.00134267)
(0.00612865 0.0347573 -0.000306828)
(0.000361834 0.0348556 0.0124021)
(0.000176766 0.0285726 0.00701538)
(-0.00705915 0.0330474 0.00260256)
(-0.0476782 0.0131873 0.00566198)
(-0.0383089 -0.0990423 0.0236035)
(0.0027531 -0.0590978 0.00456633)
(0.0965841 0.159037 -0.104114)
(0.053994 0.161441 -0.0456978)
(-0.0396115 -0.0170257 0.132004)
(-0.00718607 0.00283097 0.0567857)
(0.00523103 0.00366244 0.0538799)
(-0.150244 -0.102247 0.124967)
(0.0278304 0.0589009 0.0990307)
(-0.00512965 0.0280718 0.104317)
(0.0289514 0.0528949 0.0840333)
(0.0235785 0.0520998 0.396649)
(0.00698605 0.0962175 0.0189512)
(0.0408289 0.10912 -0.0431737)
(0.0392871 0.143452 0.148606)
(0.127416 0.135076 0.24377)
(0.0986217 0.580942 -0.561678)
(-0.152985 0.109891 -0.526)
(0.54432 0.0463407 0.603628)
(-0.0418941 -0.0585324 -0.172956)
(0.090972 -0.0289905 -0.171375)
(0.0447641 0.00469911 0.170545)
(-0.171364 -0.238126 -0.471312)
(-0.0565958 -0.17534 -0.328049)
(-0.00390847 -0.132971 0.126123)
(-0.029347 -0.133456 -0.0702554)
(-0.0487183 -0.207325 -0.412328)
(0.0955681 0.135778 -0.749624)
(0.151947 -0.0366576 -0.355671)
(-0.260448 0.0685336 0.0490927)
(-0.233837 -0.0271234 0.0968694)
(-0.215131 -0.0599781 0.101592)
(-0.22384 0.0711928 0.250049)
(0.259038 -0.745961 0.758699)
(0.748054 -0.127705 0.600021)
(-0.680254 0.00518457 -0.198675)
(-0.494309 -0.0365437 -0.419894)
(0.107236 -0.621173 -0.242931)
(-1.36726e-06 0.0203835 -0.0118443)
(-0.000639788 0.0240648 0.000860661)
(-0.00599874 0.0132873 0.00639735)
(-0.00920575 0.010582 0.00101318)
(0.0313496 -0.0486588 -0.0115808)
(0.000296783 0.0397692 0.0243047)
(-0.00197472 -0.00328363 0.00341368)
(-0.0122702 -0.00175692 -0.00247195)
(-0.0149571 -0.0196435 0.0216533)
(0.0366784 0.0839038 0.0432637)
(-0.0123041 0.0035166 0.00443834)
(-0.00438432 -0.00286738 -0.00506284)
(-0.000645039 -0.0107351 -0.0103669)
(-0.0166093 -0.0241777 -0.000946784)
(-0.00353259 -0.00355272 -0.00067836)
(0.00524837 -0.0119579 0.00571147)
(0.00228328 -0.0382247 -0.00520374)
(0.0119808 -0.0183913 0.0122235)
(0.0155269 -0.0150298 0.00707484)
(-0.0134326 0.00610658 0.00617185)
(-0.0153098 0.000639614 -0.00961743)
(-0.0272833 -0.008436 0.00326854)
(0.00174177 -0.00229742 0.0029035)
(-0.000786939 0.00118884 0.00681977)
(-0.00381383 0.000334596 0.00412327)
(-0.00114184 -0.000142129 0.000906689)
(-0.00059046 0.000422039 0.00101028)
(0.00630229 0.00259077 0.00260434)
(-0.00422433 2.635e-05 0.00564079)
(-0.00231546 -0.00478086 -0.00276565)
(0.000582757 0.00453833 0.00278099)
(0.000174848 0.00236047 0.0134465)
(-0.00370919 -0.00141721 0.00634932)
(0.00643204 0.000849918 0.00709968)
(-0.000271187 -0.000793212 0.00546422)
(-0.00115964 0.00627361 0.0059333)
(-0.00508887 0.00161046 0.00503086)
(0.00184404 -0.00596197 -0.00526695)
(0.004459 -0.00102445 0.0125421)
(-0.000688362 0.00320986 0.00092644)
(0.000848781 0.0109801 0.00796151)
(-0.00274111 -0.00133986 -0.000372595)
(0.000167322 0.00117917 0.00341498)
(-0.00071074 -0.000126658 0.000688987)
(0.000132165 0.00184241 -0.00335463)
(-0.00123532 0.00204801 -0.00131354)
(0.0021186 0.0176675 -0.00249907)
(-0.000457221 0.00282276 -0.006653)
(-0.0244249 -0.00807974 0.00772973)
(0.0620952 0.028253 -0.0650152)
(-0.00825595 -0.0136012 0.022099)
(-0.00358058 0.00372339 0.00132368)
(0.0100609 0.00808185 0.011368)
(0.0100855 0.00886859 0.0165458)
(-0.000914175 -0.000111575 -0.000868774)
(-0.676894 -0.0585075 -0.223655)
(-0.4569 -0.977524 -0.119189)
(-0.252015 0.293502 -0.741113)
(0.781377 -0.075615 -0.87723)
(0.679237 0.339736 -0.788598)
(0.734811 0.45342 -0.407788)
(-0.695153 -0.833736 0.944456)
(-0.394173 -0.382489 0.100675)
(0.166497 0.0826341 -0.452283)
(-0.132649 -1.21199 -0.131745)
(-0.151053 0.626663 0.485319)
(0.361007 -0.0724924 -0.0319865)
(0.00164861 -0.0265479 -0.455061)
(-0.0521446 -0.407489 -0.485519)
(-0.00942077 0.0788261 -0.0570782)
(0.0147583 0.0753731 0.0425348)
(0.00216901 0.0593705 0.0734526)
(0.0739892 -0.0337275 0.0356092)
(0.142926 -0.0910229 0.0213314)
(0.0228743 -0.0953783 0.0762653)
(0.0310911 -0.0937161 0.0332929)
(-0.00747135 -0.0637648 0.00521498)
(-5.68217e-05 -0.0592991 -0.00919773)
(0.00211459 -0.0604711 -0.00500099)
(-0.0154599 -0.0886864 0.00952968)
(0.0167044 -0.0716753 0.014239)
(0.00789025 -0.061477 -0.00091373)
(-0.0281474 -0.0830996 0.0199392)
(-0.0137037 -0.0776194 0.00689129)
(0.00499447 -0.0826127 -0.0076929)
(-0.0032356 -0.0809166 0.00503362)
(0.0157823 -0.0800499 -0.0230098)
(0.00368738 -0.0843621 -0.0133133)
(0.00724619 -0.0922333 -0.0242362)
(0.0252871 -0.0848738 -0.0214028)
(-0.00293942 -0.0535612 -0.0500486)
(0.00104264 -0.0735594 -0.0501176)
(-0.00335996 -0.0648347 -0.042972)
(0.00843312 -0.0838573 -0.0835452)
(-0.0055709 -0.0959609 -0.0753678)
(-0.0063801 -0.0634335 -0.0807719)
(-0.0140985 -0.0861479 -0.0712115)
(-0.00147791 -0.0685212 -0.0489844)
(0.00605555 -0.0533035 -0.0652336)
(-0.00314394 -0.0364484 -0.0537617)
(0.00393703 -0.0363839 -0.057714)
(-0.000248946 -0.0451554 -0.0513447)
(-0.000596756 -0.0531759 -0.0463758)
(0.00124992 -0.049007 -0.0419404)
(0.00374258 -0.0491418 -0.0547783)
(-0.00064983 -0.0426092 -0.0451156)
(0.00166924 -0.03994 -0.0581863)
(-0.00210634 -0.036522 -0.0527813)
(0.00295471 0.00358288 -0.0381388)
(-0.00407548 0.000631077 -0.0365457)
(-0.000413922 0.000839075 -0.0357041)
(0.0109796 -0.00726515 -0.0406973)
(-0.00418562 -0.0130518 -0.0482622)
(0.00754916 -0.0103612 -0.0419672)
(-0.004044 -0.0146318 -0.0498504)
(-0.00626217 0.0248412 0.100986)
(0.000160489 0.0511527 0.0964155)
(-0.00436566 0.0310181 0.106355)
(0.00923906 0.0482345 0.0909473)
(-0.00295019 0.0623749 0.0937506)
(-0.00981828 0.0383291 0.100881)
(0.000689304 0.0258387 0.101891)
(-0.00675008 0.0223736 0.0964487)
(0.0187355 0.0343907 0.0977528)
(0.00185525 0.0231399 0.0985939)
(-0.00690717 0.0615942 0.135878)
(0.0322935 0.0655715 0.146224)
(0.0139383 0.0543893 0.147708)
(-0.00964834 0.0511866 0.133194)
(0.00741448 0.0645215 0.123496)
(-0.00573161 0.0662875 0.126499)
(0.000570342 0.0502945 0.102155)
(0.00740773 0.0529054 0.107187)
(-0.00185615 0.0601189 0.102207)
(-0.000477164 0.0670363 0.0522769)
(-0.00199878 0.0941563 0.0626197)
(-0.0118209 0.100005 0.0573541)
(-0.0018805 0.13538 0.0665464)
(0.010514 0.086965 0.0772149)
(-0.00938983 0.0856521 0.0639549)
(0.00463293 0.121706 0.0495879)
(-0.00657547 0.0961685 0.0371542)
(0.00137564 0.0890958 0.0229551)
(0.0230794 0.098621 0.0549096)
(-0.00796407 0.111353 0.036513)
(0.010879 0.118176 0.0473979)
(0.0370411 0.130614 0.0733959)
(0.000163818 0.11967 0.0545027)
(-0.0140913 0.0893916 0.0058582)
(0.0016902 0.0906986 0.00817532)
(0.000170679 0.0853628 -0.00769457)
(0.0179921 0.105395 0.0373176)
(-0.0230432 0.109194 0.019754)
(-0.00678262 0.100417 0.0138431)
(0.0221979 0.103474 0.0382902)
(0.0146135 0.0725586 0.00186715)
(0.00413668 0.0932745 -0.00296942)
(-0.0108923 0.0954865 0.0185884)
(0.00275625 0.09995 -0.0125192)
(0.00778818 0.100887 0.00194211)
(0.0113167 0.0977023 -0.00919521)