/*--------------------------------*- C++ -*----------------------------------*\
| =========                 |                                                 |
| \\      /  F ield         | OpenFOAM: The Open Source CFD Toolbox           |
|  \\    /   O peration     | Version:  v2012                                 |
|   \\  /    A nd           | Website:  www.openfoam.com                      |
|    \\/     M anipulation  |                                                 |
\*---------------------------------------------------------------------------*/
FoamFile
{
    version     2.0;
    format      ascii;
    class       volScalarField;
    location    "0.05";
    object      alpha.water;
}
// * * * * * * * * * * * * * * * * * * * * * * * * * * * * * * * * * * * * * //

dimensions      [0 0 0 0 0 0 0];


internalField   nonuniform List<scalar> 
24700
(
0.999979
0.999993
0.99996
0.999902
0.999996
0.999972
0.999996
0.999997
0.999899
0.999997
0.99982
0.999999
0.999997
0.999838
0.99982
0.999997
0.99999
0.999683
0.999847
0.998729
0.999849
0.999832
0.998714
0.998734
0.999648
0.999716
0.998714
0.999289
0.999723
3.59985e-52
8.5206e-51
5.26336e-49
5.61691e-52
1.3553e-50
4.06102e-49
9.44151e-48
2.97798e-26
1.49637e-27
9.01935e-28
5.23427e-29
1.20616e-28
1.90768e-28
2.03164e-27
1.32389e-36
5.15667e-38
2.54494e-37
7.46983e-35
3.61011e-36
3.21357e-37
3.66668e-36
0.000222978
0.000222978
0.000229277
0.000331641
0.000398926
0.000226226
0.000402348
0.00159619
0.00190202
0.00138382
0.00713776
0.00764385
0.00201055
0.00394409
3.1825e-19
4.0589e-20
2.01456e-20
6.25131e-19
1.0097e-17
6.61364e-19
9.03818e-20
0.000365232
3.91928e-05
0.000158605
4.15589e-05
2.249e-05
6.81491e-05
0.000145222
0.442143
0.102752
0.976541
0.460104
0.0597256
0.806042
0.916403
1.62934e-05
3.06304e-05
1.55493e-05
2.00318e-05
1.88465e-05
4.77243e-05
1.92561e-05
3.07366e-19
3.21262e-21
7.69914e-21
3.08842e-22
1.83945e-21
4.1169e-22
2.61483e-20
1.98894e-47
7.19534e-47
2.61451e-45
1.1046e-49
2.41273e-49
1.20423e-48
1.08776e-47
6.32672e-79
5.44218e-79
8.42398e-77
2.02191e-76
2.38165e-74
2.46427e-78
9.85024e-77
6.92295e-81
7.26403e-80
2.08341e-79
6.55769e-77
4.08019e-78
2.43686e-79
4.46758e-78
2.65394e-81
1.01315e-79
4.13223e-81
1.09851e-74
2.67825e-73
1.10555e-72
2.9144e-70
4.75002e-72
1.18018e-71
1.75738e-73
1.01182e-72
2.56454e-71
5.77242e-73
8.05439e-77
1.21692e-75
4.12234e-52
6.4942e-53
1.53453e-53
2.48311e-51
5.83662e-50
2.13939e-51
9.3972e-53
4.77372e-25
1.39674e-25
2.22159e-26
2.52305e-25
2.34858e-23
2.34931e-24
7.8602e-26
8.24363e-37
6.50155e-38
7.97995e-37
2.16564e-36
4.48277e-35
5.18613e-37
8.84053e-36
2.87174e-06
6.31503e-07
1.78632e-07
4.22451e-08
2.01628e-08
8.63126e-08
2.42646e-07
6.16744e-05
7.79795e-05
5.30776e-06
3.12187e-05
0.000249219
0.000181019
1.58313e-05
0.000101364
9.8725e-05
0.000209736
0.00031313
0.00016363
0.00029261
0.000294161
0.000107376
0.000149735
0.000106222
0.00010486
0.000106374
0.000233576
0.000107228
0.000599471
0.000857341
0.000489226
0.000553063
0.000674569
0.000959288
0.000681758
5.36197e-10
1.50765e-11
3.99779e-11
1.17502e-09
1.44317e-08
6.45589e-10
1.14951e-08
6.99008e-45
7.25949e-46
1.59707e-45
1.57747e-46
5.51088e-46
8.84476e-46
4.23701e-46
2.77123e-14
2.53852e-13
5.46283e-14
5.70506e-13
4.73135e-12
5.80528e-13
1.21371e-13
5.22947e-24
1.67216e-22
2.05236e-23
4.22727e-25
1.21893e-24
1.78816e-23
2.55232e-24
3.58627e-19
1.6542e-18
8.87234e-20
6.22816e-18
4.62258e-18
5.02224e-19
9.62104e-19
5.44772e-06
1.44917e-06
4.31532e-06
9.16497e-06
2.79434e-05
6.09387e-07
3.07637e-05
0.000480857
0.000410536
0.000290475
0.000480857
0.00032243
0.000215029
0.000470142
2.00608e-06
7.40544e-05
8.29661e-06
3.59167e-08
9.24814e-07
1.4511e-05
1.82493e-09
5.22645e-07
4.1284e-07
1.7759e-05
8.68981e-06
2.19138e-05
0.000168108
0.999995
0.999987
0.999902
0.999996
0.999869
0.999952
0.0978841
0.0652223
0.0459325
0.0462154
0.0469982
0.0283705
0.0585754
0.00492898
0.0012273
0.00992491
0.0117682
0.027773
0.00554549
0.0135121
1.98335e-05
3.05595e-05
2.37188e-05
1.31876e-05
1.04879e-05
1.01445e-05
1.01638e-05
0.00011327
0.000328197
0.000278483
8.78409e-05
0.000404858
0.00042334
0.000139294
8.20456e-07
1.05127e-06
8.4595e-07
2.84576e-06
2.87985e-06
1.97493e-06
2.4907e-06
2.49197e-05
3.06956e-05
2.2867e-05
9.66167e-05
4.88464e-05
3.16752e-05
4.14995e-05
0.00060058
0.000541083
0.000544109
0.000756343
0.000675454
0.000700974
0.000603521
1.90609e-50
4.13331e-50
1.22992e-48
5.91361e-51
9.66252e-52
2.39423e-51
1.83625e-50
2.24324e-34
4.3265e-34
7.3636e-33
4.64108e-31
1.6221e-32
1.03325e-32
1.0017e-33
3.89153e-23
2.17252e-24
8.02669e-25
1.12025e-24
1.91241e-23
3.90892e-24
6.78528e-23
5.60549e-40
6.66122e-41
4.32103e-39
9.26338e-41
4.09277e-37
2.63872e-42
1.73353e-38
9.04687e-64
9.82814e-65
4.49266e-66
2.60231e-61
4.94422e-65
5.81277e-63
1.1617e-66
1.84575e-68
3.26083e-66
4.01663e-67
1.0948e-63
1.13214e-73
2.82893e-65
2.19743e-75
7.45745e-69
1.91853e-70
9.46617e-71
3.753e-66
1.41074e-64
2.75372e-70
1.15799e-68
1.94806e-67
8.68778e-66
2.79308e-65
1.28209e-62
1.49808e-66
5.16285e-64
3.48558e-68
4.15361e-66
7.35434e-69
1.09528e-67
5.33614e-67
1.59325e-68
1.36853e-67
6.99951e-66
1.48026e-56
7.60162e-57
4.2063e-55
3.45491e-54
1.15702e-55
5.36241e-57
1.82427e-55
1.38446e-52
4.20723e-52
1.594e-53
1.15099e-49
5.82717e-51
1.88643e-51
8.4978e-53
2.94972e-29
2.05274e-32
2.02402e-27
1.62795e-29
5.9211e-31
2.1547e-33
2.66037e-28
8.69563e-20
3.64521e-20
3.4168e-18
2.10092e-20
3.56073e-21
4.75181e-21
2.94873e-19
4.85031e-16
2.32519e-17
2.23739e-17
1.55098e-14
1.42544e-15
1.23718e-16
4.51198e-16
4.61994e-08
1.24528e-08
2.20137e-08
5.04346e-07
6.72972e-08
2.08468e-08
1.0619e-07
1.18194e-08
4.75808e-08
6.1709e-08
2.87121e-07
1.44945e-07
3.9227e-07
9.59137e-09
0.000113312
0.000258246
0.00027009
0.000644288
0.000644288
0.000471916
0.000385135
1.58452e-11
1.28861e-10
4.67749e-12
3.28308e-13
2.06715e-13
5.76776e-12
1.10411e-12
6.99348e-09
3.70748e-10
9.06667e-10
4.59059e-11
3.55646e-11
6.02524e-10
1.42795e-10
6.36914e-10
3.43016e-09
2.4864e-11
3.52206e-12
1.22091e-11
7.45774e-07
1.53976e-07
1.84774e-07
8.58959e-06
1.77285e-06
4.21928e-07
1.20016e-06
9.8627e-08
5.40147e-07
3.40408e-08
1.80942e-08
4.48484e-08
0.00528519
0.00277552
0.00356251
0.0113298
0.00556507
0.00676757
0.00674073
9.93173e-05
6.50317e-05
6.61367e-05
0.000268905
0.000781882
0.00022307
7.90383e-05
1.68191e-10
1.25617e-09
5.19386e-09
7.48872e-10
1.69422e-10
2.88217e-09
1.63684e-08
6.14568e-14
2.09844e-14
1.26451e-13
7.74586e-13
7.97817e-14
5.22443e-14
7.9888e-13
2.46265e-39
4.44456e-38
1.91124e-37
1.60577e-40
7.16997e-41
1.42348e-39
5.60465e-39
3.44548e-36
7.56701e-37
4.65051e-38
1.84277e-39
3.91765e-39
3.78216e-38
1.25512e-37
8.58468e-36
9.86933e-37
1.63934e-37
8.60603e-36
6.7046e-34
2.9457e-35
3.90421e-37
5.67089e-74
8.26801e-75
1.09913e-72
2.85782e-71
2.88821e-70
3.12275e-73
4.96405e-72
3.18216e-85
6.63717e-87
2.25287e-84
1.47194e-95
1.39209e-81
4.31964e-83
4.07257e-97
1.39938e-64
2.08415e-73
5.02834e-66
1.76621e-71
3.9684e-73
6.30997e-70
2.15794e-71
2.91401e-21
1.00727e-22
2.9378e-21
1.08052e-21
1.25348e-19
1.14249e-22
2.61591e-20
6.09666e-18
4.84937e-18
1.81541e-17
2.02724e-16
1.97389e-16
3.20737e-17
3.7924e-17
4.38661e-17
5.16135e-18
8.42191e-18
1.07621e-15
4.61499e-16
5.01147e-17
9.52156e-17
0.000356253
0.000654519
0.000656465
0.000654519
0.000588367
0.000656465
0.000656465
0.000183658
9.24912e-05
8.61845e-05
8.46856e-05
0.000216833
6.976e-05
0.000289479
2.94439e-07
3.92081e-06
1.72509e-07
2.28653e-08
1.38006e-07
8.61411e-07
5.76064e-08
4.48428e-13
1.22072e-10
4.85734e-12
3.53358e-09
4.11998e-10
1.62119e-11
5.87337e-12
1.34602e-09
1.89028e-09
8.04232e-09
2.8022e-08
1.23695e-07
5.93544e-09
1.44895e-09
0.00207285
0.000159201
0.0010021
0.00486822
0.00262958
0.000245475
0.0013176
0.174189
0.400558
0.121201
0.0240819
0.0638263
0.131506
0.10069
6.29555e-05
0.000175239
5.71241e-05
9.49441e-05
0.000255303
0.000373955
5.76314e-05
1.17339e-35
1.21894e-34
8.44659e-35
5.85008e-33
5.0973e-34
6.66825e-34
5.66107e-35
1.04067e-32
9.10006e-35
8.89415e-45
2.95002e-35
1.08654e-36
6.76424e-34
5.65267e-46
3.25776e-51
1.42659e-49
1.39356e-51
2.19601e-53
2.33825e-53
1.45842e-51
1.05933e-52
2.57589e-53
1.30008e-51
1.05694e-53
3.37709e-54
1.63478e-52
1.83777e-52
4.10743e-54
1.73502e-50
3.43268e-51
2.53836e-49
2.33878e-49
3.14586e-47
6.11198e-51
8.92357e-49
2.67639e-101
2.96161e-100
1.33976e-97
1.09143e-96
1.57645e-94
1.64851e-102
9.24585e-100
2.62136e-94
2.0879e-90
1.62044e-92
1.8911e-98
6.10765e-101
5.21587e-94
9.50952e-95
2.81524e-95
5.30053e-92
6.44855e-91
1.93474e-92
1.3903e-93
1.31377e-92
6.88052e-94
1.90269e-89
4.8658e-91
1.32067e-91
4.01401e-81
2.62073e-79
6.87848e-90
1.07386e-80
2.89583e-82
3.1611e-14
6.89084e-14
4.66657e-13
5.04726e-14
4.25994e-15
1.52086e-14
2.09732e-13
0.000108583
0.000108396
0.000177396
0.000331185
0.000712525
0.0002777
0.000575155
8.29843e-11
3.12491e-11
1.50819e-11
2.69689e-10
1.04798e-09
2.14983e-10
6.47718e-11
4.30764e-13
1.8424e-13
3.55144e-12
5.58378e-14
3.55545e-13
3.04291e-12
2.98578e-13
2.9344e-17
2.61282e-15
2.50108e-19
2.32516e-13
1.55868e-14
8.59269e-18
2.91852e-18
1.34619e-11
2.70404e-14
3.66512e-12
5.11873e-15
5.44559e-14
7.29404e-15
9.35084e-14
0.000109423
0.000161518
0.000285919
0.000171733
9.67418e-05
0.000152071
0.000287189
4.31585e-05
4.31585e-05
4.31585e-05
7.69948e-05
4.31562e-05
4.31585e-05
4.31585e-05
2.15818e-22
2.72806e-22
1.58758e-22
3.91452e-22
1.84688e-21
5.53947e-22
2.14976e-22
3.1752e-22
5.46927e-21
9.86083e-23
2.19302e-22
9.02413e-22
3.30776e-09
9.13507e-08
8.16242e-10
1.115e-09
1.51211e-09
1.4664e-06
1.30353e-09
7.93672e-05
0.000234318
7.73238e-05
7.7623e-05
0.000153375
0.000167155
8.69804e-05
1.50854e-07
4.8254e-07
3.05729e-07
1.49069e-06
2.70866e-07
1.01896e-06
1.85017e-07
0.17971
0.014842
0.0768803
0.180534
0.488518
0.14671
0.291972
6.30536e-27
4.97277e-26
7.03964e-28
2.06819e-33
9.66798e-30
3.1366e-34
9.55341e-31
8.21661e-34
2.36066e-34
1.96184e-33
1.86594e-33
4.10063e-32
6.15031e-34
6.65767e-33
5.3734e-20
3.02584e-20
3.23088e-21
1.91471e-19
2.41935e-18
3.60593e-19
2.17033e-20
2.11524e-69
1.00063e-68
3.79709e-67
1.13145e-64
7.79308e-67
1.09038e-66
1.40669e-68
5.3038e-62
3.55574e-60
8.36399e-60
2.81876e-63
1.41931e-63
8.69631e-62
1.97964e-61
3.83163e-113
1.89425e-117
1.33938e-108
5.21179e-113
1.20073e-110
1.18555e-114
4.32965e-111
3.36002e-105
2.24669e-101
8.55513e-104
2.7481e-115
1.69819e-112
5.04263e-75
7.29044e-77
1.82455e-76
8.48301e-73
4.27713e-73
4.57243e-75
1.44068e-74
1.44485e-51
4.64799e-52
2.90645e-53
6.37078e-51
2.21446e-49
1.78796e-52
5.61257e-54
3.87426e-34
6.40716e-39
6.11672e-36
1.82429e-33
3.57974e-32
3.68569e-39
1.66549e-37
2.90555e-16
2.34245e-16
3.84031e-15
1.01713e-15
1.17508e-14
1.35664e-14
3.52108e-13
1.32041e-12
7.65542e-14
6.00737e-13
1.81478e-13
1.1296e-13
3.73787e-13
2.02334e-12
7.68992e-12
3.43809e-12
0.0390222
0.0601501
0.0403568
0.116697
0.0875755
0.0995145
0.0618132
0.000265568
9.26185e-05
7.22366e-05
7.42003e-05
0.000119208
5.09285e-05
0.000235949
4.65084e-11
6.90412e-10
3.63331e-11
5.74511e-12
2.03741e-11
1.2522e-10
1.23614e-11
4.00646e-27
1.83892e-25
1.31477e-26
1.38576e-23
4.889e-25
5.66615e-25
3.25984e-26
4.02633e-15
1.5156e-14
1.05559e-13
4.13087e-12
2.00933e-13
2.81812e-13
1.58782e-14
0.000161172
0.000221897
0.000169849
0.000253713
0.000396954
0.000480964
0.000155877
0.000150096
0.000150096
0.000149866
0.000149938
0.000149308
0.000149937
0.000149938
7.4469e-06
2.64592e-06
2.65387e-06
1.62283e-05
5.39174e-06
4.51947e-06
8.71283e-06
7.44851e-14
4.26515e-14
8.4672e-14
9.67454e-14
3.96386e-13
6.50297e-14
1.78371e-13
0.152033
0.173177
0.454681
0.100726
0.00266806
0.107546
0.253562
0.999997
0.999992
0.999949
0.999808
0.996666
0.999972
0.999363
0.999973
0.999984
0.999697
0.999978
0.998738
0.998881
0.988912
1
0.999999
0.999906
1.03178e-09
1.10548e-09
3.98504e-09
9.153e-07
2.2049e-07
4.08435e-07
2.22672e-06
3.00875e-30
1.29835e-30
1.28349e-29
3.31439e-29
3.50481e-28
5.29013e-30
3.27612e-29
1.97758e-24
3.16479e-24
3.84265e-25
1.28458e-23
8.8278e-23
7.49887e-24
9.23071e-25
4.62352e-19
9.99932e-20
7.05825e-20
2.77302e-18
3.89135e-19
2.36943e-19
1.62457e-18
6.28097e-76
7.5983e-74
1.10231e-73
1.89466e-77
1.50314e-77
1.24274e-75
1.69095e-75
1.88866e-113
9.28292e-115
1.15495e-111
1.08178e-110
1.43962e-114
4.6836e-113
2.39896e-108
3.23164e-117
6.44444e-113
2.80404e-110
8.33729e-44
2.46598e-42
1.98946e-44
2.02937e-46
2.45961e-46
3.66654e-47
3.76278e-46
1.54544e-07
5.94231e-07
2.65225e-07
1.54939e-07
2.29986e-07
2.26501e-07
4.98421e-07
7.76683e-07
2.75124e-07
1.11985e-07
1.08568e-07
2.4519e-07
3.85253e-07
4.42915e-07
3.59686e-07
1.30195e-06
8.12231e-07
1.08181e-07
1.61662e-26
4.60914e-11
5.38499e-10
5.46692e-07
4.60054e-07
1.20165e-07
2.16684e-07
5.23533e-09
1.57479e-07
4.45947e-07
2.63383e-09
6.44284e-08
4.88712e-10
7.43934e-13
3.87834e-11
2.95221e-12
2.6588e-11
2.83333e-13
1.33936e-10
5.74501e-18
1.68834e-17
2.62071e-19
3.94389e-20
1.22255e-20
1.03344e-18
2.80204e-19
0.000728565
0.000729773
0.00073876
0.000751012
0.000589102
0.000744229
0.000332244
2.45384e-10
9.02407e-11
2.37032e-11
3.17604e-11
7.98734e-11
1.0455e-10
4.28037e-10
3.01748e-09
1.64953e-09
3.33406e-09
1.3823e-10
6.23785e-09
3.55431e-10
6.33122e-09
3.87488e-05
2.40267e-05
0.000114629
0.0001161
6.5318e-05
0.00012389
0.000173891
8.66985e-05
5.54476e-05
9.6988e-05
0.000202353
0.000678054
0.000127452
0.000286064
3.76664e-05
0.000102728
3.54443e-05
8.31765e-05
3.51758e-05
0.000169837
3.5576e-05
0.99999
0.999809
0.999994
0.99987
0.99985
0.999869
0.999165
0.998876
0.994298
0.999757
0.998316
0.999569
0.999983
0.999722
0.991506
3.25345e-11
1.35362e-10
1.93587e-11
1.22011e-10
5.23373e-11
2.32903e-10
6.51224e-11
4.81469e-07
2.92249e-07
4.50158e-06
5.67477e-07
8.33136e-08
8.7649e-08
1.92129e-06
3.19965e-08
1.55821e-09
4.94743e-09
1.52856e-10
1.84322e-10
2.19748e-09
9.85463e-10
3.39042e-86
1.36295e-88
1.09846e-88
6.36445e-91
6.85618e-90
2.57936e-90
6.20245e-88
2.00075e-82
2.25402e-84
6.52801e-84
2.60929e-83
2.05479e-81
2.93289e-84
2.26392e-82
1.79847e-83
1.94474e-85
6.88172e-85
2.10167e-84
2.0557e-82
5.68511e-86
4.44677e-84
2.67723e-92
1.26439e-94
7.8483e-95
3.62197e-97
2.09907e-96
1.41758e-96
2.91531e-94
2.32932e-106
3.48185e-108
5.66117e-106
1.36923e-105
3.08782e-103
7.99408e-108
9.08495e-106
8.09786e-115
7.41476e-112
4.25601e-114
1.00502e-114
2.19307e-112
9.60168e-113
4.81636e-115
1.84741e-107
2.87887e-105
1.08657e-107
3.58394e-105
2.46147e-107
6.47055e-105
4.76046e-107
1.62734e-77
4.26538e-79
4.24054e-79
2.50236e-75
2.25563e-75
3.66474e-77
3.72206e-77
2.45044e-55
1.20181e-53
1.0737e-54
1.34604e-52
2.61645e-54
6.72562e-54
1.73868e-55
1.57483e-07
3.16843e-07
1.39686e-06
1.39337e-07
6.84948e-08
1.764e-07
7.40709e-07
0.00197732
0.00755909
0.00476424
0.00200591
0.00258457
0.00526605
0.00253412
1.56743e-07
9.99644e-08
1.08085e-07
1.96776e-07
2.52684e-07
3.54487e-07
5.05967e-07
6.75945e-08
8.15234e-08
1.38924e-07
8.67009e-12
4.30395e-13
2.33472e-12
5.42645e-13
1.82106e-13
9.49898e-13
3.99337e-12
2.38763e-09
5.38366e-09
3.98749e-08
4.16756e-10
3.19709e-10
1.05412e-09
3.8012e-09
1.79622e-11
7.34039e-12
5.46277e-12
2.51146e-11
6.64341e-11
2.63852e-11
1.05063e-10
2.715e-10
1.19925e-09
2.17554e-10
6.29028e-10
1.28096e-10
4.79242e-10
2.47104e-10
0.000183528
0.000338113
0.00033715
0.000203773
0.000316545
0.000373159
0.000299442
2.3627e-11
2.64302e-11
2.1046e-10
1.96628e-11
5.98669e-12
1.49335e-11
8.32489e-11
6.25701e-08
5.07847e-08
2.69569e-07
6.44636e-08
6.90409e-08
3.89328e-08
2.21181e-07
0.000304688
0.000242513
0.000236657
0.00059433
0.000258318
0.00059865
0.000352766
1.97488e-112
2.46205e-111
2.44522e-110
1.07323e-108
7.27039e-111
1.08998e-110
1.08291e-112
1.40816e-104
2.01356e-103
5.05903e-106
1.54458e-107
2.82442e-108
2.06722e-105
1.85951e-106
0.000458897
0.00108304
0.000221785
0.000273968
0.000208238
0.000786441
0.000325072
8.14181e-05
4.12991e-05
5.07282e-05
5.55323e-05
0.000253746
3.78003e-05
0.000189814
1.08761e-16
8.33846e-16
1.54549e-16
9.8493e-17
4.72514e-16
1.12494e-17
4.75203e-17
9.49843e-19
7.47128e-19
1.50621e-19
7.53246e-18
3.87171e-17
1.96768e-18
2.92761e-19
3.46871e-13
9.19503e-15
2.79049e-14
4.73892e-14
3.49972e-15
1.5198e-14
1.94018e-13
1.07464e-19
4.39523e-21
3.0378e-19
3.319e-21
3.65966e-17
3.57607e-18
7.03568e-21
5.48892e-06
4.35021e-06
1.56749e-05
7.73582e-06
1.9143e-05
4.04999e-06
1.05443e-05
0.000435869
0.000188421
0.000264225
0.00018853
0.000232103
0.000461418
0.000646813
3.42404e-07
5.96002e-07
2.03586e-07
1.24442e-08
1.09774e-07
3.00159e-08
2.09298e-07
5.70125e-08
2.07017e-07
1.02363e-06
1.38457e-08
6.59895e-09
2.92258e-08
8.71653e-08
4.85753e-06
9.33132e-06
3.46351e-06
1.07209e-05
3.56715e-06
2.19948e-05
5.59753e-06
0.00013455
0.000156284
0.00014776
0.000407164
0.000398662
0.000261378
0.00037224
0.000560642
0.000259052
0.000565079
0.000465448
0.00016936
0.000135839
0.000268873
8.46645e-12
1.32415e-07
7.72642e-07
4.5429e-11
1.06093e-11
2.21478e-07
1.3537e-06
0.992389
0.998178
0.971188
0.999919
0.999953
0.99999
0.999987
0.994469
0.999044
0.999995
0.999999
0.999996
0.999802
0.999949
0.997947
0.991936
0.999695
0.999669
8.62328e-06
2.54684e-05
0.00049659
0.000227921
9.80287e-05
0.00012132
8.95823e-05
0.000172008
3.55099e-06
0.000197613
0.000493749
9.49111e-05
1.91071e-05
0.000507077
0.000165906
0.000190642
0.000167662
0.000238725
0.000181636
0.000238644
0.000109804
0.000106942
0.000195074
0.000105905
0.000110091
0.000119182
0.000144194
9.45664e-05
2.60039e-21
3.57449e-13
1.6104e-15
6.42821e-16
5.4821e-18
2.1233e-14
4.08015e-23
1.01171e-67
4.83798e-66
3.0738e-65
6.86441e-64
6.59014e-124
9.0597e-122
2.48468e-62
5.78233e-71
1.26996e-66
1.21258e-64
1.50383e-66
1.24217e-65
5.71457e-68
9.11425e-70
3.38531e-69
2.5582e-67
3.68854e-68
3.07052e-08
4.40198e-08
3.31207e-07
1.40406e-08
8.11726e-09
1.38096e-08
6.91941e-08
6.87011e-09
3.26405e-08
3.64881e-09
2.50873e-08
4.87504e-09
2.45314e-08
5.20062e-09
1.06008e-08
2.30289e-08
1.16612e-07
3.68439e-08
9.1352e-09
1.18263e-08
4.91878e-08
8.34781e-11
5.52573e-09
4.7408e-10
3.45763e-10
4.89268e-11
1.54807e-09
2.58662e-11
1.36216e-13
2.61164e-10
2.05182e-11
1.40131e-11
1.53107e-12
7.1513e-11
6.32378e-14
1.58374e-16
9.9994e-16
1.83322e-15
9.34194e-20
4.51629e-19
6.26855e-20
9.65367e-19
8.52106e-20
1.48322e-20
5.26053e-24
1.45562e-23
5.58866e-25
3.11769e-25
1.748e-25
2.9629e-24
1.1969e-24
8.39067e-24
8.06002e-23
3.93474e-24
1.53873e-26
1.02542e-25
1.55229e-26
1.06168e-27
3.01752e-28
5.32492e-30
1.25676e-28
2.06874e-27
1.52078e-28
1.78273e-29
1.97656e-26
3.10622e-26
3.58261e-25
1.12022e-23
7.40801e-25
5.33342e-25
7.64063e-26
1.30249e-16
1.0811e-15
4.09405e-17
8.70872e-18
3.48577e-18
1.05102e-16
1.83039e-17
8.62141e-25
1.80011e-23
1.89282e-28
2.19763e-28
4.3325e-27
1.09774e-26
2.80113e-28
2.07527e-29
7.15853e-28
3.26526e-20
6.79602e-19
1.80568e-22
5.69211e-07
1.80253e-07
4.21865e-07
1.50839e-06
4.32825e-06
2.93736e-07
8.16772e-07
0.000357419
0.000357419
0.000357419
0.000311192
0.000114362
0.000231959
0.000337764
7.1532e-09
2.15963e-09
3.55991e-10
3.51255e-10
1.45689e-09
3.98695e-09
1.81899e-08
1.40906e-34
3.25107e-35
3.80394e-35
2.11941e-33
1.5852e-33
2.37507e-34
3.18581e-34
0.999994
0.999995
1
0.999602
0.999998
0.999886
3.64104e-05
1.69406e-06
2.0234e-05
6.44079e-06
1.93644e-05
3.11194e-06
3.67518e-05
2.18029e-07
5.29789e-07
1.75177e-06
6.10414e-05
2.15172e-05
8.23193e-06
1.93092e-06
1.66275e-68
6.01433e-40
5.26143e-43
1.9646e-36
1.87047e-38
7.72507e-35
4.61693e-33
9.71442e-67
5.14864e-35
1.08073e-37
1.25664e-23
2.48446e-28
9.86286e-22
2.48362e-24
2.27809e-25
9.44385e-29
6.05543e-23
4.48089e-39
8.4007e-40
5.50678e-41
1.47035e-42
3.58992e-42
2.64894e-41
1.28384e-40
4.6934e-21
1.7281e-22
1.16433e-22
5.57645e-24
1.50153e-23
2.51076e-23
2.64306e-22
1.71075e-13
3.17041e-12
3.83519e-13
1.86818e-14
3.61992e-14
3.88386e-13
8.16221e-14
3.56219e-15
2.87208e-15
2.67944e-14
1.36995e-13
2.09167e-14
9.65407e-15
7.11235e-14
5.42988e-11
1.00044e-10
2.40121e-11
1.22584e-10
6.99775e-10
3.32518e-10
7.14318e-11
1.13891e-15
2.87698e-15
2.80654e-14
1.35784e-16
7.95476e-16
7.38051e-16
7.0871e-15
1.28176e-11
5.73198e-12
1.58653e-12
1.04202e-11
1.88107e-10
3.4284e-11
3.52515e-12
1.83443e-20
1.61214e-16
4.79898e-18
2.0418e-18
1.52753e-19
2.09872e-17
2.56691e-21
5.49726e-23
4.89315e-23
2.46079e-24
5.48254e-23
2.09247e-21
4.51473e-22
7.49878e-24
2.3733e-26
4.7425e-26
7.66828e-25
3.19983e-27
1.40181e-27
5.6217e-27
5.24676e-26
2.10596e-22
1.39262e-23
6.59175e-24
3.58454e-24
5.24545e-23
8.62878e-24
1.45002e-22
6.99929e-34
1.04504e-32
1.57971e-32
3.25423e-30
1.0873e-31
1.78914e-32
3.46115e-31
1.30967e-33
9.40813e-33
2.83404e-32
3.89885e-32
7.03879e-31
5.77125e-32
1.18171e-31
4.45288e-28
1.87018e-28
1.9585e-26
1.75211e-25
9.73042e-27
2.04545e-25
7.49393e-27
1.3424e-24
6.94956e-26
1.73158e-24
4.58103e-11
1.41449e-10
1.0562e-09
5.22623e-12
3.10592e-12
1.69859e-11
6.64837e-11
0.000229911
0.000217971
0.000216513
0.000432577
0.000234302
0.000475011
0.000218242
0.000586048
0.000429343
0.000586048
0.000287362
0.000542178
0.000670517
0.000266965
0.000142727
4.82633e-05
0.000214907
4.19864e-05
3.93576e-05
0.000147986
0.000124839
6.78087e-08
5.8517e-08
2.02709e-08
2.86287e-07
1.41214e-07
1.2222e-07
4.68951e-08
1.18385e-16
4.79378e-17
4.69021e-17
1.60821e-18
2.01971e-16
5.84609e-18
1.42351e-16
4.22199e-35
9.32337e-36
1.60985e-36
2.60955e-34
2.77412e-33
4.79732e-35
4.05104e-36
5.2211e-25
1.67659e-24
2.67989e-25
1.30981e-23
1.83007e-24
3.52681e-24
5.24292e-25
0.999924
0.999682
1
1
1
1
1
0.999999
1
1
0.999962
0.999995
0.999983
0.999988
0.999819
0.999601
0.999999
0.999902
0.999999
1
0.999998
0.999499
0.998193
0.983807
0.999636
0.99652
0.554011
0.141436
0.140541
0.0808675
0.065157
0.0787731
0.163685
1.08621e-05
1.76034e-05
2.75191e-05
0.000312767
8.59893e-05
3.94957e-05
9.53933e-05
9.05384e-05
0.000132722
0.000320018
9.34436e-05
4.19703e-05
0.000139352
0.00012827
8.61953e-05
1.84643e-05
7.26793e-05
1.79777e-05
2.21281e-05
4.04946e-05
6.38825e-05
2.04343e-05
3.20488e-07
6.15963e-06
1.09334e-06
4.17589e-06
4.27831e-07
1.23582e-05
1.40825e-08
7.93755e-08
3.47123e-08
5.10085e-07
2.33063e-06
9.08882e-07
1.64962e-07
4.44597e-16
3.39061e-15
1.38048e-13
4.23949e-11
4.24982e-12
3.04905e-13
1.06512e-14
9.48639e-59
1.35956e-60
6.08927e-61
6.58865e-63
1.78251e-62
4.88968e-62
1.63404e-60
4.771e-55
4.29932e-55
2.82239e-53
2.90842e-51
6.50608e-53
2.87756e-53
2.11683e-54
5.52083e-18
4.27965e-19
1.91378e-19
1.31227e-20
1.50529e-20
5.21282e-20
2.40174e-19
8.02657e-18
2.74506e-16
3.21921e-17
6.65234e-18
7.31685e-17
1.67425e-16
1.75654e-17
1.59574e-27
1.88843e-25
2.25922e-26
1.56972e-29
4.52453e-32
3.71537e-32
1.27631e-30
2.43268e-32
1.31859e-33
7.0977e-34
1.4256e-34
1.42692e-33
3.63289e-34
3.48869e-33
5.23289e-29
1.35483e-29
1.37961e-30
1.25015e-30
9.14169e-30
5.39491e-17
8.68477e-17
1.91692e-17
1.0467e-17
9.25822e-19
6.07133e-17
3.66465e-18
3.01261e-21
9.44799e-20
2.17167e-20
6.28907e-19
3.61028e-19
1.91314e-20
8.15164e-20
4.6677e-16
5.88354e-15
8.43471e-16
6.96036e-17
1.85352e-16
1.40275e-15
1.87888e-16
9.36729e-20
2.79666e-20
5.72638e-19
1.74482e-18
1.4182e-17
1.61256e-19
1.19154e-18
1
0.999994
1
1.79884e-18
7.89728e-18
5.16753e-18
2.66256e-16
4.41368e-17
1.40798e-17
9.62038e-17
1.7054e-17
1.53989e-18
5.10387e-19
2.54469e-16
1.91404e-17
1.51758e-16
1.04193e-15
1.00939e-18
1.54504e-17
2.95632e-18
9.55666e-17
7.65174e-16
1.35313e-17
1.13418e-19
1.67566e-20
7.08639e-21
7.06852e-22
4.23806e-23
3.27585e-21
1.33447e-21
1.96352e-22
5.43307e-22
1.34539e-19
6.68517e-25
7.92815e-18
1.90658e-23
8.03909e-21
1.57123e-17
4.36181e-16
1.60093e-21
5.15353e-24
3.47529e-12
5.84692e-11
1.38334e-11
3.31642e-10
3.96892e-23
1
1
1
1
1
0.999993
1
0.999779
0.999994
0.999999
0.999996
0.999797
1
0.999243
1
1
1
0.999956
1
1
0.999844
1
1
0.999994
0.0123849
0.00260185
0.00246406
0.00316722
0.00548777
0.00491595
0.0130038
5.86043e-08
2.56253e-07
5.8844e-08
8.50441e-08
8.32588e-08
2.49815e-07
5.58199e-08
4.95885e-07
2.96247e-07
9.29628e-08
6.40285e-08
6.09081e-08
1.24479e-07
1.52745e-07
3.03667e-05
8.98419e-05
2.01243e-05
2.36892e-05
1.35131e-05
7.4292e-05
2.18908e-05
2.74138e-05
3.84866e-05
4.62174e-05
0.000219153
9.31195e-05
0.000125403
0.000216052
0.000266789
0.000522237
0.000532492
0.00053265
0.000486484
0.000359251
0.000164662
7.57966e-58
1.83344e-59
6.85371e-60
1.0698e-61
1.61987e-61
7.77448e-61
1.38985e-59
3.26434e-25
2.08801e-26
8.56984e-27
9.26682e-27
1.54445e-25
5.86969e-27
8.95748e-26
6.13057e-26
5.39715e-27
3.4074e-27
1.29179e-25
1.95969e-24
9.51904e-26
1.35419e-26
1.19777e-47
2.51338e-46
6.53534e-48
3.84398e-49
3.86918e-49
8.34475e-48
1.38854e-48
1.97468e-50
3.37428e-50
1.65139e-48
7.9832e-50
5.89989e-50
1.02602e-43
6.21848e-45
4.45959e-44
2.17106e-42
5.22088e-44
1.76871e-43
9.32654e-45
2.00463e-42
9.04434e-32
2.86685e-32
2.22125e-31
1.37471e-31
2.29942e-32
1.00909e-31
2.81596e-31
7.7216e-46
6.69254e-44
4.68905e-43
6.52551e-45
2.74815e-42
2.04862e-45
1.96094e-42
1.63108e-37
5.12817e-37
6.00426e-39
1.36786e-47
5.9653e-35
3.81131e-36
8.4704e-49
8.68175e-09
1.02149e-08
4.74692e-08
1.01449e-08
6.87298e-09
5.43562e-09
3.64024e-08
3.55288e-11
3.01763e-11
1.11279e-10
2.62217e-10
6.53126e-10
9.58363e-11
1.25622e-10
2.39617e-13
1.85946e-13
1.24197e-12
2.86873e-12
2.83236e-13
5.89241e-13
5.844e-12
1
0.999999
0.999995
0.999995
0.999956
0.999948
0.999396
0.999999
1
0.999992
0.999862
0.999988
0.999942
0.999197
1
1
1
0.000420541
0.000264783
0.000420931
0.00433641
0.00944833
0.00156312
0.00222593
0.00579666
0.000120997
0.0027737
0.00410412
0.00163225
0.000887699
0.000858252
1.48678e-18
4.06388e-19
9.70784e-19
8.19381e-18
2.15787e-18
7.84841e-19
3.297e-18
1.3925e-18
4.59564e-18
1.3368e-17
1.55978e-20
9.86136e-20
1.06679e-20
1.17178e-23
1.65863e-23
3.97131e-23
1.37055e-19
1.20794e-20
1.6253e-20
1.33087e-19
6.30331e-19
9.44055e-09
1.49701e-07
1.00222e-06
0.395292
0.0182764
0.0880818
0.962774
0.384508
0.0983472
0.528129
0.999652
0.999957
0.999923
0.998043
0.997664
0.999736
0.999915
0.999714
1
0.999953
0.999995
0.999715
0.999255
0.999344
0.995889
0.998745
0.999987
0.998267
0.999986
0.999399
0.999999
4.69811e-05
0.000744714
1.92055e-05
2.73711e-05
0.000100559
0.000265403
1.09309e-05
8.03304e-06
8.33173e-05
0.000333801
8.0106e-06
1.75645e-05
2.30906e-05
3.855e-05
8.22399e-06
6.31661e-06
2.58579e-05
8.18721e-06
2.29172e-06
1.4452e-05
8.8344e-06
6.4747e-05
6.61368e-05
6.61368e-05
6.68106e-05
0.000116828
0.000155435
0.000121951
1.99997e-06
3.36319e-08
1.82836e-07
2.50963e-08
2.04039e-07
1.02307e-08
7.6859e-07
1.02785e-46
8.49212e-48
4.71219e-48
3.87542e-46
1.95054e-47
9.61768e-47
6.10237e-48
1.18695e-29
2.2763e-30
1.30465e-29
1.11159e-26
5.15373e-27
1.68364e-30
6.0447e-30
3.05346e-09
1.36559e-08
2.5596e-09
7.14176e-09
4.52958e-08
4.56048e-08
6.7191e-09
4.66645e-09
6.41668e-10
2.81818e-10
3.24515e-11
4.81245e-11
1.21893e-10
4.4131e-10
5.41564e-15
3.3385e-15
6.44427e-14
3.79588e-16
9.27915e-16
1.58761e-15
9.48549e-15
5.28595e-27
1.88405e-27
2.71608e-28
1.50353e-26
1.93243e-25
1.47148e-26
9.42514e-28
8.4912e-46
2.85243e-46
6.31357e-47
1.64019e-45
3.41053e-44
3.10829e-45
3.47181e-46
2.79645e-51
1.13874e-49
6.61572e-50
4.28697e-55
8.68897e-55
8.00787e-54
1.27225e-53
3.10668e-52
6.64216e-54
4.9557e-55
1.46646e-54
3.96357e-53
1.7365e-53
3.87303e-52
8.34936e-54
3.01329e-52
2.61147e-51
2.00292e-51
4.20391e-53
1.1391e-50
1.85889e-49
9.68792e-51
7.9266e-53
5.27573e-52
1.00545e-51
0.999157
0.995736
0.995731
0.995736
0.995739
0.999557
0.995754
0.998409
0.999561
1.93531e-05
3.78893e-06
5.23485e-06
0.0455742
0.0146814
2.21545e-05
0.0001225
0.00200818
1.0943e-05
6.58254e-40
7.17728e-07
0.000329314
0.995754
0.999591
0.999612
1
1
0.999998
1
1
1
1
0.999994
0.999993
0.999993
1
1
1
1
1
1
0.999997
0.999993
1
1
1
0.999998
0.999999
1
1
1
1
1
0.999996
0.999996
0.999996
1
1
1
1
0.999993
0.999997
1
0.56557
0.164134
0.964512
0.98887
0.989331
0.935931
0.951768
1.64918e-83
2.24862e-84
2.27774e-85
3.10012e-85
1.34348e-83
4.98936e-81
7.92086e-83
3.02186e-83
8.81893e-82
0.999897
0.999981
0.999995
0.999971
0.999922
0.999807
0.999954
0.999952
0.99896
0.995481
0.999673
0.999775
0.995593
0.999764
0.998831
2.36768e-82
2.30399e-82
7.62105e-80
4.49937e-80
2.99909e-79
1.08178e-78
5.6137e-18
9.60281e-17
1.5133e-18
2.0251e-13
3.75336e-11
5.16102e-18
4.05504e-08
1.43901e-09
3.22314e-09
9.92858e-10
1.16907e-19
2.93347e-21
3.56364e-21
1.16317e-26
9.2212e-25
3.2709e-26
2.90234e-15
9.14004e-20
5.06954e-13
0.000412877
0.000844169
0.00080407
1.20098e-20
3.53731e-19
1.30401e-19
6.9695e-18
2.87559e-19
1.48616e-18
1.32919e-19
2.4608e-27
4.03805e-28
2.69291e-26
5.56597e-28
3.23696e-07
7.52885e-07
3.38959e-06
6.3941e-08
2.46348e-21
1.91494e-17
4.85439e-14
2.65058e-15
3.86167e-08
9.36371e-08
4.35697e-09
2.98262e-07
1.17241e-08
2.30469e-07
3.0907e-09
3.47165e-09
7.70587e-08
9.79615e-10
1.44024e-15
1.45929e-19
1.78019e-13
3.55733e-12
1.78642e-06
2.1284e-06
4.13802e-09
2.83159e-08
4.36318e-10
5.68715e-09
8.59976e-09
1.51744e-08
2.9191e-08
9.50426e-07
2.31711e-07
5.21216e-07
5.04669e-09
2.60657e-08
2.34643e-09
2.2806e-07
1.87752e-08
8.78234e-09
3.72759e-08
1.2942e-08
1.97711e-08
4.02977e-08
2.45006e-08
3.86291e-08
2.36063e-11
7.45982e-12
5.51935e-12
1.55035e-12
0.0288442
0.0114155
0.0353461
0.00767384
3.11173e-20
1.54258e-21
8.04082e-21
1.04003e-60
1.43822e-62
1.89276e-62
4.03685e-64
0.0601252
0.394588
0.0443282
0.126859
2.61135e-05
2.466e-05
4.65857e-05
9.49562e-05
7.96028e-69
2.11631e-67
2.67223e-65
6.23322e-05
0.000271519
2.1436e-11
7.95835e-11
1.50273e-09
1.86178e-10
2.27892e-26
3.00746e-25
2.72402e-24
1.99769e-25
4.33443e-28
2.43593e-29
6.46177e-66
8.07722e-64
2.30274e-65
3.47892e-62
0.999662
0.993726
0.999618
0.997685
1.70381e-47
1.40219e-46
7.56387e-47
2.24909e-46
1.30115e-05
4.40342e-06
5.4758e-06
4.41802e-06
9.45306e-11
1.92021e-10
5.29505e-11
1.14321e-10
0.00198528
0.0011094
0.00155792
0.000749523
3.45745e-13
1.37674e-13
1.53677e-05
1.76964e-05
9.94427e-07
4.19741e-06
0.000597076
0.000297397
0.000914131
0.000422348
4.98442e-05
4.27821e-05
1.57632e-05
3.44459e-05
7.7179e-09
9.00065e-09
0.999599
0.999699
4.72215e-21
2.50217e-20
6.59078e-23
3.50866e-22
0.000118677
8.93482e-05
4.07738e-05
1.65085e-05
0.000120997
0.000125643
2.13267e-05
4.91307e-05
5.16512e-18
7.34193e-19
2.08353e-24
6.15259e-25
2.50692e-23
1.10358e-23