/*--------------------------------*- C++ -*----------------------------------*\
| =========                 |                                                 |
| \\      /  F ield         | OpenFOAM: The Open Source CFD Toolbox           |
|  \\    /   O peration     | Version:  v2012                                 |
|   \\  /    A nd           | Website:  www.openfoam.com                      |
|    \\/     M anipulation  |                                                 |
\*---------------------------------------------------------------------------*/
FoamFile
{
    version     2.0;
    format      ascii;
    class       volScalarField;
    location    "0.1";
    object      alpha.water;
}
// * * * * * * * * * * * * * * * * * * * * * * * * * * * * * * * * * * * * * //

dimensions      [0 0 0 0 0 0 0];


internalField   nonuniform List<scalar> 
6576
(
1
1
1
1
1
1
1
1
1
1
1
1
1
1
0.999999
1
0.999999
1
1
1
1
1
1
1
1
1
1
1
1
1
1
1
1
1
1
0.999999
0.999999
1
0.999999
1
0.999999
1
1
0.0356542
0.0357026
0.0357026
0.0286643
0.0237644
0.02818
0.0354301
0.0238493
0.0238261
1.13579e-41
3.60869e-41
8.59496e-42
1.15832e-40
1.80122e-41
3.21336e-42
1.88456e-41
1.87569e-37
2.33528e-37
4.86436e-37
4.64348e-36
8.56834e-37
5.34977e-37
1.4984e-36
4.22013e-31
1.36246e-31
6.0241e-32
5.71404e-32
9.61609e-32
2.21756e-32
2.06177e-32
1.22581e-08
3.96537e-08
6.11956e-08
2.82976e-07
5.68676e-08
1.93257e-07
1.04639e-06
1.2743e-11
1.1966e-12
6.62529e-12
5.71272e-10
6.48796e-11
9.95826e-12
8.14306e-11
0.00239616
0.0023846
0.000600728
0.000121111
0.00168609
0.00196915
0.00425153
0.0114715
0.00254609
0.0493015
0.0055161
0.00358281
0.0378609
0.012439
1
0.999995
1
1
1
0.999995
0.999904
0.999759
0.999911
0.997887
0.98952
0.954943
0.999504
3.22967e-06
1.36753e-33
6.0977e-07
3.13027e-10
1.94165e-11
4.27148e-07
6.48863e-07
0.450842
0.845741
0.646966
0.978478
0.958886
0.992362
0.977847
1.126e-15
5.99652e-15
1.04453e-34
1.496e-07
8.74917e-08
2.9386e-07
6.91451e-08
1.67807e-16
1.09215e-17
1.06479e-16
3.70099e-15
2.30984e-16
2.7902e-17
8.36437e-16
1.09128e-14
3.50331e-14
1.09517e-14
1.09715e-13
2.6517e-13
4.06741e-14
3.80661e-14
1.02127e-15
8.6588e-17
3.12243e-16
7.44073e-16
1.46692e-16
9.51222e-17
6.56859e-16
2.7146e-13
1.43825e-12
2.69354e-12
5.14271e-13
7.6494e-12
1.85154e-11
7.58172e-12
1.6417e-11
2.51287e-12
1.65662e-13
1.1589e-13
3.59124e-13
8.48108e-13
2.93208e-13
1.01851e-13
4.98517e-13
1.01559e-10
1.74835e-10
5.20396e-10
1.88735e-10
3.08051e-10
1.12802e-09
1.06272e-09
5.43466e-10
3.26923e-10
1.83388e-08
1.94723e-07
3.8568e-07
4.49836e-08
1.21527e-07
6.42275e-07
5.76289e-07
1.58756e-07
4.75182e-07
1.20002e-07
8.68814e-08
1.2542e-07
4.6916e-08
1.45076e-07
2.24128e-08
1.37624e-07
4.83865e-06
7.3597e-07
5.09465e-06
8.49445e-06
6.92471e-06
1.18515e-06
3.55629e-06
5.05962e-06
5.50835e-06
1.01542e-05
1.38752e-05
3.14261e-06
1.19655e-05
2.42387e-05
4.92704e-07
4.58903e-07
4.54529e-07
7.29952e-07
2.40666e-06
1.04101e-06
4.54721e-07
4.40157e-09
1.95938e-08
4.77143e-08
2.24775e-09
2.02315e-09
6.64465e-09
7.88358e-09
5.83035e-10
1.31248e-09
1.6077e-09
2.80281e-09
8.35614e-10
3.27828e-09
3.06783e-09
1.60327e-09
1.83456e-09
9.78859e-10
8.21315e-09
8.05125e-09
4.34813e-09
4.08079e-09
1.14693e-11
1.16878e-11
1.99697e-11
4.39587e-11
1.79805e-11
2.31388e-11
7.68378e-12
9.62054e-14
7.54672e-14
2.76808e-14
1.09437e-12
1.62702e-12
3.46356e-13
9.44373e-13
5.22925e-13
1.18619e-13
6.24944e-17
2.35852e-16
8.08964e-17
5.395e-15
2.54109e-15
7.4649e-15
3.28307e-15
9.00051e-31
9.10488e-28
4.96481e-27
1.78658e-29
1.80858e-30
2.96917e-28
1.78236e-27
0.999957
0.999671
0.999794
0.999968
0.994455
0.929075
0.997032
0.964384
0.997149
0.00172268
0.00216462
0.00161166
0.00160749
0.00243693
0.001612
0.00492425
0.000280866
0.000272609
0.000497149
0.00191744
0.000939131
0.000624431
0.000460917
0.000994572
0.00102597
0.00324946
0.00174308
0.00175727
0.0070167
0.00252366
0.00323927
0.00295431
0.00215662
0.0021551
0.0104085
4.26492e-29
7.11764e-28
1.12902e-29
1.63931e-29
1.7862e-30
2.46207e-31
4.17471e-31
0.0323673
0.0195485
0.00931157
0.0490034
0.0255984
0.00898562
0.0233049
0.0215836
0.0140617
3.54602e-18
8.26896e-17
7.10993e-18
1.32592e-18
4.55177e-19
1.50725e-17
2.84867e-18
0.00037673
0.00167831
0.00274448
0.000519549
0.000946833
0.000714109
0.000338133
7.60106e-07
4.22566e-07
1.32658e-06
5.86972e-06
1.26289e-06
5.19104e-05
1.48019e-05
3.93097e-06
1.86276e-05
0.000691103
0.00629683
0.00231383
0.000537437
0.00723069
0.0019889
0.00444592
0.0104818
0.00213495
0.999905
0.999762
0.999375
0.999077
0.999726
0.993597
0.998585
0.999979
0.999063
0.999994
0.999971
0.999656
0.823785
0.991618
0.991451
0.999886
0.0142377
0.0174294
0.0142366
0.0244745
0.0194106
0.0321842
0.0152309
0.00348681
0.003392
0.00915884
0.00451078
0.0128761
0.00495377
0.00808829
1.71919e-24
8.81964e-23
7.27005e-24
1.28946e-21
2.1371e-22
8.20552e-23
6.76782e-23
7.5526e-24
1.65517e-23
9.06252e-16
6.21202e-15
1.09027e-16
2.15736e-15
1.84379e-16
7.38289e-16
1.02218e-16
4.53196e-10
4.2275e-11
7.92479e-11
5.76721e-10
9.18234e-11
1.79357e-10
3.89873e-11
2.83678e-11
1.7072e-10
0.0171288
0.0181604
0.0153403
0.0430216
0.0176792
0.0167682
0.027149
0.00948244
0.0207916
0.0334562
0.0101164
0.0086506
0.00790239
0.0188991
5.06459e-19
1.57523e-17
1.04505e-17
1.26476e-19
7.21541e-20
1.9367e-18
9.67188e-19
1.45571e-21
2.29e-21
5.15154e-22
1.20268e-21
4.01676e-22
1.54707e-22
3.5524e-22
9.98829e-26
2.26569e-24
1.28778e-24
1.61633e-25
5.22999e-25
1.75486e-24
7.10756e-25
3.07962e-31
1.43043e-31
1.9908e-34
2.22507e-32
5.33486e-33
3.79508e-34
1.57825e-33
5.27723e-33
3.80928e-32
2.38505e-35
8.34556e-36
2.87846e-40
5.61379e-40
3.60648e-39
2.79987e-38
1.29582e-37
2.60045e-44
4.68255e-43
6.57086e-44
1.8357e-44
6.12509e-45
1.46991e-43
2.69801e-44
6.33449e-44
8.26556e-44
2.77491e-44
1.15812e-43
9.08313e-43
1.86502e-43
2.01238e-44
2.1333e-39
5.28813e-38
6.56561e-39
9.56746e-40
3.66276e-39
2.80204e-38
3.45137e-39
9.1558e-47
2.67424e-43
8.88027e-45
3.66734e-41
9.07211e-42
1.16437e-38
4.08724e-38
2.02025e-39
4.30367e-40
7.16602e-39
3.95795e-41
2.50352e-42
3.32465e-46
1.07946e-34
4.40463e-35
1.25154e-34
1.90658e-34
1.01866e-33
2.26348e-33
4.90474e-34
2.98642e-36
2.54319e-36
1.87671e-36
1.89156e-35
1.19626e-35
1.03217e-35
6.7014e-36
5.41828e-37
1.81033e-34
2.26764e-36
1.35209e-32
9.13002e-32
2.36015e-32
2.44061e-32
1.43073e-31
1.60997e-31
6.2249e-31
1.25763e-30
2.3239e-31
7.23462e-30
6.15404e-32
1.65053e-29
3.16575e-29
9.94377e-29
3.06443e-30
6.65762e-30
1.84569e-28
9.1618e-32
9.20324e-28
1.99656e-27
7.55049e-25
1.22365e-27
3.92836e-27
5.56766e-25
3.97291e-24
6.40716e-20
4.29483e-22
3.60202e-23
2.83291e-18
2.30065e-18
2.11585e-21
1.33001e-21
6.50679e-22
1.04355e-21
2.28292e-18
6.38932e-18
1.89088e-18
2.42871e-17
9.5696e-18
1.64692e-17
2.30733e-18
1.89903e-15
9.9311e-16
6.90849e-16
4.64794e-15
3.45965e-15
1.90599e-15
1.284e-15
2.58086e-16
3.2636e-16
1.88899e-16
7.46346e-15
4.79021e-15
2.09198e-15
3.58234e-15
6.11214e-13
2.1669e-12
1.30887e-12
1.57384e-13
5.52594e-14
7.86708e-11
1.85916e-10
8.18351e-11
3.57349e-10
1.94933e-10
1.62321e-10
5.58053e-11
2.75654e-09
5.89461e-09
2.77125e-09
1.57308e-08
2.87099e-08
2.57859e-08
1.31509e-08
5.58424e-06
1.22443e-05
6.08837e-06
1.17324e-05
2.23697e-05
5.30102e-05
2.21198e-05
7.31765e-06
9.598e-07
2.59179e-06
9.27004e-07
3.74314e-07
9.64071e-07
3.24177e-06
4.09554e-09
1.4699e-08
5.71423e-08
1.20519e-10
3.44596e-10
6.13288e-11
1.11154e-10
4.36601e-09
7.30874e-09
1.55987e-09
6.28952e-11
1.49515e-10
1.41715e-11
3.63995e-10
1.64481e-11
7.3684e-11
1.15961e-35
7.01016e-37
8.26775e-36
6.7607e-34
2.91886e-35
5.72855e-35
9.72049e-34
1.36771e-27
1.05382e-28
4.33252e-27
2.17474e-26
1.66206e-33
2.49211e-25
3.74414e-32
1.89058e-20
1.60976e-21
4.23459e-22
1.89965e-23
7.52017e-23
1.0303e-21
1.36183e-22
1.00529e-16
2.16064e-16
1.07711e-15
1.25655e-15
3.35653e-15
1.58433e-14
4.02446e-14
4.01281e-13
9.16384e-12
2.81599e-13
4.89405e-13
6.42564e-14
1.62324e-10
2.1094e-11
1.19457e-11
1.2633e-12
3.10516e-13
1.43871e-12
3.82538e-12
1.12305e-10
6.47726e-12
4.60554e-12
8.19897e-13
3.41037e-11
3.4705e-12
2.11227e-07
1.62718e-06
1.08899e-07
9.18311e-09
1.8524e-08
2.52906e-08
1.64945e-07
9.19248e-09
4.82383e-08
3.89032e-09
5.20892e-08
9.21959e-07
1.02951e-07
1.92228e-07
5.28514e-08
4.75235e-09
8.40764e-05
0.000192237
1.67738e-05
4.69872e-05
1.33851e-05
2.71528e-05
0.00222315
0.00145143
0.000942804
0.00153606
0.00386197
0.000758051
0.000170939
8.14309e-05
0.00092516
9.26574e-05
0.000228472
6.79512e-05
0.00391245
0.00167807
0.00101149
0.000877377
0.00665903
0.0021551
0.00938812
0.0104899
0.000526058
0.000272732
0.000236094
0.00366392
0.0016094
0.000894541
0.00427092
0.0104901
0.0104601
0.0101089
0.000538523
0.00244202
0.0172947
0.00865649
0.00688811
0.00724112
0.0102392
0.0189159
0.00931574
0.999986
0.999907
0.999987
0.919607
0.96594
0.994949
0.998085
0.998071
0.988927
0.99646
0.990764
0.993276
0.970423
0.992846
0.998742
0.978555
0.852558
0.974622
0.933961
0.999479
0.999658
0.998692
0.999998
0.999993
0.999961
0.99997
0.999884
0.997897
0.999753
0.998316
0.999311
0.99907
0.999938
0.999934
0.999993
0.999852
0.999776
0.999353
0.994579
0.999989
0.999023
1
1
1
1
0.999987
0.999998
0.999992
0.984841
0.95666
0.99411
0.999714
0.993893
0.883998
0.99728
0.007151
0.00677701
0.00308766
0.185564
0.010487
0.0167756
0.0193512
0.00465929
0.00463011
0.0046528
0.00865468
0.0121796
0.0132519
0.0073544
0.000240611
0.000164972
0.000182614
6.10798e-05
3.98943e-05
2.91857e-05
4.72224e-06
4.18827e-14
8.74058e-16
1.04851e-15
3.37841e-15
3.15629e-16
4.36157e-15
5.04737e-14
6.74475e-12
8.77957e-13
2.24061e-10
1.9027e-13
3.96213e-11
1.25471e-09
5.85885e-09
9.84712e-12
4.04911e-10
3.6768e-11
4.64681e-09
1.68662e-09
9.20316e-10
6.30989e-10
4.43745e-11
8.91842e-11
1.15969e-13
1.51391e-12
1.10954e-13
2.30282e-14
1.12864e-14
1.46197e-13
1.77508e-14
4.73786e-13
6.49792e-14
2.74425e-16
2.09218e-16
9.69542e-17
3.21084e-17
4.64019e-17
8.17673e-17
2.94476e-17
3.38714e-12
4.43027e-13
2.47226e-12
5.85945e-13
2.07434e-13
8.10874e-13
2.03876e-12
1.34935e-10
3.42162e-10
1.03117e-10
1.79368e-10
1.20899e-09
9.31994e-10
2.92686e-10
2.01225e-11
1.12876e-11
7.47529e-13
2.996e-13
1.02012e-13
7.51924e-25
2.89453e-23
8.90926e-24
1.32132e-25
3.61193e-25
1.03379e-23
1.73405e-24
8.17316e-29
7.63841e-31
2.72177e-28
1.3718e-30
6.41722e-30
8.25302e-29
2.45103e-29
1.09762e-38
8.21108e-38
6.10723e-39
1.42901e-38
1.55726e-39
1.03477e-39
3.018e-39
2.32766e-48
1.26915e-47
2.26878e-46
3.77353e-49
3.44323e-48
3.25983e-48
6.10928e-47
5.71702e-44
2.21532e-38
2.95087e-39
8.21084e-43
1.05671e-43
4.84643e-40
1.24299e-41
9.12294e-42
3.27276e-47
5.21319e-41
6.62623e-47
5.68649e-46
5.35594e-40
1.61127e-40
2.65465e-41
1.99612e-45
1.32372e-46
9.11737e-40
4.15462e-39
1.21665e-39
1.12685e-42
1.71261e-42
1.84209e-41
2.07707e-40
1.55127e-40
5.89121e-42
1.3352e-41
3.97412e-41
3.33771e-45
1.07618e-44
1.43413e-45
1.0081e-34
6.20643e-35
4.71892e-34
2.06423e-33
4.4486e-33
1.23717e-33
6.5242e-35
1.97165e-31
8.84214e-31
1.41145e-31
2.44895e-31
5.8006e-31
1.85006e-30
1.67335e-31
4.88448e-28
2.49749e-28
5.09985e-27
4.38226e-27
1.47158e-27
6.56718e-28
2.35748e-26
1.44715e-27
2.27055e-27
6.15227e-27
4.7816e-25
2.87599e-25
8.80366e-25
1.3101e-22
5.20686e-22
4.74181e-22
3.96679e-23
2.72879e-22
1.09489e-22
9.29733e-21
2.8431e-22
3.93159e-20
1.46378e-20
2.05373e-18
2.03662e-18
7.93423e-19
7.8704e-18
2.38945e-18
1.12821e-17
8.70664e-16
1.13485e-16
5.77803e-15
2.75353e-15
2.07928e-16
6.13031e-15
2.15266e-14
9.5049e-13
1.06694e-12
9.85673e-13
2.30938e-12
2.04998e-12
2.92758e-12
3.0098e-12
1.39243e-14
1.25415e-14
1.12671e-13
2.57411e-12
1.6589e-12
2.36212e-14
1.49065e-13
5.62794e-13
4.06285e-13
1.46876e-13
5.49948e-14
7.12432e-14
1.18499e-13
2.77935e-14
4.24689e-14
2.30934e-13
7.34491e-09
3.66085e-09
3.36451e-09
6.75306e-09
5.16198e-09
9.06506e-09
5.7358e-09
5.21287e-08
5.24551e-08
1.25988e-07
2.11288e-07
3.92856e-07
1.19935e-06
3.28794e-06
2.08755e-06
7.23992e-06
6.45314e-06
5.93791e-06
3.87683e-06
1.28177e-05
1.19328e-05
1.26159e-05
1.16371e-05
6.84729e-06
1.16837e-05
1.7284e-05
2.99625e-05
1.38254e-05
2.86121e-05
2.70164e-05
1.20923e-05
1.95751e-05
1.21488e-05
7.68514e-06
1.70906e-06
4.21358e-06
6.65647e-06
8.35761e-15
5.84168e-14
1.90291e-13
2.6469e-16
3.18288e-16
1.39535e-15
5.90149e-15
1.73742e-16
1.00204e-15
1.39241e-15
3.35151e-14
8.15609e-17
6.75082e-16
7.0019e-15
3.0318e-17
9.50374e-21
9.11753e-19
7.46574e-18
1.88475e-21
1.0077e-19
3.48948e-20
1.64958e-21
9.43727e-19
4.40498e-27
2.1344e-25
9.85881e-29
1.04134e-24
1.52954e-23
1.8689e-25
1.51414e-26
2.75512e-23
9.97321e-25
6.40522e-25
2.25374e-25
1.16808e-24
2.19126e-26
5.58197e-26
7.82437e-19
8.92334e-19
2.56759e-17
1.34976e-20
4.58613e-20
1.16634e-20
1.10462e-19
3.34221e-20
1.15989e-18
2.59022e-21
1.34904e-20
7.82534e-19
2.92738e-20
4.21502e-20
1.01843e-20
1.25718e-21
1.18263e-15
2.59688e-15
1.14186e-14
3.34683e-15
5.38588e-14
1.83826e-14
4.06394e-13
8.64444e-17
1.38193e-15
1.405e-16
1.24982e-11
5.30381e-10
2.90496e-11
2.21787e-07
3.64041e-06
5.42919e-07
0.000231366
0.000186193
6.85389e-05
7.54345e-05
0.000198685
0.000265281
0.000491254
0.999966
0.999996
0.999729
0.997167
0.994405
0.998767
0.9823
0.916742
0.795482
0.981823
0.999999
0.999994
0.999798
0.999058
0.999591
0.998019
0.995239
0.999341
0.983752
0.997004
0.999911
0.999972
0.999733
0.999999
0.999977
1
0.99998
0.999997
0.999998
0.999999
0.988203
0.995805
0.998434
0.999118
0.999118
0.946209
0.00861302
0.00942345
0.0105743
0.0312199
0.052506
0.0338971
0.0176483
0.01358
0.0138015
0.0116597
0.0116674
0.0120387
0.0138217
0.0160124
5.86956e-05
6.13097e-05
6.08429e-05
0.00023156
0.000320289
0.000613372
0.00130196
9.03771e-07
2.16309e-06
9.00097e-07
6.25446e-06
1.83675e-06
3.32608e-06
1.5998e-06
5.50523e-10
1.07634e-10
5.77016e-11
1.76871e-11
5.63833e-10
6.76353e-12
1.01748e-10
1.47826e-17
9.43407e-17
1.69304e-16
4.89647e-16
1.05886e-14
4.65828e-16
2.99706e-16
3.04063e-12
4.24054e-13
1.15787e-11
2.80765e-11
4.68188e-10
4.80681e-11
2.06458e-12
9.23243e-09
7.7935e-09
5.5238e-10
1.34208e-09
1.12904e-09
1.26308e-10
1.35796e-10
9.179e-10
5.36781e-10
3.06472e-09
4.13911e-08
4.50737e-08
7.61578e-09
4.72392e-09
9.60346e-17
3.34781e-16
2.22452e-15
6.88634e-17
1.25257e-17
6.38368e-17
5.7329e-16
2.12124e-24
1.5503e-22
2.1531e-23
2.33615e-25
1.06553e-24
1.17958e-22
1.23741e-23
9.21116e-28
1.61775e-28
8.47266e-30
7.58987e-30
7.38792e-29
5.49435e-29
2.79122e-28
1.48745e-32
7.27514e-34
1.20269e-31
8.62862e-34
9.12775e-33
1.31746e-33
2.75876e-34
1.34903e-36
1.2374e-40
1.2397e-35
2.45169e-40
3.42978e-39
2.83801e-38
2.18624e-37
3.11611e-37
8.3515e-39
9.79715e-37
5.16182e-36
1.01453e-39
7.60816e-35
1.89644e-37
1.55625e-38
3.24443e-35
1.57201e-43
6.54182e-42
4.15555e-43
6.17056e-44
1.65186e-44
1.0672e-42
9.2339e-44
7.54125e-43
1.02584e-43
3.72523e-44
1.43116e-42
2.17662e-41
1.58631e-42
9.6339e-44
4.63604e-48
4.64533e-47
1.28255e-48
2.10598e-45
9.32618e-47
9.66537e-46
3.49212e-45
2.02315e-46
3.13753e-47
1.21239e-46
4.35559e-46
1.04565e-44
1.85837e-46
3.14148e-45
1.04685e-46
3.08353e-46
1.20917e-44
5.7616e-47
1.79106e-47
3.83692e-46
6.04118e-45
4.3373e-44
1.90468e-49
4.18439e-36
3.10644e-35
4.00394e-36
2.20948e-35
2.34041e-36
3.39651e-35
7.63202e-36
1.80412e-32
1.23448e-33
2.53791e-33
3.69851e-32
1.36997e-31
1.12046e-33
6.05938e-33
7.27623e-35
1.33826e-34
7.90412e-34
1.67109e-32
9.99028e-34
5.08479e-30
2.98444e-29
8.91777e-30
1.12786e-27
2.18109e-27
2.93955e-27
1.18739e-27
1.46322e-28
2.99188e-28
5.61631e-29
1.40426e-27
1.05708e-27
1.51266e-28
5.7798e-28
1.17634e-21
6.79541e-22
7.61902e-22
2.38362e-21
2.06928e-21
9.66458e-18
2.24788e-17
4.93327e-19
2.41238e-18
4.48275e-18
1.18825e-19
1.74448e-19
1.51362e-19
1.06365e-19
1.13251e-19
3.9913e-18
7.10491e-18
4.37442e-18
8.17215e-18
2.30837e-16
5.77477e-16
7.93416e-16
3.15541e-16
1.53884e-15
3.15225e-15
1.47706e-15
7.9812e-17
3.19201e-16
1.29314e-16
2.59002e-13
3.23576e-13
2.17465e-13
4.37536e-13
7.56183e-13
8.59029e-13
4.04774e-13
1.76589e-13
8.21977e-13
3.41022e-13
1.07904e-10
2.96795e-10
9.79527e-11
1.09975e-10
1.50554e-10
1.75158e-10
1.38002e-10
1.76339e-11
3.94064e-11
1.7703e-10
3.55898e-11
9.89802e-11
7.02216e-10
4.38798e-10
1.27775e-11
9.82451e-12
2.31034e-11
2.00493e-09
2.45588e-09
3.41265e-09
3.25819e-09
3.8963e-09
8.25077e-09
5.5307e-09
1.29901e-09
1.38166e-09
2.15711e-09
1.04885e-08
8.01806e-09
9.79204e-09
1.82862e-08
1.19099e-07
1.23318e-07
1.18152e-07
1.41173e-07
2.51261e-07
3.88476e-07
2.28435e-07
6.58343e-07
2.81905e-07
8.2595e-08
7.41433e-08
5.77314e-08
2.8159e-07
3.49153e-07
0.000146252
0.00043522
0.000184449
0.00010701
0.000159139
0.000327611
0.000141587
1.05919e-05
3.26044e-05
1.05784e-05
5.0007e-05
0.000172085
1.65142e-05
2.38664e-05
1.04797e-05
9.30474e-07
5.34662e-06
9.1099e-07
5.34879e-07
3.7377e-06
3.51561e-06
2.24271e-07
9.57888e-08
3.76786e-07
4.73692e-08
1.15959e-07
1.0834e-07
1.92058e-07
2.80303e-07
1.40246e-07
1.27182e-07
2.86516e-07
1.26653e-07
2.29139e-07
3.89796e-07
2.5212e-07
4.81381e-08
6.9775e-09
2.55701e-09
6.63884e-09
1.06475e-09
1.53199e-09
2.08336e-09
3.19324e-09
7.13501e-12
1.85066e-13
7.63052e-13
1.0103e-13
3.74087e-13
1.60701e-13
1.42975e-12
6.17313e-13
5.18812e-12
2.21207e-16
2.95552e-15
9.83329e-15
1.19344e-16
2.59476e-17
2.16149e-16
3.5111e-17
8.91331e-16
3.28834e-15
1.06055e-17
2.09372e-15
3.3721e-14
1.29881e-16
1.58889e-15
1.38342e-18
9.41948e-15
8.08794e-31
5.02948e-29
9.77172e-33
4.62557e-32
6.93936e-31
1.04541e-29
3.40221e-31
8.72962e-35
3.78351e-34
2.36305e-35
1.0901e-32
9.08754e-34
7.76943e-35
6.17802e-34
1.03099e-30
1.3325e-29
2.62592e-29
1.89946e-31
1.16145e-31
1.21181e-30
2.37276e-30
7.1292e-34
6.81511e-33
3.11937e-35
1.32649e-32
1.61381e-33
8.95103e-34
6.77313e-35
2.33542e-31
6.42305e-32
1.39982e-30
2.23309e-30
4.75387e-29
3.48251e-30
1.32702e-31
3.04576e-28
1.14022e-29
5.82851e-30
8.92468e-27
1.43601e-27
6.49582e-27
7.05413e-26
6.02944e-31
3.55158e-32
1.53601e-32
3.20334e-33
2.48075e-32
5.3093e-31
3.47113e-32
1.72887e-27
2.44094e-29
8.02093e-28
3.64531e-29
3.07044e-26
1.01296e-28
2.3615e-22
8.23008e-24
3.75431e-24
4.15729e-24
9.83799e-23
1.89346e-24
4.63187e-24
2.9448e-25
6.90858e-23
1.88811e-24
8.387e-18
3.12536e-19
1.90589e-19
4.2218e-05
1.93153e-05
2.35619e-05
3.35431e-05
2.86684e-05
3.67931e-05
5.43245e-05
0.998
0.996542
0.979713
0.981237
0.940641
0.782878
0.976995
0.999997
0.999867
0.999801
0.998408
0.999711
0.998391
0.999531
0.990527
0.980007
0.999857
0.999791
0.999954
0.997936
0.00265976
0.00756513
0.00682712
0.00173469
0.00601872
0.0170859
0.00387026
0.0167061
0.0163629
0.0081455
0.0164897
0.0145458
0.0147491
0.00367752
1.74911e-09
6.8315e-09
1.80817e-08
2.63136e-10
3.77127e-10
1.77789e-09
1.99263e-09
5.53561e-10
2.8198e-11
5.7681e-11
1.11244e-08
2.35531e-09
2.6461e-09
1.17972e-08
1.74822e-08
1.1095e-07
3.21605e-17
9.32681e-15
3.44207e-16
9.94297e-16
6.59377e-14
7.14082e-16
2.02106e-14
4.99482e-15
2.91023e-16
3.1506e-15
2.14942e-12
7.03445e-13
1.40134e-11
2.83465e-12
3.03816e-12
4.0942e-11
3.78531e-17
3.96907e-17
1.75831e-18
3.02979e-18
4.90366e-18
6.92422e-16
1.59283e-15
1.77699e-17
6.10453e-17
3.22125e-17
4.57106e-16
4.53302e-18
2.13282e-18
4.07002e-17
1.88217e-19
2.01553e-18
6.69011e-25
9.48172e-26
2.6572e-27
1.60425e-27
1.14793e-26
3.95375e-29
2.45653e-28
1.25145e-30
1.48866e-31
1.5733e-33
1.90573e-31
1.46446e-30
1.84607e-33
2.10635e-32
1.75046e-37
1.94791e-36
4.7741e-37
3.23103e-36
5.06487e-35
8.07878e-36
1.74092e-36
1.00215e-40
2.71574e-40
8.02665e-40
4.20169e-39
4.62363e-40
2.47401e-39
2.37268e-38
3.00394e-35
5.05675e-34
1.52076e-35
4.24897e-35
2.92901e-34
2.83848e-41
8.36188e-41
1.39584e-40
1.66862e-39
2.25836e-40
2.21579e-33
6.66264e-35
9.39451e-34
8.08869e-35
1.24908e-35
4.9649e-41
7.42391e-40
2.09642e-38
1.57049e-39
1.66998e-40
3.87833e-44
2.2967e-45
5.4785e-45
1.71199e-40
3.16286e-36
1.91054e-35
4.13135e-39
3.3613e-40
1.47456e-33
1.31393e-34
6.63707e-35
4.7533e-33
2.76374e-32
3.88397e-32
2.47695e-31
4.13455e-32
1.44587e-31
2.8275e-35
3.06867e-34
5.1844e-35
2.22442e-32
5.54543e-33
1.25381e-28
5.184e-28
9.73845e-31
1.50478e-28
4.62212e-29
1.59675e-30
7.17181e-30
4.59075e-29
1.9607e-28
8.69419e-31
8.44742e-30
1.68174e-30
2.39713e-28
1.57262e-29
1.07879e-19
6.43079e-19
3.20383e-19
2.57205e-19
1.938e-18
6.55841e-19
2.09638e-18
1.25317e-11
3.73364e-11
1.59861e-11
2.67127e-10
1.6985e-10
6.87803e-11
1.05121e-10
2.40861e-09
2.00493e-09
4.96535e-09
4.41544e-08
7.04395e-08
4.44235e-08
9.10274e-08
1.72472e-07
2.57819e-07
1.36423e-07
2.51096e-08
5.5261e-08
5.1005e-08
7.05911e-07
5.13695e-07
2.1871e-06
1.62338e-06
2.1879e-06
5.31643e-06
4.69809e-06
4.72093e-07
4.74079e-07
1.37655e-06
3.64835e-06
8.22679e-06
3.64309e-06
8.5732e-06
1.72894e-05
2.06275e-05
5.28738e-08
1.72918e-07
5.87385e-08
1.51361e-06
1.55473e-06
7.10801e-06
1.03135e-06
5.05598e-06
7.37304e-06
2.89597e-06
0.348893
0.783536
0.967591
0.983307
0.988617
0.971655
0.96072
0.000605889
0.000303398
0.000931544
0.0013687
0.00154872
0.00753535
0.0133037
0.0023662
0.0126485
0.00194195
0.00937222
0.00470456
0.0372289
0.00415359
3.08655e-07
1.36803e-06
1.32034e-06
6.79206e-07
4.21222e-06
2.42803e-06
1.44492e-07
0.00122999
0.000339932
0.00284849
0.000309032
0.000674138
0.00195622
0.00495062
2.32912e-08
1.09288e-08
1.11373e-08
3.9819e-08
8.98219e-09
2.33549e-08
6.04936e-08
8.1874e-10
1.4744e-09
1.41507e-10
2.75166e-10
1.5945e-10
5.7753e-10
9.90857e-10
2.81579e-10
9.39741e-11
4.42499e-10
3.14405e-10
3.14212e-10
1.7198e-09
6.94901e-10
2.89428e-10
1.05807e-09
5.88491e-11
6.03454e-11
2.73353e-11
3.00418e-11
1.46949e-11
1.5108e-11
9.82774e-12
4.34456e-15
1.26542e-14
7.72219e-15
2.86798e-14
9.93467e-15
2.73919e-14
1.99837e-14
1.49912e-18
2.92242e-17
5.7183e-19
9.07545e-20
1.23149e-18
7.79334e-18
7.21548e-20
1.09177e-38
2.26922e-37
3.76887e-37
3.07019e-35
2.85924e-37
4.59402e-38
3.66715e-36
3.63189e-41
2.16583e-42
1.28519e-42
2.91013e-42
5.15543e-43
8.6454e-44
3.78578e-43
2.68091e-36
3.57855e-36
1.94112e-37
4.47876e-39
1.62923e-38
1.91864e-37
2.26121e-37
2.57761e-38
3.12684e-38
1.44278e-39
4.17783e-42
1.78165e-40
1.04127e-41
4.3789e-40
2.08405e-41
2.80635e-39
8.56604e-38
7.28038e-39
1.47472e-37
2.08016e-36
6.91093e-38
5.20382e-37
1.36915e-35
1.84551e-39
1.08634e-38
1.09065e-37
5.42928e-35
4.57996e-36
1.38083e-36
4.05311e-35
9.61726e-34
4.35542e-36
4.76614e-35
3.58499e-31
5.0944e-30
1.88797e-30
3.16521e-28
5.83061e-29
4.62288e-30
3.00313e-29
8.25375e-35
3.92609e-34
6.51694e-33
1.82204e-31
4.36126e-30
3.72342e-30
4.67338e-27
1.17046e-26
1.77401e-25
5.95528e-27
5.49328e-28
3.75614e-27
7.04263e-26
6.51502e-09
1.44685e-08
5.12512e-10
2.26006e-11
1.75942e-11
3.76657e-10
2.05388e-10
1.39674e-07
2.59968e-06
1.226e-06
2.0316e-06
5.00553e-07
1.47298e-06
1.95003e-07
0.029038
0.0110483
0.0623662
0.000368752
0.00124949
0.0166613
0.0313033
0.0302876
0.0264389
0.0541872
0.139967
0.0501766
0.0164506
0.156727
0.999966
0.999929
0.999822
0.999949
0.999422
0.999827
0.998223
0.986182
0.999911
0.998925
0.999993
0.999965
0.999519
6.94056e-28
6.34231e-29
4.05596e-30
2.65124e-30
2.48786e-31
5.12125e-32
3.21018e-32
2.01265e-31
1.61368e-31
2.13429e-30
4.38589e-30
9.61346e-31
5.89433e-29
5.0516e-30
1.41046e-29
1.78826e-28
1.61749e-29
3.91971e-28
4.82232e-27
3.194e-28
7.61774e-29
8.67154e-31
2.19293e-29
1.64677e-30
2.60043e-30
2.9922e-29
2.98754e-28
1.21063e-29
9.43898e-32
3.14939e-31
8.02533e-31
2.93453e-29
1.61568e-30
5.07385e-30
3.71065e-31
2.06567e-31
1.32619e-32
2.14643e-32
4.30291e-32
3.58776e-33
5.63861e-33
9.56055e-32
1.14413e-30
2.17365e-32
1.10234e-31
4.99102e-34
5.57456e-34
5.54289e-33
1.35594e-32
1.12555e-33
1.76118e-33
1.5018e-32
5.05302e-29
5.02427e-28
1.34611e-30
2.05903e-30
1.77825e-31
9.03408e-29
1.0655e-29
7.60065e-25
4.85899e-23
1.20464e-25
9.96376e-24
4.2826e-25
1.31281e-22
4.98514e-24
1.39652e-06
1.53887e-06
7.16568e-07
4.49786e-06
3.66432e-06
1.23461e-06
2.56e-06
8.16003e-07
2.88844e-07
2.93104e-07
1.74981e-06
1.06108e-06
1.10362e-06
1.93575e-06
3.31891e-05
4.139e-05
3.27536e-05
4.139e-05
2.48294e-05
5.70447e-05
7.22832e-05
3.72086e-05
5.93515e-05
5.96265e-05
5.87959e-05
4.49818e-05
0.942188
0.54204
0.973707
0.79493
0.221725
0.0603006
0.892019
0.00122127
0.0033436
0.00477622
0.000732084
0.000981159
0.00133389
0.00283434
9.53822e-05
7.22534e-05
0.000125101
0.000126907
7.22534e-05
8.77538e-05
0.000242871
9.43328e-08
1.79874e-08
7.62578e-08
2.92531e-06
1.36022e-06
1.33832e-06
1.36277e-06
5.87543e-06
9.96258e-07
5.87353e-06
2.59807e-05
1.65725e-05
4.21658e-05
1.46821e-07
1.06979e-07
4.18394e-07
3.15425e-07
1.79476e-06
5.72594e-07
1.79048e-08
6.82111e-09
1.11736e-08
3.89927e-09
6.57424e-09
9.04459e-09
1.16006e-08
8.96916e-10
5.99812e-10
2.27598e-10
5.92181e-10
3.56142e-10
1.82421e-10
2.17221e-10
8.49689e-16
3.62566e-16
3.48044e-15
5.33282e-17
3.10717e-16
1.37731e-15
1.12754e-16
3.85732e-19
6.06124e-18
3.84629e-19
3.77888e-20
4.07026e-19
2.16393e-18
7.20507e-20
8.00345e-22
2.24299e-20
7.27218e-22
1.1954e-22
1.74786e-21
9.44475e-21
2.62065e-22
1.28319e-23
1.21602e-25
2.88654e-25
8.34549e-27
1.23822e-25
3.22645e-27
1.31149e-24
2.07167e-26
6.26725e-24
3.40734e-32
1.51178e-31
3.40896e-34
1.33579e-33
6.72152e-33
1.86908e-33
2.62751e-34
3.73939e-44
4.94867e-42
1.17364e-45
2.38664e-44
4.99575e-46
4.17245e-43
8.45636e-47
9.49454e-45
3.90179e-46
1.13252e-43
3.63586e-47
2.36213e-48
1.09558e-48
9.48359e-49
3.12289e-48
8.74303e-50
1.77994e-49
5.26049e-43
1.99101e-44
9.17346e-43
3.19406e-46
9.9943e-45
1.50461e-45
1.30301e-41
5.18183e-42
2.07167e-40
6.63636e-41
4.34599e-42
1.09125e-41
2.073e-41
3.38285e-40
1.00079e-39
2.19527e-41
3.21595e-39
7.69905e-41
1.43127e-39
1.86525e-35
1.85357e-36
7.63928e-37
2.18303e-35
1.73071e-36
1.10127e-35
1.45342e-36
1.63705e-26
1.59942e-25
4.82178e-27
1.03013e-28
1.96992e-28
2.96236e-27
9.35807e-28
8.1652e-15
1.13357e-13
6.21042e-15
1.6818e-12
3.23194e-13
7.96201e-13
5.81355e-12
2.71593e-13
1.24617e-13
6.59341e-13
1.07612e-11
2.12772e-12
5.17986e-08
4.37471e-08
2.11652e-07
4.77099e-07
1.55265e-06
1.35025e-07
2.84569e-07
1.6405e-10
2.10395e-11
1.07322e-10
1.88045e-09
1.24715e-10
5.22277e-05
6.46464e-05
9.61309e-05
0.000231417
0.000372491
0.000124879
0.000148163
2.06933e-05
7.28338e-05
2.50303e-05
1.45951e-05
7.44579e-06
4.54476e-05
8.51919e-06
0.00201474
0.00156661
0.00109884
0.00299011
0.00249647
0.00252243
0.000100269
0.999998
0.999996
0.999918
0.999975
0.999974
0.999999
0.999964
0.999994
0.999968
0.999631
0.999997
0.999989
0.999948
0.999818
0.999883
0.998611
0.999985
0.99998
0.999919
0.999989
0.999766
0.999908
0.998983
0.999891
0.999872
0.998696
3.65454e-26
6.43494e-25
1.93004e-26
7.67106e-25
4.58125e-26
1.66852e-25
4.24023e-24
3.49999e-25
2.81385e-23
4.39915e-24
1.73148e-25
1.12186e-26
5.38556e-27
1.21519e-25
9.24622e-25
8.07605e-27
5.14016e-26
3.57513e-30
2.37953e-29
1.51957e-30
1.34112e-27
1.47193e-28
1.57733e-29
7.83396e-29
1.34906e-25
9.05566e-25
1.03826e-23
2.63978e-30
1.7878e-27
1.39474e-26
1.14957e-28
0.00046156
0.00119495
0.000481063
0.00119495
0.00102525
0.000350659
0.000603723
0.000239031
9.17677e-05
0.000162964
0.000136813
0.000127571
0.000392592
0.000902871
0.000648978
0.000460872
0.00045634
0.000933418
0.000535908
0.000509959
0.000934153
0.000550135
0.000490952
0.000503928
0.000808257
0.000409951
0.00134464
0.0015884
0.000211508
0.000224352
0.000356511
0.000528725
0.00121456
0.000530345
0.000128
5.13417e-05
3.29338e-05
3.92552e-05
2.49252e-05
1.83654e-05
1.49924e-05
2.76318e-05
1.90078e-05
6.72189e-06
9.54079e-05
0.000119549
9.24262e-05
0.00014055
0.000257606
0.000124054
0.000163606
1.09088e-07
1.96875e-08
3.44181e-07
3.51942e-08
4.74314e-08
6.01583e-07
1.26222e-07
9.05862e-09
2.18649e-08
3.12492e-08
8.89408e-11
3.24381e-11
5.80423e-12
9.16528e-12
1.61725e-11
8.02036e-12
1.63964e-11
6.20738e-10
1.63108e-10
1.39599e-10
7.58657e-14
6.20631e-14
3.88692e-13
1.90114e-13
7.13816e-13
9.74518e-13
8.41257e-15
2.45914e-15
3.11548e-15
4.76145e-16
1.20988e-15
3.98431e-15
1.16556e-14
7.66e-23
1.96482e-22
5.14881e-25
4.92921e-23
1.43488e-22
7.59957e-25
2.59868e-25
1.38294e-23
2.47921e-24
2.59044e-33
1.54899e-32
6.64345e-31
3.20154e-34
1.56461e-32
1.49255e-31
1.90192e-34
1.88858e-35
1.82719e-36
4.09759e-37
1.18574e-37
3.28817e-36
1.98222e-38
2.65269e-37
1.47052e-47
1.58042e-44
1.22857e-46
5.39237e-43
8.46791e-42
2.5731e-43
2.45849e-42
1.19475e-45
2.41365e-47
7.79018e-46
3.413e-51
1.91521e-44
6.9159e-44
8.80176e-51
3.02161e-46
1.9448e-49
1.99633e-45
3.20112e-52
9.85007e-51
3.14377e-52
2.41088e-51
6.7626e-50
1.83192e-50
1.39243e-47
7.89845e-48
2.21134e-46
3.58908e-32
5.9136e-33
1.05524e-31
6.61384e-31
5.87528e-32
1.11104e-30
5.51668e-30
2.71925e-24
2.05219e-25
1.02234e-27
3.14608e-24
4.43324e-23
1.12646e-27
4.32136e-26
8.60619e-31
5.3164e-29
9.30688e-31
5.06231e-30
9.00201e-29
4.6065e-30
3.22534e-31
2.35474e-23
4.51373e-24
7.45547e-25
2.73248e-23
8.90395e-22
7.05137e-23
1.42223e-24
1.749e-25
1.04938e-25
2.23741e-26
3.97981e-24
2.75449e-25
3.82804e-24
3.92522e-25
6.5764e-25
3.05783e-26
6.53394e-26
4.03314e-26
1.94194e-25
1.95117e-24
3.51593e-25
9.99589e-21
2.62255e-20
2.27023e-20
5.9736e-20
2.53443e-19
1.41521e-19
5.20691e-20
2.59547e-24
8.17694e-24
2.36457e-23
3.57904e-22
3.79682e-23
1.97666e-12
1.88814e-13
3.21051e-13
5.28988e-12
1.38113e-11
1.31826e-12
1.06381e-12
5.91145e-10
5.58542e-11
2.40456e-10
6.58399e-12
5.55015e-12
3.26438e-11
4.33947e-11
9.786e-09
2.05685e-09
1.03052e-08
6.46354e-08
5.83372e-09
1.04789e-09
3.15633e-08
0.999999
0.999973
0.999994
0.999948
0.999979
0.999998
0.999995
0.999954
0.999915
0.999352
0.999998
0.999996
0.999979
0.999954
0.999186
0.999923
0.999935
0.999888
0.999588
0.999966
0.999043
0.999312
0.994001
0.999669
0.999717
0.996966
2.24565e-21
5.36161e-20
1.36248e-21
1.56107e-19
1.768e-18
9.06565e-21
3.69104e-20
2.34987e-17
3.70904e-16
1.35142e-17
6.99316e-18
2.83343e-17
8.22491e-19
1.61108e-18
6.45754e-22
3.11266e-21
4.37131e-22
9.69159e-20
2.48967e-20
1.23503e-20
3.79282e-21
6.36298e-17
1.24017e-16
2.01769e-15
3.80993e-23
1.82864e-22
3.03334e-22
7.25329e-21
8.32814e-21
9.36905e-20
2.49011e-18
2.08194e-19
2.213e-19
4.82975e-20
1.94803e-22
6.78131e-21
2.7233e-22
2.51331e-21
3.90727e-22
3.53708e-20
4.90935e-21
4.07051e-19
6.15821e-20
7.00338e-05
5.91315e-05
5.92019e-05
5.92957e-05
5.92957e-05
0.000114549
0.000108289
5.52216e-05
3.7858e-05
4.24445e-05
0.000126865
4.85473e-05
3.03931e-05