/*--------------------------------*- C++ -*----------------------------------*\
| =========                 |                                                 |
| \\      /  F ield         | OpenFOAM: The Open Source CFD Toolbox           |
|  \\    /   O peration     | Version:  v2012                                 |
|   \\  /    A nd           | Website:  www.openfoam.com                      |
|    \\/     M anipulation  |                                                 |
\*---------------------------------------------------------------------------*/
FoamFile
{
    version     2.0;
    format      ascii;
    class       volScalarField;
    location    "0.1";
    object      p;
}
// * * * * * * * * * * * * * * * * * * * * * * * * * * * * * * * * * * * * * //

dimensions      [1 -1 -2 0 0 0 0];


internalField   nonuniform List<scalar> 
6576
(
-391.509
-412.182
-382.316
-388.033
-398.538
-377.569
-377.368
-366.884
-384.744
-381.973
-383.964
-373.894
-361.257
-375.808
-288.032
-303.732
-339.799
-335.019
-310.531
-305.065
-339.207
-371.655
-381.339
-450.372
-281.764
-243.374
-168.447
-422.039
-416.768
-416.668
-407.552
-399.375
-360.691
-264.933
-246.045
-262.673
-287.655
-287.543
-276.063
-281.467
-314.11
-363.366
-310.844
5.62864
2.81477
5.48228
3.23847
6.02938
3.3786
6.37596
2.82393
3.89301
-2.92245
-2.92336
-2.93562
-2.89229
-2.89503
-2.90816
-2.90477
-2.92365
-2.89394
-2.88461
-2.86807
-2.89959
-2.92475
-2.89256
-2.70627
-2.7393
-2.75618
-2.7708
-2.74
-2.80319
-2.77071
0.410976
0.306044
0.458893
0.40605
0.480549
0.553401
0.503166
0.16456
0.153466
0.0706196
0.162964
0.253469
0.181132
0.0993092
0.197493
0.141621
0.273234
0.334162
0.473724
0.270025
0.336097
-2.07751
0.0673163
-2.3147
0.992342
0.40085
0.0190008
-0.187195
88.8864
62.4959
54.6663
62.6662
88.9222
41.5033
68.2323
69.244
55.7284
94.3701
41.3901
67.3099
68.69
-3.05496
-2.98332
-3.20584
-3.17454
-3.24888
-3.29431
-3.23284
-29.7156
-66.0587
-171.943
-107.707
-85.6664
-31.5506
11.3969
-3.06729
-3.11333
-2.9181
-2.20287
-3.11205
-2.45267
-3.17909
-1.74282
-1.70553
-1.75327
-1.74535
-1.69042
-1.67988
-1.73117
-1.95517
-1.95017
-1.9044
-1.96822
-1.90676
-1.88652
-1.93933
-2.09539
-2.07245
-2.11599
-2.01976
-2.04305
-2.07451
-2.05449
-2.13554
-2.17734
-2.15091
-2.12874
-2.17322
-2.16843
-2.11475
-2.16623
-2.11807
-2.24449
-2.27748
-2.26561
-2.20191
-2.21428
-2.24201
-2.22881
-2.30584
-2.33928
-2.32471
-2.27912
-2.31612
-2.29397
-2.3352
-2.31133
-2.2744
-2.50883
-2.52035
-2.5135
-2.50493
-2.51925
-2.52181
-2.5069
-2.50645
-2.52117
-2.55253
-2.53956
-2.56304
-2.54183
-2.53143
-2.55642
-2.54186
-2.53692
-2.54545
-2.55183
-2.53592
-2.53874
-2.54284
-2.54861
-2.57032
-2.57057
-2.53425
-2.56265
-2.57608
-2.56539
-2.54395
-3.15652
-3.31941
-2.90586
-2.81296
-2.84008
-3.12136
-3.04768
-2.68596
-2.6981
-2.67498
-2.65846
-2.67994
-2.67863
-2.65541
-2.62021
-2.64094
-2.61097
-2.62095
-2.6012
-2.58364
-2.60178
-2.5415
-2.51443
-2.52542
-2.55047
-2.53627
-2.5147
-2.52789
-2.43778
-2.45553
-2.425
-2.46827
-2.48136
-2.44449
-2.45725
-2.3439
-2.30169
-2.31653
-2.37815
-2.36929
-2.36389
-2.35282
-2.31963
-2.33219
-2.19258
-2.14103
-2.1596
-2.19579
-2.21133
-2.15425
-2.17147
-1.79483
-1.81262
-1.78259
-1.73779
-1.76966
-1.77534
-1.74465
83.0562
55.3407
49.103
69.3837
42.1886
8.25536
36.2231
21.9735
49.6461
-3.44484
-1.72891
-3.45568
-4.30504
-3.68304
-1.39513
-0.306377
0.417877
0.401881
0.636093
0.713386
0.727245
0.418723
0.431012
0.538707
0.594497
2.92389
-2.68351
-3.61181
1.94251
2.69403
1.19705
1.59912
2.55281
1.59541
1.79435
-0.460692
-0.404908
-0.410309
-0.42009
-0.4687
-0.435532
-0.391245
-5.04421
-2.89887
-4.49207
-3.22987
-3.09932
-3.68351
-4.44087
-4.12478
-3.76022
-0.418959
-0.383735
-0.353583
-0.512051
-0.469303
-0.451101
-0.417271
0.376074
0.439677
0.465898
0.341735
0.38893
0.42765
0.385814
0.412724
0.362876
0.388106
0.348297
0.328174
0.361824
0.356987
0.373144
0.368763
0.613751
0.568716
0.270546
0.343293
-0.0606388
0.477031
0.387445
0.300231
0.28768
85.4319
86.125
96.8393
57.6155
60.5195
70.5787
72.0516
84.0381
84.0016
97.131
70.0279
56.542
11.9149
36.4404
50.6202
64.4482
1.76393
1.31526
1.47251
1.63539
0.604227
1.57423
0.895936
0.637863
0.431006
0.932994
0.862579
1.01562
0.625539
0.769388
0.0197099
0.0763606
0.0343105
0.123505
0.13332
0.0976326
0.109902
0.059944
0.0463611
-0.0564347
-0.0624264
0.00038681
0.041337
0.0513686
-0.0241043
-0.0141837
-0.0262123
0.0535507
-0.0397739
0.183022
0.156255
0.123394
0.10828
0.0108813
0.022035
1.34365
-0.0316712
0.794448
0.729651
-1.67238
-3.16987
-1.37685
-3.33264
-1.53731
-1.4512
0.000497174
1.2859
0.522115
0.879056
-2.38012
-2.40325
-2.42357
-2.36516
-2.38602
-2.39728
-2.41883
-2.42171
-2.4553
-2.46178
-2.44901
-2.41709
-2.43983
-2.47221
-2.33867
-2.36054
-2.38451
-2.34773
-2.32319
-2.35571
-2.38085
-2.32631
-2.35432
-2.30858
-2.31029
-2.33781
-2.28997
-2.26123
-2.30544
-2.2783
-2.44293
-2.47238
-2.42832
-2.44065
-2.41252
-2.47051
-2.44141
-2.53612
-2.48847
-2.52192
-2.53811
-2.568
-2.5089
-2.53854
-2.53885
-2.55276
-2.58183
-2.52321
-2.49325
-2.5234
-2.55137
-2.76856
-2.7545
-2.7242
-2.77231
-2.80131
-2.77139
-2.73945
-2.6257
-2.65413
-2.65918
-2.65553
-2.68446
-2.70044
-2.67179
-2.81881
-2.77355
-2.78837
-2.63888
-2.65237
-2.60386
-2.92233
-2.89383
-2.89059
-2.89393
-2.92254
-2.90341
-2.87595
-2.88622
-2.89038
-2.91957
-2.8417
-2.87086
-2.86172
-2.88956
-2.90602
-2.93407
-2.87801
-2.88572
-2.84375
-2.87145
-2.92061
-2.8933
-2.9067
-2.87887
-2.8577
-2.88581
-2.93584
-2.92149
-2.92061
-2.90872
-2.8943
-2.88497
-2.84427
-2.8733
-2.90116
-2.92409
-2.92492
-2.93617
-2.89722
-2.89655
-2.90843
-2.90815
-2.67958
-2.66214
-2.63713
-2.69426
-2.71789
-2.67979
-2.70461
-2.67608
-2.65125
-2.56951
-2.5453
-2.58413
-2.59905
-2.62359
-2.57462
-2.59759
-2.60158
-2.63408
-2.60604
-2.58795
-2.61516
-2.63566
-2.60905
-2.48776
-2.50097
-2.50862
-2.52105
-2.54116
-2.53777
-2.51683
-2.34438
-2.31435
-2.34871
-2.3699
-2.33968
-2.37562
-2.36723
-2.39335
-2.4129
-2.41687
-2.39684
-2.4026
-2.36781
-2.36787
-2.38281
-2.41409
-2.42558
-2.39893
-2.39601
-2.51559
-2.54162
-2.55921
-2.56554
-2.60809
-2.56747
-2.54032
-2.18617
-2.03848
-2.16197
-1.93844
-1.96364
-2.09285
-2.1153
-1.51885
-1.6504
-1.6009
-1.39127
-1.43958
-1.43691
-1.48644
-1.59196
-1.54622
-1.16576
-1.09162
-1.18369
-1.09366
-1.16249
-1.14359
-1.2198
-0.374428
-0.418399
-0.432804
-0.44602
-0.49223
-0.4555
-0.412663
-0.479837
-0.514921
-0.452573
-0.44258
-0.474148
-0.399235
-0.432468
-0.418512
-0.458352
-0.475212
-0.531739
-0.489787
-0.45549
-0.494566
-0.0992812
-0.13168
-0.0797412
-0.0661587
-0.0971014
-0.0314277
-0.0627567
0.0643466
0.0949933
0.0484552
0.0317747
-0.00042687
0.0958004
0.0643967
0.0644985
0.0326231
-0.00513996
0.0280347
0.0452241
0.0819575
0.047793
0.0481008
0.0148977
0.0286078
-0.00486936
0.198527
0.239028
0.184231
0.183291
0.150896
0.16493
0.198856
0.147095
0.180924
0.134886
0.186406
0.22677
0.18425
0.185256
0.15037
0.131915
0.336171
0.388422
0.294371
0.331729
0.274846
0.310361
0.912143
0.685244
0.784401
0.537217
0.766127
0.353635
0.334214
0.350942
0.390632
0.350046
0.336148
0.33457
1.01056
0.587002
0.415305
0.413528
0.854496
1.96143
0.982505
1.52347
0.353887
0.307627
0.362465
0.432525
0.452518
0.241828
0.240129
1.42897
-1.2759
1.29552
0.232986
0.36654
-9.17294
1.47893
7.124
-5.74588
-5.24463
-3.88876
-5.93946
52.464
38.6722
66.0634
4.99157
35.3712
48.6609
83.6421
56.9439
57.3324
29.3361
60.9622
86.7216
53.5315
60.0245
85.6542
38.8162
14
64.7298
39.4994
73.633
98.5297
71.8285
83.8752
83.9592
94.6241
57.781
57.7294
80.3793
80.4013
54.3034
54.0002
87.3594
86.9747
97.8179
60.3645
60.382
70.8767
44.8773
65.3979
51.7782
38.6177
86.2028
60.2096
52.0844
86.1912
59.9763
38.6408
64.9647
35.8024
13.9339
49.3101
60.9467
34.9129
7.12919
34.5437
0.922542
0.745073
0.898714
-1.83113
-0.680872
1.10618
-0.290602
0.331113
0.343006
-0.48816
-0.335686
-0.488994
0.428137
-0.22373
0.632128
0.595768
0.594956
0.602393
0.56943
0.58017
0.547717
0.439922
0.450054
0.40392
0.493423
0.453704
0.424106
0.461579
0.454414
0.43486
0.477996
0.441202
0.462638
0.496546
0.480916
0.368828
0.41269
0.385061
0.443791
0.457461
0.424385
0.439902
0.403879
0.387739
0.27189
0.313818
0.3068
0.342019
0.302935
0.333827
0.294687
0.319414
0.279591
0.369186
0.364995
0.3352
0.356299
0.351732
0.330711
0.318607
-2.01664
-2.02283
-1.96651
-2.06151
-2.01214
-1.98701
-2.03267
-2.0729
-2.06265
-2.11726
-2.10539
-2.09789
-2.14965
-2.15458
-2.18923
-2.19387
-2.14115
-2.0904
-2.10378
-2.09267
-2.1153
-2.1417
-2.07332
-2.04257
-2.08108
-2.10689
-2.12494
-2.07526
-2.09666
-2.08565
-2.05919
-2.09416
-2.12136
-2.02701
-1.99413
-2.04536
-2.02841
-2.05889
-2.09365
-2.06179
-2.16811
-2.11631
-2.15196
-2.17066
-2.20401
-2.13921
-2.17106
-2.16884
-2.1862
-2.2189
-2.12046
-2.15373
-2.15532
-2.18546
-2.34235
-2.29242
-2.29369
-2.29127
-2.25288
-2.25809
-2.28934
-2.30998
-2.24145
-2.29069
-2.30505
-2.27585
-2.24495
-2.41807
-2.46401
-2.41823
-2.40362
-2.37221
-2.43454
-2.37098
-2.4028
-2.5534
-2.54026
-2.58093
-2.52895
-2.54484
-2.49908
-2.58827
-2.56032
-2.5296
-2.5576
-2.81675
-2.78901
-2.77498
-2.75956
-2.73115
-2.76035
-2.78754
-2.77705
-2.78994
-2.81849
-2.76353
-2.73432
-2.76222
-2.79035
-2.88984
-2.90367
-2.87557
-2.76532
-2.77997
-2.73795
-2.82034
-2.7938
-2.766
-2.79239
-2.89236
-2.90626
-2.93421
-2.87922
-2.90575
-2.90649
-2.90713
-2.93406
-2.90639
-2.9097
-2.89634
-2.88229
-2.92631
-2.92732
-2.93726
-2.90005
-2.90018
-2.91121
-2.91023
-2.92475
-2.89885
-2.89512
-2.92448
-2.89865
-2.88214
-2.90743
-2.77784
-2.75326
-2.79114
-2.80411
-2.82938
-2.80333
-2.77917
-2.8038
-2.82898
-2.59417
-2.60474
-2.56919
-2.63708
-2.61271
-2.589
-2.61413
-2.53316
-2.54229
-2.55141
-2.56039
-2.57111
-2.55506
-2.56851
-2.51357
-2.49484
-2.49729
-2.52424
-2.52591
-2.52985
-2.52048
-2.52279
-2.54829
-2.53337
-2.5336
-2.53283
-2.54921
-2.5601
-2.61322
-2.52416
-2.53007
-2.5433
-2.53603
-2.5562
-2.58541
-2.35945
-2.35787
-2.29277
-2.31915
-2.3288
-2.1984
-2.23054
-2.25633
-2.23821
-1.53763
-1.5721
-1.54359
-1.46858
-1.50157
-1.52152
-1.48542
-1.36505
-1.42957
-1.35451
-1.3352
-1.2753
-1.32223
-1.37577
-1.10633
-1.05553
-1.12651
-1.13085
-1.07766
-1.2032
-1.14131
-1.12307
-1.17964
-0.916304
-0.943186
-0.872764
-1.00676
-0.961385
-0.916758
-0.958186
-0.328937
-0.363509
-0.366772
-0.399494
-0.36382
-0.421903
-0.383959
-0.226511
-0.207641
-0.174378
-0.228459
-0.260901
-0.262773
-0.230415
-0.241687
-0.209201
-0.278192
-0.227921
-0.190763
-0.225173
-0.225957
-0.25894
-0.279281
-0.12205
-0.086942
-0.0841297
-0.0872645
-0.0515066
-0.066838
-0.031124
-0.142584
-0.0882432
-0.106789
0.0525417
0.105609
0.0696329
0.184687
0.245673
0.20296
0.407346
0.358829
0.437037
0.433903
0.492457
0.457165
0.389874
64.5708
51.6678
38.103
57.5784
45.1956
30.5165
30.9936
4.81527
8.66279
30.4029
95.9219
70.0458
69.804
84.4518
85.043
95.5451
58.3835
57.8402
68.9354
67.3877
64.1049
51.3927
37.9477
86.183
59.7969
52.0534
66.1138
38.882
59.959
86.7774
65.4422
90.8009
51.9267
64.8301
37.816
65.0383
0.708736
1.37252
1.96314
1.46746
0.0988914
1.49576
1.33094
1.0621
0.728731
0.534954
-0.0716557
-1.04948
0.219708
0.519446
0.650865
0.444097
0.720385
0.738637
0.640384
0.601759
0.642471
0.632516
0.610133
0.661338
0.683096
0.716018
0.643896
0.673202
0.548693
0.522249
0.544321
0.52696
0.543053
0.520139
0.538011
0.496307
0.508115
0.496918
0.501993
0.499005
0.505716
0.513355
0.4513
0.474757
0.49452
0.50721
0.509016
0.45468
0.47485
0.483027
0.475922
0.426419
0.464685
0.44374
0.395945
0.424753
-0.0247214
0.0729168
0.0343042
0.0631245
-0.0518994
-0.0632358
0.0416938
-1.76025
-1.74506
-1.79206
-1.80191
-1.75548
-1.76575
-1.81262
-1.82353
-1.84975
-1.87905
-1.80266
-1.76671
-1.81105
-1.83921
-1.82787
-1.85978
-1.80639
-1.81462
-1.7872
-1.85565
-1.82441
-1.84051
-1.78952
-1.80874
-1.80062
-1.77146
-1.80555
-1.83762
-1.82922
-1.77813
-1.79578
-1.78971
-1.7601
-1.82722
-1.79511
-1.96075
-1.92285
-1.91277
-1.94434
-1.90726
-1.89662
-1.85959
-1.87536
-1.91188
-1.76582
-1.70766
-1.74686
-1.76777
-1.80381
-1.73191
-1.76693
-1.76489
-1.78341
-1.81838
-1.74845
-1.71272
-1.75047
-1.7828
-1.90259
-1.8637
-1.90355
-1.90158
-1.93762
-1.95897
-1.92292
-2.07473
-2.03989
-2.03856
-1.98614
-2.02233
-2.00685
-2.0412
-1.90167
-1.84683
-1.88278
-2.09029
-2.0412
-2.05848
-2.21994
-2.18792
-2.17309
-2.34836
-2.3183
-2.30232
-2.28796
-2.31683
-2.25467
-2.28573
-2.30956
-2.31929
-2.3513
-2.29813
-2.26415
-2.47086
-2.44323
-2.42831
-2.41102
-2.38099
-2.41231
-2.44008
-2.3161
-2.26758
-2.29582
-2.33135
-2.30551
-2.27156
-2.29844
-2.48458
-2.4446
-2.45243
-2.46177
-2.43075
-2.45549
-2.48706
-2.67893
-2.68853
-2.7167
-2.66701
-2.63842
-2.82839
-2.80141
-2.78693
-2.82805
-2.8011
-2.8001
-2.77359
-2.64208
-2.66545
-2.68225
-2.69519
-2.67179
-2.66858
-2.64484
-2.80348
-2.83104
-2.79274
-2.80557
-2.83194
-2.80615
-2.77944
-2.89368
-2.88025
-2.90752
-2.89414
-2.92102
-2.89098
-2.86938
-2.89426
-2.87816
-2.85247
-2.90831
-2.93468
-2.88334
-2.9254
-2.89938
-2.8909
-2.89935
-2.8731
-2.8532
-2.87841
-2.92894
-2.9281
-2.9389
-2.90269
-2.90257
-2.9139
-2.88678
-2.90683
-2.89401
-2.88115
-2.92629
-2.92741
-2.93715
-2.90019
-2.90085
-2.91119
-2.91119
-2.87477
-2.851
-2.88699
-2.84899
-2.87487
-2.89987
-2.87246
-2.92407
-2.89782
-2.89316
-2.92499
-2.89837
-2.88036
-2.90823
-2.80067
-2.82904
-2.79107
-2.80553
-2.77984
-2.83111
-2.80351
-2.39287
-2.39126
-2.27176
-2.39884
-2.46663
-2.48667
-2.37089
-2.19199
-2.14022
-2.12901
-2.21784
-2.11827
-2.22545
-2.14625
-2.38494
-2.36794
-2.4032
-2.3549
-2.38516
-2.38109
-2.40551
-2.17619
-2.20544
-2.17367
-2.21209
-2.22998
-2.19287
-2.20767
-2.189
-2.18439
-2.17395
-2.17695
-2.16942
-2.16886
-2.16858
-2.17366
-2.17395
-2.13031
-2.15442
-2.15759
-2.12588
-2.15481
-2.11966
-2.14555
-1.8715
-1.82169
-1.86849
-1.85937
-1.90584
-1.87403
-1.91833
-1.85888
-1.90406
-1.80738
-1.86152
-1.84332
-1.74557
-1.76969
-1.77077
-1.79399
-1.8399
-1.81862
-1.60262
-1.65277
-1.65678
-1.61444
-1.66435
-1.59391
-1.64191
-1.26594
-1.24783
-1.20607
-1.28505
-1.32706
-1.28583
-1.24647
-1.28115
-1.26338
-1.31923
-1.20118
-1.23909
-1.27649
-1.24106
-0.952136
-0.93342
-0.894748
-0.972566
-1.01156
-0.971724
-0.935152
-1.01617
-0.977276
-0.961175
-0.978756
-1.01561
-0.942601
-0.976837
-0.820335
-0.859469
-0.801128
-0.78231
-0.744948
-0.782706
-0.818718
-0.469789
-0.503039
-0.502705
-0.468263
-0.501067
-0.51945
-0.486081
-0.614233
-0.650835
-0.655043
-0.712509
-0.674574
-0.651918
-0.688084
-0.454851
-0.50538
-0.507112
-0.559262
-0.453878
-0.522822
-0.308173
-0.344566
-0.362012
-0.347957
-0.311117
-0.36453
-0.382836
-0.419679
-0.346963
-0.381779
-0.170345
-0.205511
-0.223085
0.653372
0.653324
0.765903
0.615581
0.59142
0.645449
0.703774
57.2925
44.4867
30.4731
32.3431
6.00202
6.93728
30.5183
95.9611
69.552
69.3398
86.6524
86.8401
97.1741
61.1638
60.419
70.158
71.448
66.3874
54.0005
40.0363
1.12352
0.952805
1.20741
0.985636
1.20449
1.57824
1.1086
1.92152
0.349217
0.919332
1.18807
1.65916
0.40967
1.00448
0.499547
0.523074
0.514493
0.474283
0.472746
0.490093
0.484906
0.545464
0.52933
0.545678
0.560579
0.540446
0.540388
0.567854
0.550244
0.574531
0.476606
0.466307
0.495487
0.487018
0.486341
0.497809
0.505475
0.457216
0.439308
0.44686
0.472141
0.446307
0.460665
0.422884
0.443511
0.47407
0.330714
0.289045
0.297404
0.324012
0.281625
0.262505
0.312829
0.26917
0.314355
0.13549
0.0654408
0.0862214
0.089239
0.0276412
0.0841346
0.0218886
-1.53491
-1.56876
-1.51288
-1.5642
-1.53226
-1.52246
-1.49205
-1.51819
-1.5525
-1.4985
-1.54975
-1.51751
-1.51072
-1.47903
-1.53489
-1.47689
-1.496
-1.47402
-1.43748
-1.47494
-1.51213
-1.66101
-1.62551
-1.62209
-1.58697
-1.62451
-1.60281
-1.56567
-1.4706
-1.42961
-1.47409
-1.46656
-1.42927
-1.66614
-1.62946
-1.62582
-1.6324
-1.6696
-1.41613
-1.47187
-1.41609
-1.45248
-1.48729
-1.67917
-1.62903
-1.61285
-1.64972
-1.68352
-1.76841
-1.82117
-1.78549
-1.90872
-1.96265
-1.92938
-1.85633
-1.88877
-1.72192
-1.75628
-1.7773
-1.79413
-1.76552
-1.75981
-1.72792
-2.06751
-2.0383
-2.05087
-1.999
-2.02992
-2.00307
-2.0331
-1.99641
-1.96871
-1.94577
-1.96377
-1.99162
-1.95427
-1.92816
-2.24257
-2.2141
-2.19668
-2.14709
-2.17678
-2.18024
-2.20796
-2.48727
-2.51751
-2.48123
-2.4622
-2.49126
-2.43999
-2.46953
-2.68155
-2.693
-2.66169
-2.67995
-2.7058
-2.68264
-2.6596
-2.90822
-2.89327
-2.88162
-2.89355
-2.91869
-2.8883
-2.86858
-2.89332
-2.87562
-2.8517
-2.90881
-2.93422
-2.88229
-2.93577
-2.93667
-2.94834
-2.91238
-2.90652
-2.92475
-2.92019
-2.90862
-2.90117
-2.88252
-3.05188
-2.99461
-2.91194
-2.92258
-2.88675
-2.98162
-2.31187
-3.1401
-3.07695
-3.17674
-5.44666
-2.41163
-3.05457
-3.1496
-4.54628
-4.38941
-4.07835
-146.171
-26.8513
-39.6841
-38.9997
-49.8431
17.1285
-3.63784
-3.01701
-2.42097
-3.13796
-3.99199
-2.48073
2.98431
-6.21653
-5.07248
-6.08319
-2.26903
-4.17743
-5.85191
-5.80818
-3.94865
-3.74549
-3.48884
-3.23802
-3.16015
-2.99484
-3.35101
-2.72783
-3.69669
-3.1984
-4.12942
-4.24405
-4.00591
-4.80249
-2.33831
-2.3717
-2.37854
-2.36693
-2.39677
-2.42059
-2.39019
-2.54421
-2.51128
-2.50341
-2.46421
-2.49441
-2.54879
-2.51646
-2.49252
-2.52281
-2.26398
-2.286
-2.29521
-2.30673
-2.33232
-2.3097
-2.28702
-2.28122
-2.25772
-2.29591
-2.28143
-2.25681
-2.30721
-2.27894
-2.19564
-2.22638
-2.19148
-2.1983
-2.16746
-2.17829
-2.14504
-1.89803
-1.89291
-1.84924
-1.8709
-1.90985
-1.88457
-1.8452
-1.42668
-1.46478
-1.40755
-1.38961
-1.35065
-1.38971
-1.42637
-1.21518
-1.25166
-1.2554
-1.25148
-1.28963
-1.31233
-1.27242
-1.08427
-1.04858
-1.10424
-1.10589
-1.14025
-1.11964
-1.08518
-1.14405
-1.10938
-1.15871
-1.10594
-1.06511
-1.10338
-1.10419
-1.14027
-1.16222
-0.992544
-0.953984
-0.951053
-0.954181
-0.916117
-0.893832
-0.931341
-0.955932
-1.01526
-0.976331
-0.76335
-0.801373
-0.804662
-0.838791
-0.801325
-0.862881
-0.824699
-0.818665
-0.800842
-0.857777
-0.779814
-0.743246
-0.781734
-0.816129
-0.79958
-0.742519
-0.779475
-0.648609
-0.593583
-0.631056
-0.651148
-0.633028
-0.595311
-0.668921
-0.70721
-0.668878
-0.632259
0.533521
0.518188
0.487874
0.471989
0.491901
0.505686
0.526427
0.606209
0.62435
0.629984
0.68495
0.679264
0.533545
0.618209
1.07593
0.570412
0.110408
0.639852
0.714526
0.901641
0.978195
1.23991
0.482702
2.38817
1.43722
1.84865
1.5226
2.69886
90.4298
89.669
101.142
63.4215
63.7022
73.0932
74.8405
68.1392
95.1121
69.8137
69.9159
55.6776
42.6917
-1.22006
-1.26019
-1.20366
-1.22055
-1.25795
-1.18258
-1.2169
-1.21463
-1.25189
-1.19774
-1.21472
-1.25049
-1.17778
-1.21187
-1.24665
-1.19293
-1.20963
-1.20726
-1.17379
-1.21015
-1.24589
-1.18296
-1.20059
-1.23817
-1.16581
-1.12607
-1.16469
-1.19971
-1.36954
-1.32931
-1.32749
-1.26966
-1.30904
-1.29296
-1.33082
-1.33088
-1.39032
-1.3508
-1.34197
-1.39474
-1.35931
-1.35612
-1.32302
-1.39357
-1.35947
-1.34976
-1.4034
-1.36794
-1.32968
-1.36216
-1.40167
-1.36786
-1.41666
-1.38246
-1.36152
-1.34009
-1.37152
-1.37978
-1.41301
-1.36514
-1.34732
-1.30209
-1.42641
-1.38267
-1.38713
-1.34454
-2.43778
-2.46212
-2.3948
-2.50265
-2.45342
-2.41682
-2.45695
-2.43364
-2.42342
-2.45261
-2.45426
-2.44326
-2.47104
-2.48384
-2.59061
-2.55784
-2.54421
-2.54177
-2.53666
-2.59999
-2.65742
-2.63307
-2.68213
-2.71599
-2.64939
-2.68021
57.0137
-19.194
13.447
0.517359
-5.78795
-8.31105
-4.66825
-5.60411
-5.95184
-5.18956
-4.14503
-4.51808
-6.04405
-5.68123
-2.39874
-2.38597
-2.2345
-2.14801
-2.15207
-2.13473
-2.01363
-3.37242
-3.35923
-3.34242
-3.01554
-3.0023
-2.99309
-2.99248
-2.9996
-2.98528
-2.98609
-3.02663
-3.00356
-3.02227
-2.91668
-2.92462
-2.93585
-2.9017
-2.93671
-2.97293
-2.92894
-2.93609
-2.92499
-2.90756
-2.90649
-2.89679
-2.89605
-2.73059
-2.69882
-2.75107
-2.76388
-2.73292
-2.76668
-2.7989
-2.35107
-2.39237
-2.38217
-2.37591
-2.40705
-2.38009
-2.3491
-2.26969
-2.25937
-2.22426
-2.24891
-2.28225
-2.25518
-2.2231
-2.1419
-2.12769
-2.09146
-2.15405
-2.18684
-2.15808
-2.12458
-1.9808
-1.94519
-1.99565
-2.00587
-2.04448
-1.99132
-2.02839
-1.96097
-1.99665
-2.03286
-2.00083
-1.98434
-2.03123
-1.99964
-1.96668
-1.99535
-1.55093
-1.53205
-1.49343
-1.6041
-1.56581
-1.56749
-1.53114
-1.45774
-1.40259
-1.42052
-1.50873
-1.54653
-1.54942
-1.58295
-1.54627
-1.60671
-1.56805
-1.34521
-1.39924
-1.38332
-1.39939
-1.34607
-1.4584
-1.23173
-1.25032
-1.19159
-1.27164
-1.30954
-1.25173
-1.2348
-1.19619
-1.23413
-1.27039
-1.08141
-1.10102
-1.04379
-1.13043
-1.16571
-1.11307
-1.09376
-1.12678
-1.1298
-1.16489
-0.77571
-0.734501
-0.79542
-0.812322
-0.854279
-0.773434
-0.813017
0.274541
0.30625
0.259075
0.339504
0.352377
0.418764
0.403397
0.374322
0.357392
0.33729
0.375263
0.393531
0.424785
0.441256
0.457922
0.491191
0.483024
0.471676
0.458521
0.414426
0.412473
0.448059
0.418318
0.379193
0.555236
0.569789
0.552952
0.57762
0.568067
0.559265
0.552943
0.704902
0.663249
0.651401
0.609638
0.643917
0.636781
0.680203
0.977103
0.868982
0.794103
0.838281
0.746759
0.756715
0.77348
56.6948
68.9201
42.7924
91.6834
64.7608
57.2484
43.4176
70.3587
91.5382
65.0749
58.5793
71.158
98.2825
44.9106
70.6628
71.9635
88.9888
88.9828
99.8847
62.1064
62.2289
72.1381
73.8151
73.7901
101.7
75.5152
-0.884731
-0.849352
-0.888308
-0.906671
-0.945242
-0.922346
-0.885117
-0.883273
-0.86418
-0.827778
-0.974256
-1.0123
-1.03006
-1.01139
-0.972999
-1.04722
-1.00733
-0.698891
-0.674215
-0.665316
-0.642718
-0.611465
-0.619304
-0.653097
-0.853673
-0.870145
-0.819952
-0.790322
-0.836163
-0.831649
-0.785837
-2.89906
-2.89027
-2.80151
-2.98201
-3.02937
-2.82651
-2.83458
-2.6843
-2.58269
-2.48622
-2.8438
-2.62597
-2.77152
-2.43478
-2.81515
-3.66466
-3.00525
-4.8259
-4.43511
-4.02006
-3.34867
-3.15506
-3.75614
-1.84403
-3.42143
-3.73814
-2.42303
-5.29364
-2.47969
-2.53821
-2.26368
-2.62119
-2.59094
-2.57325
-2.61018
-2.47655
-2.39179
-2.43366
-2.43238
-2.41665
-2.44503
-2.43207
-2.46286
-2.46189
-2.37354
-2.56176
-2.51623
-2.20231
-2.30719
-2.50215
-2.49159
-2.80367
-2.74612
-2.76728
-2.73021
-2.68784
-2.72326
-2.76213
-2.89015
-2.8741
-2.90902
-2.89504
-2.92414
-2.88567
-2.92475
-2.8935
-2.90073
-2.86954
-2.90688
-2.93671
-2.90539
-2.90077
-2.88678
-2.93231
-2.87084
-2.90246
-2.90098
-2.92244
-2.9356
-2.92204
-2.90418
-2.90384
-2.89218
-2.89161
-2.68015
-2.64896
-2.63384
-2.66399
-2.63338
-2.58537
-2.61627
-2.6017
-2.63157
-2.18901
-2.23655
-2.22405
-2.21643
-2.25241
-2.222
-2.18733
-2.08607
-2.05107
-2.10124
-2.05206
-2.08509
-2.08356
-2.11706
-1.93403
-1.97069
-1.97443
-2.00561
-1.96973
-2.02825
-1.99205
-1.86938
-1.8337
-1.83017
-1.79672
-1.83373
-1.81333
-1.77725
-1.89079
-1.83552
-1.85433
-1.69332
-1.63828
-1.69478
-1.67594
-1.71147
-1.74691
-1.5271
-1.5449
-1.49086
-1.47401
-1.43476
-1.42233
-1.47693
-1.43774
-1.40585
-1.44395
-0.818935
-0.772642
-0.743806
-0.728983
-0.769212
-0.67955
-0.72084
-0.523489
-0.558255
-0.590396
-0.56593
-0.600475
-0.651588
-0.612972
-0.520043
-0.548165
-0.511993
-0.452418
-0.476244
-0.494941
-0.462714
-0.285788
-0.35626
-0.337015
-0.355502
-0.416436
-0.312512
-0.366682
0.0525482
0.0124628
0.0672299
-0.00993042
-0.0305451
0.0191767
0.0364774
0.137431
0.159587
0.122902
0.20597
0.202275
0.173708
0.182054
0.066962
0.1175
0.079002
0.0938147
0.0404706
0.32683
0.310789
0.316032
0.371477
0.367852
0.350969
0.358118
0.394389
0.3586
0.404208
0.356049
0.342691
0.394031
0.380338
0.416751
0.407288
0.440362
0.44559
0.411642
0.420331
0.451468
55.3999
41.6627
68.8091
88.7342
62.4206
54.4492
67.9463
40.8421
88.8357
61.8109
56.1581
69.3178
95.9017
42.4936
69.7635
68.6323
86.576
86.7908
97.5162
60.326
59.7354
70.8144
71.5236
71.8594
98.8691
72.9669
-0.489047
-0.435424
-0.44959
-0.420422
-0.382573
-0.454088
-0.417092
-0.596779
-0.562759
-0.601028
-0.632556
-0.597783
-0.654619
-0.618649
-0.74247
-0.739245
-0.778554
-0.684862
-0.72109
-0.707038
-0.742478
-0.594584
-0.577726
-0.541126
-0.800014
-0.763044
-0.744606
-0.800154
-0.760724
-0.748343
-0.730352
-0.763395
-0.763665
-0.799795
-0.710011
-0.677397
-0.731477
-0.753929
-0.789511
-0.718063
-0.751939
-0.678859
-0.712465
-1.80749
-1.86775
-1.82251
-1.84982
-1.82663
-1.89616
-1.82564
-1.93236
-2.0253
-2.01271
-1.9998
-2.06795
-2.0282
-2.0729
-2.56192
-2.53279
-2.51812
-2.50273
-2.52908
-2.55971
-2.53214
-2.88453
-2.86876
-2.89845
-2.75209
-2.70617
-2.7361
-2.76655
-2.73488
-2.70656
-2.7365
-2.89119
-2.92246
-2.88329
-2.86635
-2.83605
-2.89063
-2.92187
-2.89549
-2.86595
-2.90525
-2.93683
-2.90515
-2.93549
-2.92135
-2.92217
-2.90456
-2.90445
-2.89152
-2.89251
-2.89719
-2.88469
-2.86849
-2.90188
-2.93294
-2.88615
-2.87145
-2.90207
-2.90122
-2.92459
-2.89507
-2.88648
-2.92472
-2.89335
-2.8701
-2.89948
-2.52034
-2.55218
-2.50892
-2.52127
-2.49159
-2.52024
-2.55173
-2.23935
-2.18617
-2.23556
-2.22124
-2.25545
-2.29233
-2.10501
-2.05763
-2.10761
-2.12336
-2.15671
-2.08995
-2.1249
-2.15803
-1.94964
-1.96832
-1.91608
-1.85799
-1.90385
-1.86676
-1.8416
-1.87639
-1.90513
-1.8686
-1.86433
-1.89672
-1.84725
-1.85897
-1.8294
-1.89468
-1.86159
-1.68998
-1.72437
-1.70632
-1.7561
-1.71923
-1.75735
-1.72131
-1.71328
-1.72628
-1.6953
-1.73541
-1.76762
-1.76464
-1.73278
-1.61763
-1.57814
-1.56315
-1.50504
-1.54546
-1.5795
-1.54179
-1.65027
-1.60839
-1.60221
-1.65498
-1.61387
-1.58448
-1.62418
-1.27764
-1.21252
-1.25802
-1.34144
-1.29571
-1.25561
-1.29876
-1.25127
-1.30966
-1.31143
-1.32917
-1.28094
-1.24481
-1.29629
-1.04974
-1.09553
-1.11678
-1.09514
-1.13742
-1.18532
-1.1369
-1.09748
-1.05356
-1.1279
-1.15827
-1.20955
-1.01269
-0.956412
-0.926875
-0.839234
-0.892755
-1.02183
-0.967557
-0.950666
-0.899597
-0.909747
-0.862706
-0.943752
-0.955544
-1.01235
-0.955966
-0.910258
-0.963919
-1.01247
-0.662893
-0.624247
-0.621254
-0.534958
-0.556175
-0.55771
-0.590726
-0.339728
-0.299887
-0.375038
-0.211381
-0.219649
-0.27699
-0.260418
-0.156175
-0.219314
-0.144181
-0.271279
-0.245648
-0.181373
-0.197134
0.0893851
0.0341304
0.0941979
0.00867333
-0.00116373
0.0653566
0.0588004
0.117167
0.172147
0.154442
0.209067
0.155085
0.195885
0.146073
0.54057
0.568077
0.544813
0.574559
0.552973
0.562908
0.541847
53.2154
39.6322
66.7262
88.4032
62.5748
54.376
40.5693
68.2684
88.9207
61.521
55.0779
68.1193
95.1968
40.7308
69.0872
69.105
72.4781
98.4039
71.9554
86.9628
61.5904
53.0168
36.9062
65.6309
60.0431
87.3703
37.3894
14.9774
53.3341
64.8475
94.0392
38.7096
65.433
67.1157
3.19376
-0.171109
0.704965
-1.41933
-0.376661
-0.475836
-0.262203
0.309897
0.174332
0.796013
0.641913
1.27254
0.440614
0.631754
0.578804
0.534259
0.765147
0.574533
0.566557
0.72714
0.675464
0.600965
0.619862
0.391848
0.411229
0.446857
0.412602
0.43897
0.504377
0.478877
0.455827
0.492536
0.239569
0.24225
0.204761
0.263163
0.254654
0.266964
0.23546
0.108532
0.143258
0.103164
0.114751
0.0790417
0.0913455
0.0541614
-0.172348
-0.222525
-0.195847
-0.154032
-0.177778
-0.217543
-0.19084
-0.178316
-0.145377
-0.189587
-0.202604
-0.23712
-0.207586
-0.174735
-0.336655
-0.37341
-0.324036
-0.304995
-0.339128
-0.309531
-0.275756
-0.382733
-0.336008
-0.348567
-0.333122
-0.301412
-0.364379
-0.332351
-0.350189
-0.382882
-0.328562
-0.27975
-0.312219
-0.499097
-0.465369
-0.458834
-0.465383
-0.432815
-0.442542
-0.408352
-0.517165
-0.481436
-0.467254
-0.483021
-0.517095
-0.34019
-0.3266
-0.375084
-0.312061
-0.278556
-0.31039
-0.343462
-0.0770095
-0.116686
-0.0802555
-0.0658053
-0.0964934
-0.120764
-0.0879427
-0.00566948
-0.0468697
-0.0280593
-0.0699121
-0.0952028
-0.0404249
-0.0638554
0.085052
0.1579
0.134056
0.156488
0.172002
0.168677
0.0974934
7.77574
3.77652
4.8922
1.17878
3.3101
4.207
2.309
0.685167
2.70509
2.97971
1.89512
0.269598
1.30357
1.47977
2.66478
3.32244
6.16246
4.86796
4.04232
4.18653
0.175001
0.215494
0.218624
0.206983
0.170168
0.196137
0.226776
0.235437
0.228445
0.198167
0.271935
0.260231
0.256357
0.235808
0.138989
0.126662
0.16309
0.17355
0.144024
0.147487
0.179933
-0.469937
-0.345384
-0.391445
-0.364889
-0.275644
-0.294703
-0.390662
0.00146129
-0.0713649
-0.039398
-0.032702
-0.107283
-0.124076
-0.0376229
-0.70684
-0.482414
-0.550017
-0.438036
-0.548973
-0.538802
-0.349183
-0.515447
-0.373778
-0.232729
-0.302923
-0.380585
0.0441236
-0.0321796
-0.0690949
-0.0245394
-0.727917
-6.10531
-2.31647
-7.2209
-0.964005
-4.86214
-4.16215
-0.928947
0.938219
0.0274298
-2.28065
-1.4641
-2.56897
-3.8191
-3.98152
-11.1694
-11.132
-1.56111
-2.58138
-1.64305
-4.08401
-2.37618
-2.73017
-2.68899
-4.46544
-2.65655
-3.41743
-2.10398
-4.58103
-3.58948
-4.31668
-4.46988
-4.90605
-2.38868
-2.19745
-2.31546
-2.46074
-2.47289
-2.3125
-2.37821
-2.30329
-2.30658
-2.21828
-2.27177
-2.32419
-2.1955
-2.20599
-2.1673
-2.21056
-2.23858
-2.21329
-2.18637
-2.31454
-2.29971
-2.28679
-2.30951
-2.33863
-2.34067
-2.3117
-2.42054
-2.44884
-2.40793
-2.42107
-2.4491
-2.42035
-2.39355
-2.56283
-2.52949
-2.51819
-2.50376
-2.53336
-2.56298
-2.53179
-2.63308
-2.58648
-2.6188
-2.64613
-2.67982
-2.7511
-2.70384
-2.73641
-2.76555
-2.73382
-2.70404
-2.73593
-2.85928
-2.89028
-2.87635
-2.8297
-2.86072
-2.86069
-2.82981
-2.93661
-2.90603
-2.90461
-2.8796
-2.83328
-2.86425
-2.91824
-2.88766
-2.90281
-2.87165
-2.8483
-2.87966
-2.91893
-2.91856
-2.93506
-2.90443
-2.88831
-2.83251
-2.8645
-2.88037
-2.89632
-2.93652
-2.90481
-2.90614
-2.70262
-2.75234
-2.73362
-2.73279
-2.76495
-2.73362
-2.70294
-2.75587
-2.78882
-2.75173
-2.75534
-2.72038
-2.73654
-2.70343
-2.7579
-2.80893
-2.77471
-2.62562
-2.57566
-2.6263
-2.60908
-2.64227
-2.67659
-2.54795
-2.51503
-2.50141
-2.45223
-2.48537
-2.55004
-2.51757
-2.4854
-2.51608
-2.48701
-2.45177
-2.50148
-2.51478
-2.54725
-2.48485
-2.51626
-2.07752
-2.11591
-2.12933
-2.17689
-2.14345
-2.11342
-2.14761
-2.10722
-2.12409
-2.1375
-2.17294
-2.14266
-2.17189
-2.14052
-2.06135
-2.02299
-2.01892
-2.004
-2.03983
-2.02751
-2.06441
-1.94267
-1.99625
-1.97261
-2.04532
-2.01489
-1.86649
-1.85174
-1.88759
-1.91358
-1.87556
-1.87971
-1.91684
-1.8805
-1.89143
-1.86254
-1.90612
-1.93463
-1.92992
-1.90109
-1.78864
-1.74895
-1.73667
-1.68003
-1.72162
-1.71386
-1.75233
-1.8072
-1.85062
-1.8062
-1.80974
-1.75763
-1.76501
-1.73391
-1.70343
-1.78479
-1.81558
-1.77018
-1.74147
-1.62575
-1.61166
-1.65686
-1.67332
-1.62907
-1.63869
-1.68175
-1.73981
-1.77675
-1.71764
-1.72488
-1.77812
-1.79039
-1.73556
-1.70222
-1.63732
-1.65135
-1.57442
-1.66722
-1.64135
-1.71575
-1.66191
-1.73005
-1.55983
-1.53773
-1.56824
-1.64043
-1.61952
-1.58951
-1.61607
-1.51467
-1.61006
-1.50461
-1.52146
-1.41213
-1.39952
-1.43974
-1.42587
-1.48441