/*--------------------------------*- C++ -*----------------------------------*\
| =========                 |                                                 |
| \\      /  F ield         | OpenFOAM: The Open Source CFD Toolbox           |
|  \\    /   O peration     | Version:  v2012                                 |
|   \\  /    A nd           | Website:  www.openfoam.com                      |
|    \\/     M anipulation  |                                                 |
\*---------------------------------------------------------------------------*/
FoamFile
{
    version     2.0;
    format      ascii;
    class       volScalarField;
    location    "0.1";
    object      p_rgh;
}
// * * * * * * * * * * * * * * * * * * * * * * * * * * * * * * * * * * * * * //

dimensions      [1 -1 -2 0 0 0 0];


internalField   nonuniform List<scalar> 
6576
(
2794.25
2772.7
2777.99
2785.44
2799.51
2807.31
2782.94
2782.58
2801.58
2792.06
2829.39
2814.89
2802.95
2812.97
2776.3
2785.15
2751.55
2778.42
2778.35
2823.11
2764.41
2818.76
2821.36
2776.9
2805.47
2831.57
2881.94
2801.9
2770.31
2770.41
2791.81
2750.84
2789.52
2810.8
2805.12
2825.35
2802.82
2827.51
2789.84
2809
2778
2765.61
2793.55
12.0066
10.1646
11.387
9.17892
10.3385
7.23047
12.1412
7.4088
7.82188
0.0039074
0.00299888
0.00124819
0.00778843
0.00505227
0.00242576
0.00582464
0.00445932
0.00789459
0.0093324
0.0127334
0.00749174
0.00335528
0.00927387
0.0396369
0.032886
0.029145
0.0276703
0.0321848
0.021554
0.027757
1.5759
1.49728
1.66329
1.59757
1.64552
1.74481
1.7219
1.27254
1.2483
1.19173
1.31036
1.37458
1.30225
1.2467
1.29732
1.32658
0.85486
0.756355
1.4142
1.30957
2.0366
-0.276802
0.625981
3.62726
2.27539
1.18296
5.62966
2.10599
103.776
103.662
103.715
103.832
103.812
103.69
104.14
104.27
103.897
103.11
102.059
100.768
103.708
-0.135011
-0.0464633
-0.293514
-0.248206
-0.322542
-0.393042
-0.330934
1221.5
2256.48
1630.79
2630.25
2622.7
2719.2
2747.62
-0.140958
-0.186994
0.0187619
0.697566
-0.211791
0.458711
-0.26836
0.0921337
0.116288
0.0948268
0.0764688
0.105117
0.115656
0.0906414
-0.00196991
-0.010117
0.0225174
-0.0413009
-0.0061203
0.0141222
-0.0124076
-0.0327079
-0.022911
-0.0270348
-0.00963685
-0.00664798
-0.011832
-0.0180816
-0.0728572
-0.0883889
-0.101371
-0.079198
-0.0974015
-0.13203
-0.104625
-0.116694
-0.0948074
-0.0898403
-0.0834214
-0.0978308
-0.0866829
-0.0727705
-0.0742266
-0.0873052
-0.139
-0.146167
-0.171005
-0.138557
-0.149283
-0.179683
-0.194639
-0.170766
-0.160108
-0.130811
-0.115633
-0.147749
-0.139983
-0.127852
-0.168611
-0.18014
-0.167522
-0.155216
-0.0691583
-0.0694058
-0.0533722
-0.0849167
-0.100558
-0.0732871
-0.0847231
-0.0550555
-0.0605538
-0.0297199
-0.0582851
-0.0914118
-0.0831422
-0.0567295
0.0133181
0.0274252
0.0491948
0.00367143
-0.0105424
0.0226874
0.0485667
-0.330543
-0.51984
-0.119387
-0.0652001
-0.0613597
-0.32014
-0.274405
-0.0101546
-0.00912226
-0.0122063
-0.0220795
-0.0172752
-0.0159598
-0.0190246
-0.0320054
-0.0264644
-0.0359083
-0.032744
-0.039273
-0.0479945
-0.0398548
-0.0759236
-0.088267
-0.0729884
-0.0717462
-0.0838214
-0.0885364
-0.0754508
-0.0860675
-0.090681
-0.099561
-0.0902803
-0.0770981
-0.0927785
-0.0792631
-0.0841511
-0.0813549
-0.0699181
-0.0789894
-0.0964007
-0.0778629
-0.0930673
-0.0861602
-0.0724371
-0.0423072
-0.030173
-0.0224643
-0.0586644
-0.0479191
-0.0433979
-0.0343396
0.145232
0.140583
0.14434
0.162855
0.157267
0.151591
0.155999
103.701
102.247
102.583
103.166
101.916
94.5777
102.654
98.9023
102.985
-3.01824
-1.31619
-3.03962
-3.89649
-3.05433
-0.944718
0.870522
0.941571
0.88877
1.18916
1.70565
1.43782
1.04011
1.02826
1.26958
1.39008
3.41482
-2.25853
-3.22082
4.16641
3.62542
2.4845
2.53009
3.37892
2.50397
4.77935
0.686701
0.716209
0.697669
0.701027
0.678693
0.685584
0.703595
52.3279
31.8936
13.3743
83.4021
42.2856
14.0114
37.9878
35.0027
22.7311
0.789744
0.81183
0.815706
0.736066
0.752538
0.770739
0.778294
0.864306
1.42432
1.69488
0.960407
1.13032
1.03544
0.895519
0.740487
0.729959
0.742365
0.730592
0.735029
0.733961
0.742673
0.728323
0.702371
1.03572
2.19704
1.14069
0.747131
1.88409
1.3796
1.88875
3.31446
1.19318
102.072
102.763
102.967
100.494
103.426
102.779
104.413
103.745
103.69
103.7
102.872
102.509
87.6918
101.581
102.724
103.858
4.36402
4.94374
3.87243
5.3134
3.01533
7.23642
3.23941
1.87481
1.75714
3.59994
2.23707
4.11195
2.26682
3.03602
0.952513
0.96975
0.940838
1.00376
0.987296
0.991022
0.977015
0.953333
0.966026
1.0603
1.08059
1.10398
1.1318
1.11555
1.09263
1.07628
1.2219
1.26225
1.18207
1.37859
1.32554
1.3321
1.29071
1.21958
1.25701
28.9461
28.3869
25.4594
69.487
27.0132
23.6504
41.8507
12.6283
31.9277
52.3663
16.7807
15.6003
13.9606
31.4379
-0.0108755
-0.0208671
-0.0149116
-0.00905417
-0.00363705
-0.0148942
-0.0101675
0.00447984
-0.00283376
0.00382594
0.00345154
0.00909104
0.0126368
0.00653209
0.0305803
0.0218492
0.0241606
0.0346625
0.0329231
0.0266849
0.0278194
0.0517032
0.0499766
0.0562947
0.0545838
0.0533472
0.0617691
0.0642351
0.0594369
0.0602997
0.0445782
0.0414085
0.04605
0.0468637
0.0487097
0.043277
0.0460995
0.0372279
0.0454679
0.0382914
0.0378717
0.0342532
0.0408036
0.0374347
0.0362496
0.0354841
0.0326869
0.038753
0.0424404
0.0385606
0.0368743
0.0150189
0.0159432
0.0199559
0.013898
0.0111706
0.0148169
0.0204721
0.0273581
0.0252144
0.0227906
0.0238131
0.0211539
0.0209504
0.0233182
0.00856493
0.0144054
0.0127243
0.0255672
0.0252192
0.0343146
0.00169323
0.00390889
0.00277563
0.00381615
0.00148284
0.00309247
0.00427149
0.00276734
0.0029858
7.23523e-05
0.00786309
0.00498055
0.00536614
0.00380497
0.00193894
0.000167372
0.00367037
0.00378431
0.00633593
0.00491097
0.00174751
0.00277187
0.00251318
0.00406726
0.00552244
0.00368954
0.000586009
0.00179963
0.00268499
0.00143588
0.00271614
0.00547634
0.0067548
0.004
0.00242352
0.00226849
0.00143693
0.000695867
0.00285636
0.00352456
0.00216313
0.00243608
0.000626277
0.00492948
0.00366168
-0.000915699
0.00173731
0.000415705
0.00188067
0.0041256
0.00267792
-0.00755607
-0.00962768
-0.00904206
-0.0108279
-0.00907975
-0.0126715
-0.00935832
-0.0221117
-0.0152001
-0.0134304
-0.0216217
-0.0225568
-0.0167792
-0.0164415
-0.0265469
-0.0266202
-0.02113
-0.0335653
-0.0273951
-0.0240021
-0.0293446
-0.0846262
-0.0940139
-0.102099
-0.0707375
-0.0667886
-0.129017
-0.146897
-0.133606
-0.140019
-0.117708
-0.150233
-0.129717
-0.195645
-0.221983
-0.223786
-0.215623
-0.253365
-0.226719
-0.19755
-0.331331
-0.369504
-0.387071
-0.341351
-0.387402
-0.280293
-0.293317
-0.426034
-0.302597
-0.383738
-0.242057
-0.241907
-0.34381
-0.388642
0.110279
0.0181573
0.0414558
0.198436
0.176408
0.165938
0.142677
0.0634438
0.0829143
0.340737
0.388598
0.335946
0.386561
0.344008
0.362905
0.312974
0.689758
0.672062
0.670795
0.670717
0.650784
0.661238
0.677799
0.636901
0.628093
0.651027
0.647882
0.64259
0.664951
0.657994
0.645674
0.63211
0.628388
0.611275
0.626951
0.634972
0.622172
0.702143
0.69602
0.708544
0.708989
0.704322
0.717444
0.712391
0.733451
0.737821
0.730698
0.727155
0.72123
0.738629
0.733501
0.733603
0.728004
0.720834
0.727732
0.731783
0.739613
0.731725
0.732032
0.725105
0.728305
0.721104
0.763705
0.778686
0.762491
0.763182
0.757069
0.75628
0.764008
0.753263
0.760838
0.754068
0.766202
0.778139
0.761447
0.762505
0.753815
0.751098
0.834627
0.905241
0.775268
0.826901
0.794083
0.809657
1.98887
1.56863
1.49308
1.45108
2.39015
0.923126
0.744391
0.743998
1.01422
0.732825
0.766462
0.736762
2.60128
1.55984
1.1725
1.07096
3.33442
2.78162
3.2733
4.35885
0.814866
0.658698
0.687201
1.71829
1.10348
0.664769
1.55481
4.29456
1.28134
4.21186
0.657316
1.4059
-7.01177
2.87322
8.36653
-4.33957
-3.03173
-0.490449
-4.44998
102.388
101.729
102.85
90.2626
99.5517
101.695
102
101.528
101.508
100.031
104.104
103.873
103.438
103.257
102.9
101.997
91.4602
102.047
99.8042
105.148
103.783
103.319
101.652
101.736
101.89
101.832
101.777
101.677
101.739
101.842
101.586
102.361
101.989
102.322
101.655
101.667
101.651
101.897
101.985
101.702
101.619
101.093
101.376
101.133
101.081
101.142
100.828
100.875
101.422
102.816
102.486
101.288
101.135
89.2678
100.991
2.31347
1.9701
1.70367
20.2068
0.977698
4.13929
2.64774
1.2969
1.45163
0.40231
1.05835
1.06795
2.86003
0.982575
1.03953
1.00896
1.02993
0.978766
0.965619
0.972283
0.956919
0.926031
0.923025
0.916305
0.92698
0.913537
0.910215
0.921412
0.944902
0.951624
0.955346
0.957967
0.953127
0.960758
0.971407
0.986317
0.990766
0.976274
1.00873
0.996123
1.00246
0.991701
0.981954
0.99209
0.994485
1.01014
0.98998
0.985785
0.972977
0.990731
0.977867
1.00259
0.989047
1.24944
1.21897
1.22859
1.26283
1.23198
1.26351
1.22513
-0.0853438
-0.0783972
-0.0614915
-0.0776643
-0.0545646
-0.0557139
-0.0750988
-0.141605
-0.157634
-0.172829
-0.147819
-0.166591
-0.192079
-0.170732
-0.126552
-0.104914
-0.0916133
-0.0802792
-0.0673792
0.0619872
0.0524966
0.0523731
0.0682023
0.0726672
0.0604356
0.0609072
0.0735094
0.0837779
0.0755179
0.0865268
0.0867072
0.0780189
0.0770923
0.114514
0.121111
0.109299
0.113114
0.108908
0.100425
0.106008
0.089905
0.102295
0.0929162
0.089985
0.0829142
0.0951589
0.0895866
0.0909336
0.0867098
0.0802882
0.0998997
0.0928996
0.091307
0.0874524
0.0616306
0.0721474
0.0708752
0.0689217
0.0810301
0.0758221
0.0708534
0.0677312
0.0796384
0.0698158
0.0685912
0.0715083
0.0761337
0.0509868
0.0444586
0.0508225
0.0522947
0.057423
0.0476511
0.0586575
0.0531114
0.0374699
0.0374708
0.0362212
0.0330155
0.0302616
0.0366031
0.0262491
0.0279164
0.0323655
0.0306445
0.00799537
0.00945514
0.0103481
0.0126288
0.0147574
0.011837
0.0109292
0.00827957
0.0085261
0.00625967
0.0086548
0.0115903
0.00997189
0.00811784
0.00323425
0.00254067
0.00436006
0.00686553
0.0053566
0.00795409
0.00440245
0.00466772
0.00618671
0.00608069
0.00246421
0.00170492
2.84129e-05
0.00246172
0.00220736
0.00147562
0.000828227
0.000184797
0.00156941
-0.00173655
-0.00151774
-0.00061301
4.17837e-05
-0.000959996
-0.000396961
2.9485e-05
-0.000107409
-0.000620221
0.000360073
-0.000730725
-0.00110775
-0.00175686
-0.000464157
-0.00090657
-0.0019225
-0.000936056
-0.00472286
-0.0064206
-0.00488359
-0.00471121
-0.00370619
-0.00393269
-0.00605579
-0.00440146
-0.00330614
-0.0322284
-0.0296644
-0.0335286
-0.0225868
-0.0244949
-0.0270582
-0.0259146
-0.071953
-0.0679482
-0.0639312
-0.0729139
-0.0573554
-0.0675742
-0.0547507
-0.148609
-0.143016
-0.171575
-0.119482
-0.147006
-0.144652
-0.156669
-0.14864
-0.148717
-0.109224
-0.137132
-0.114885
-0.26055
-0.313319
-0.338313
-0.198287
-0.241659
-0.230614
-0.237287
-0.255893
-0.294478
-0.26485
-0.293501
-0.218486
-0.229538
-0.280987
-0.0934211
-0.164349
-0.198167
-0.148605
0.192219
0.170886
0.17312
0.221849
0.215138
0.195186
0.205013
0.277207
0.238962
0.274612
0.280782
0.314412
0.293753
0.266492
0.40455
0.429075
0.397505
0.393171
0.420083
0.360232
0.395851
0.400953
0.370654
0.489472
0.475728
0.506736
0.451566
0.470667
0.489018
0.473867
0.642407
0.634111
0.633475
0.624402
0.6338
0.617759
0.629427
0.667
0.672733
0.679719
0.666742
0.660576
0.658703
0.664786
0.664963
0.671172
0.656303
0.667159
0.675413
0.667279
0.666495
0.659789
0.655214
0.693388
0.702219
0.702404
0.701897
0.711378
0.706558
0.715995
0.687744
0.70267
0.697262
0.733095
0.746748
0.737048
0.760263
0.783656
0.765576
0.876414
0.841867
0.830091
0.815363
0.886102
0.905902
0.957862
101.356
101.592
101.149
101.248
101.809
100.5
99.8243
93.1477
85.3239
99.2003
101.177
101.577
101.329
101.078
101.678
101.664
101.097
100.73
100.817
99.698
100.888
101.316
100.994
101.073
100.962
101.102
102.024
101.069
101.125
101.667
100.064
99.523
100.024
99.8341
99.073
98.1905
2.60149
3.15118
3.78625
6.11933
6.41938
6.53414
4.51296
3.54997
3.64296
2.52901
1.75734
0.490828
2.74881
2.97575
0.942943
0.76478
0.999117
1.04601
0.935196
1.04672
1.21677
1.01386
1.01829
1.02954
1.04004
1.04507
1.02617
1.0285
1.22311
1.22295
1.23188
1.25393
1.24375
1.24711
1.23871
1.37218
1.35771
1.38593
1.37786
1.40115
1.38159
1.36295
1.43666
1.43384
1.49301
1.51884
1.54692
1.46631
1.4602
1.59977
1.61894
1.53002
1.55515
1.56048
1.4864
1.48894
1.17084
1.2422
1.24301
1.28501
1.19627
1.15861
1.23726
0.0834605
0.0855146
0.0647948
0.0812179
0.101368
0.0910977
0.0705077
0.120916
0.107827
0.10481
0.128646
0.138314
0.120256
0.11837
0.13409
0.12846
0.142436
0.147345
0.148485
0.132593
0.137552
0.147728
0.159302
0.153218
0.161344
0.164225
0.156408
0.150623
0.159019
0.170699
0.166181
0.172249
0.17559
0.161018
0.166853
0.128216
0.139845
0.136781
0.131491
0.142289
0.139794
0.150547
0.147913
0.137672
0.176876
0.19562
0.182699
0.177549
0.167787
0.187131
0.178389
0.179559
0.174177
0.165484
0.182857
0.192314
0.180837
0.174788
0.146087
0.158704
0.147758
0.1471
0.137331
0.131752
0.141525
0.107082
0.115645
0.114354
0.127356
0.117445
0.122406
0.114336
0.145257
0.160681
0.151009
0.106412
0.116088
0.111947
0.0818738
0.0876183
0.0893112
0.0559399
0.0597179
0.0625612
0.0637822
0.0611918
0.0707891
0.0660107
0.0553172
0.0587249
0.0529963
0.0536115
0.0613076
0.0385513
0.0399002
0.0416823
0.045827
0.049585
0.0445391
0.0430524
0.044395
0.0535009
0.0515386
0.0422854
0.0418487
0.0495233
0.0489185
0.0292026
0.0297671
0.0350727
0.0257308
0.0304741
0.0320171
0.0267234
0.00127463
0.00481979
0.00292304
5.29676e-05
0.00237166
0.00073273
0.00143254
0.00277456
0.00106912
0.00174032
0.00274374
0.00297409
-0.00567836
-0.0027673
-0.00642249
-0.00623054
-0.0091109
-0.00589266
-0.00843424
-0.000642308
-0.00192222
-0.00303438
-0.0027312
-0.00281914
-0.00330827
-0.00288333
-0.000608191
-0.00032337
-0.00130755
-0.000777278
-0.00137958
-0.0019997
-0.00230391
-0.000898264
-0.0023221
-0.00290897
-0.000347235
-0.000444333
-0.00166091
-0.000796727
-0.00106102
-0.00121021
-0.00102589
-0.00106064
-0.00293363
-0.00186292
-0.000961632
-0.000117937
-0.000401139
-0.000985567
-0.000869323
-0.00168499
-0.000848252
-0.000624016
-0.000947147
-0.00122477
6.70924e-05
-0.00104572
-0.000276327
-0.00010711
-0.000771414
-0.000578186
-0.000593822
-0.00185706
-0.00436973
-0.000933405
-0.00232877
-0.001935
-0.000647909
0.000502696
0.000297626
0.000270688
0.000534777
-0.000564673
9.41634e-05
0.000966405
-0.00107342
0.00398696
0.000851152
-0.00116068
-0.00250145
-0.00315095
-0.00121957
0.000276488
0.437926
1.13369
0.60661
0.349664
0.441634
0.809049
0.433398
0.215567
0.306158
0.251954
0.311105
0.673622
0.222902
0.29289
0.128547
0.108676
0.123953
0.108516
0.103626
0.115653
0.117042
0.0436955
0.0535812
0.0728396
0.059959
0.0685013
0.0530408
0.0647029
0.0572899
0.0353112
-0.0190395
-0.0611265
-0.0276549
0.0256944
3.63656e-05
-0.0316195
-0.00606776
-0.0194463
-0.00414987
-0.0204571
0.0112484
0.00859063
-0.00880475
-0.00842319
0.0607412
0.0842746
0.0768849
0.0991425
0.0789522
0.0844831
0.0664571
0.0733596
0.0544567
0.13706
0.122333
0.114258
0.159453
0.161617
0.14739
0.150455
0.130812
0.12582
0.192921
0.182186
0.165032
0.207374
0.183738
0.201628
0.17991
0.363188
0.368156
0.383642
0.357216
0.341482
0.356435
0.369514
0.361117
0.365746
0.349314
0.388536
0.376902
0.365771
0.374925
0.466781
0.472358
0.484754
0.459488
0.446775
0.46033
0.470626
0.446542
0.459158
0.462121
0.457678
0.447102
0.467556
0.459597
0.506615
0.493757
0.512683
0.518362
0.529449
0.517967
0.508231
0.604251
0.597277
0.598549
0.605777
0.599249
0.594943
0.602035
0.567321
0.556995
0.555415
0.537363
0.549022
0.555913
0.546022
0.608397
0.597282
0.59555
0.582815
0.60937
0.592979
0.648281
0.638164
0.633857
0.637401
0.647965
0.633966
0.628798
0.618231
0.638395
0.629855
0.681004
0.672114
0.667679
0.913524
0.921156
0.994508
0.900726
0.90225
0.93149
0.966945
100.999
101.222
99.1228
101.099
96.6347
82.3853
98.9777
101.216
101.079
100.865
103.267
103.477
103.295
104.061
102.931
101.918
103.851
103.166
103.923
102.969
1.7161
2.22701
2.57732
1.53619
2.43294
4.74343
2.08894
4.78784
3.38789
2.76006
4.24892
3.97173
3.16592
1.94603
1.18273
1.16684
1.18455
1.19688
1.16906
1.16014
1.18122
1.24084
1.25099
1.22792
1.22969
1.23583
1.20949
1.21069
1.21936
1.21743
1.30868
1.27211
1.28815
1.3191
1.29214
1.30361
1.285
1.2577
1.26607
1.23421
1.24635
1.24679
1.2086
1.19709
1.21772
1.222
1.23724
1.22185
1.19079
1.2174
1.20129
1.14276
1.1668
1.16256
1.18147
1.1515
1.10773
1.08909
1.10525
1.06993
1.07387
1.0379
0.216843
0.209261
0.225728
0.213826
0.219491
0.229287
0.233423
0.233563
0.225523
0.240116
0.228273
0.234239
0.241027
0.246447
0.240465
0.25905
0.253073
0.259
0.26926
0.258081
0.247158
0.205817
0.215043
0.215545
0.227313
0.216045
0.221691
0.232551
0.256335
0.271052
0.257225
0.260377
0.271383
0.206778
0.217181
0.216437
0.214234
0.203316
0.274312
0.257981
0.274353
0.264231
0.255703
0.203962
0.21469
0.217732
0.207135
0.199611
0.178667
0.165316
0.174717
0.140831
0.126321
0.13331
0.153809
0.147641
0.178726
0.170646
0.162768
0.159073
0.161409
0.167117
0.172732
0.0959071
0.0988415
0.0994111
0.111863
0.107227
0.107796
0.104039
0.0969387
0.0983548
0.10816
0.103295
0.101723
0.112796
0.112633
0.0566091
0.0588082
0.0630857
0.073258
0.069851
0.0663932
0.0649481
-0.00415446
-0.00811355
-0.011251
-0.00536238
-0.00814032
-0.0094301
-0.0126916
-0.0188817
-0.0171988
-0.0253022
-0.0172864
-0.0168624
-0.0199717
-0.0232191
-0.00200454
-0.000201054
-0.00168114
-6.74032e-05
0.00115314
0.000794865
-0.00125448
0.000528618
0.000950075
-0.00176927
-0.000786888
0.0001787
-0.000469836
-0.0073612
-0.00881516
-0.00506229
-0.00761915
-0.000125091
0.00127707
0.00404139
-0.00105041
-0.00674962
0.00134337
-0.133355
-0.0362624
-0.00660867
0.0102637
0.0446598
-0.0137683
0.581319
-0.233432
-0.196936
-0.404936
-2.70106
0.388892
-0.284111
-0.394431
-1.75834
-1.58749
963.299
2002.32
2663.67
2707.48
2697.03
2613.81
2676.06
0.861192
0.669276
2.96447
3.5588
3.14671
21.1952
43.0337
2.79867
30.935
1.75758
25.6398
11.3229
96.0016
8.06014
-1.07497
-0.895112
-0.599031
-0.336907
-0.275214
-0.141415
-0.477778
3.4504
0.0343255
7.36079
-0.432828
0.438773
4.26103
11.679
0.0922811
0.0851442
0.0914378
0.0899811
0.0863419
0.0888324
0.0930422
0.0712098
0.0778663
0.0725995
0.0723776
0.0684651
0.0666374
0.0726805
0.0703435
0.0663411
0.0614525
0.06571
0.0696449
0.0712574
0.0719512
0.0682935
0.0646919
0.0661184
0.0633431
0.0645632
0.0659033
0.0642477
0.0664073
0.0683966
0.0772511
0.0727882
0.0682758
0.074597
0.0791565
0.0683214
0.0753016
0.147139
0.139124
0.156514
0.161128
0.148459
0.147455
0.160549
0.320695
0.308866
0.326687
0.331486
0.344173
0.331388
0.321
0.386797
0.376588
0.375477
0.37677
0.364899
0.35796
0.371595
0.42673
0.436148
0.4199
0.419941
0.411857
0.417637
0.42582
0.408063
0.416455
0.406412
0.419772
0.431698
0.419708
0.418894
0.409088
0.402911
0.453525
0.465809
0.466112
0.465611
0.4774
0.483919
0.472686
0.465613
0.445701
0.458351
0.523309
0.511562
0.510901
0.50042
0.51161
0.492097
0.504003
0.508284
0.512969
0.495448
0.520859
0.531151
0.518939
0.51082
0.511604
0.52925
0.518571
0.557469
0.573081
0.561884
0.557558
0.562539
0.57398
0.552923
0.54091
0.552966
0.563309
0.962702
0.973648
0.956465
0.953719
0.947354
0.96114
0.955605
0.982887
0.975609
0.993916
1.00968
1.02979
0.858094
0.968626
5.41279
2.46817
7.59563
0.873565
1.15759
3.91526
5.64211
6.03095
5.04456
10.1145
17.4723
9.01348
3.96582
20.6403
107.071
106.309
107.272
106.337
106.595
105.495
107.19
102.69
103.87
104.811
104.951
103.849
103.973
0.321475
0.307629
0.324737
0.320984
0.309866
0.332682
0.324638
0.326908
0.315928
0.330664
0.326818
0.317321
0.337484
0.329669
0.321161
0.335475
0.33191
0.334281
0.341474
0.331388
0.32193
0.341066
0.336569
0.325264
0.345073
0.358536
0.346196
0.337446
0.286737
0.300688
0.299885
0.318301
0.305197
0.310763
0.299181
0.30087
0.280852
0.29409
0.29154
0.27818
0.287329
0.290521
0.297352
0.279348
0.287172
0.283743
0.269522
0.278707
0.290692
0.284483
0.271251
0.278781
0.25626
0.264183
0.271984
0.280274
0.275122
0.266864
0.259914
0.263981
0.268664
0.287622
0.242126
0.25959
0.255132
0.271446
-0.376623
-0.413829
-0.361332
-0.461504
-0.440338
-0.40861
-0.419741
-0.321084
-0.285683
-0.301725
-0.339735
-0.303881
-0.305262
-0.34259
-0.242393
-0.204671
-0.169844
-0.229649
-0.234339
-0.16984
-0.234521
-0.275724
-0.30234
-0.363422
-0.243034
-0.332668
2384.25
1299.34
2405.68
1995.75
546.695
142.142
2210.51
0.345717
5.73723
10.5056
0.472363
0.710887
0.176688
4.63776
0.52233
0.487572
0.736203
0.916267
0.735571
0.766038
1.33305
-0.492311
-0.453034
-0.449182
-0.105266
-0.0702236
-0.0953073
-0.0603964
-0.0807722
-0.0753258
-0.08843
-0.0396292
-0.0171841
0.011808
-0.00830214
-0.0295056
-0.00038817
-0.0191331
-0.0235509
-0.0633277
-0.00253773
0.000800395
0.00139466
0.00303399
0.0041152
0.00330357
0.00405209
0.0415697
0.0470636
0.034231
0.0345594
0.0392447
0.031771
0.0258292
0.0751112
0.0732307
0.0702906
0.0765507
0.0716835
0.0723726
0.0770798
0.090803
0.0879773
0.0968132
0.0984437
0.0913828
0.092173
0.0979801
0.117866
0.118934
0.12889
0.118857
0.112344
0.114826
0.122044
0.160721
0.170051
0.159007
0.161927
0.149591
0.16334
0.152547
0.167412
0.158006
0.165598
0.171352
0.174707
0.167226
0.172538
0.179228
0.176835
0.288416
0.294154
0.306494
0.274659
0.286674
0.284985
0.295061
0.315908
0.331645
0.32685
0.303459
0.291934
0.291675
0.281791
0.292193
0.273797
0.286177
0.349609
0.334999
0.337775
0.334846
0.348748
0.315247
0.381632
0.376182
0.3955
0.370627
0.359002
0.377402
0.381185
0.393523
0.381861
0.371876
0.426844
0.420376
0.438192
0.411114
0.402107
0.415334
0.421504
0.414759
0.411736
0.402929
0.524962
0.539895
0.518391
0.514626
0.498945
0.527238
0.513931
0.970859
0.98943
0.981669
1.00955
0.996143
0.957426
0.968334
0.952397
0.948605
0.954779
0.966477
0.958468
1.04231
1.03249
1.03612
1.03011
1.04884
1.03669
1.0499
0.992501
0.97741
0.98672
1.00953
0.996683
1.0621
1.05466
1.06654
1.10602
1.193
1.04198
1.07581
1.04014
1.04379
1.02847
1.02286
1.02776
1.03508
1.03795
1.64999
1.50928
1.34531
1.83356
1.71075
1.82035
1.07702
106.619
105.707
105.85
106.573
105.926
106.297
105.602
106.269
106.428
106.226
106.752
106.193
107.041
106.21
105.694
106.95
105.63
105.624
106.015
105.024
105.137
104.542
106.189
105.318
106.954
107.006
0.428203
0.437306
0.427254
0.422029
0.409734
0.416864
0.427817
0.42791
0.433864
0.44399
0.400865
0.3891
0.384474
0.390011
0.402122
0.380456
0.394068
0.518571
0.530109
0.52587
0.548468
0.553445
0.545605
0.538089
0.455756
0.452422
0.476338
0.479692
0.460128
0.464642
0.484177
-0.0452645
1.36571
0.0514358
1.24516
0.81793
-0.260069
0.254481
-0.199614
-0.364397
-0.108121
-0.563933
-0.334994
0.057439
1.48001
0.577573
-0.677905
-0.0468873
-0.899074
-1.35557
-0.992505
0.579642
0.115852
-0.570867
1.3887
0.393786
-0.725803
2.64641
0.234641
0.655314
0.613916
1.28187
1.2537
3.07934
1.38612
0.279286
0.245328
0.309622
0.243319
0.22118
0.246708
0.156182
0.174496
0.148625
0.144599
0.566827
0.487478
0.430507
0.874085
1.05164
0.559336
0.64696
0.0213498
0.0392282
0.0321057
0.0420438
0.0581625
0.0505492
0.0366531
0.00293079
0.00587325
-0.00273026
0.00677758
0.00396549
0.00826554
0.00335862
0.008317
0.00634587
0.011255
0.00458348
0.00103565
0.00607398
0.0071924
0.00803807
0.00192996
0.0108411
0.00549803
0.00697958
0.00391142
0.00126353
0.00432
0.00640617
0.00674844
0.00789203
0.00846298
0.0394821
0.0443898
0.0463697
0.042495
0.0468343
0.0554251
0.0508044
0.0522283
0.0486402
0.132074
0.123947
0.123316
0.130931
0.121235
0.125359
0.133752
0.15618
0.164911
0.154154
0.163915
0.15716
0.158691
0.151477
0.193478
0.1831
0.181982
0.174458
0.184056
0.167586
0.177503
0.207333
0.216734
0.217639
0.227432
0.216698
0.221338
0.231139
0.200805
0.216663
0.210988
0.251133
0.266751
0.249671
0.255374
0.246115
0.236956
0.296478
0.291817
0.306436
0.304013
0.316995
0.316284
0.301095
0.314014
0.319619
0.307797
0.534288
0.554305
0.570003
0.571688
0.557735
0.594845
0.579831
0.645801
0.637311
0.618308
0.629636
0.621367
0.596531
0.608871
0.684281
0.669297
0.679193
0.712492
0.714942
0.696245
0.702196
0.778396
0.747339
0.753446
0.761235
0.726577
0.777949
0.750055
0.932799
0.905852
0.921205
0.896597
0.902258
0.925704
0.916729
1.04396
1.05298
1.0557
1.05995
1.08253
1.08024
1.0623
0.947213
0.971475
0.972391
1.00034
0.973274
1.11073
1.10783
1.0868
1.11597
1.13862
1.12174
1.10261
1.06005
1.0374
1.04359
1.02171
1.03463
1.03342
1.046
1.09556
1.07295
1.07975
1.1113
1.10358
1.08599
1.09087
105.324
104.724
105.595
103.623
103.586
103.498
103.857
103.026
103.724
102.95
104.331
104.352
104.66
103.802
104.77
103.664
103.216
103.43
103.645
103.242
102.612
103.199
103.737
103.38
104.123
104.403
0.548862
0.56307
0.562043
0.564935
0.576507
0.557545
0.568264
0.505945
0.513688
0.504323
0.496444
0.504941
0.490147
0.499841
0.467111
0.467708
0.457303
0.482676
0.472725
0.476267
0.467103
0.506388
0.510108
0.520431
0.450733
0.461426
0.466726
0.452345
0.465498
0.464741
0.469594
0.462827
0.462558
0.452703
0.484617
0.490954
0.47629
0.466976
0.45767
0.476565
0.468965
0.489493
0.482163
0.652504
0.539378
0.570858
0.502013
0.553039
0.607517
0.693102
0.470512
0.36534
0.347399
0.56606
0.347283
0.291115
0.309159
0.0569571
0.059811
0.0613324
0.0635847
0.0635072
0.0591629
0.0604573
0.00853615
0.011164
0.00775391
0.028855
0.0353559
0.031701
0.0275342
0.0329199
0.034962
0.0312992
0.0082627
0.00326948
0.00827959
0.012081
0.0161009
0.00882109
0.0038634
0.00921503
0.0124814
0.00621524
0.000909993
0.00630893
0.00138235
0.00500407
0.00418737
0.00603394
0.0061422
0.0085555
0.00756622
0.00901662
0.00838315
0.0114352
0.00607741
0.00130404
0.00867139
0.010236
0.00589048
0.00674057
0.0035225
0.00676259
0.00746864
0.00338647
0.00847842
0.0107097
0.00760856
0.0722829
0.066721
0.070561
0.0713561
0.0747588
0.0723818
0.0671671
0.125532
0.139298
0.129322
0.130507
0.122575
0.111968
0.155703
0.163662
0.153103
0.150486
0.143414
0.15762
0.14895
0.142098
0.189255
0.183712
0.196542
0.195944
0.189501
0.200313
0.199191
0.190677
0.188222
0.198473
0.202743
0.196629
0.20668
0.208099
0.211392
0.198673
0.205485
0.245708
0.237592
0.242507
0.232138
0.242731
0.230896
0.240658
0.235544
0.235684
0.240387
0.226557
0.22062
0.223599
0.229188
0.261123
0.274339
0.276194
0.294888
0.280739
0.272982
0.284407
0.232866
0.248461
0.241502
0.228146
0.242987
0.246098
0.232677
0.351482
0.377191
0.357964
0.327097
0.346552
0.360378
0.343508
0.334059
0.301945
0.31331
0.308709
0.330662
0.340523
0.315316
0.434865
0.415352
0.407238
0.415742
0.39974
0.378115
0.400255
0.413402
0.431042
0.396118
0.378883
0.353878
0.446578
0.476577
0.492976
0.541202
0.513957
0.43743
0.465432
0.482322
0.507115
0.496967
0.517731
0.476099
0.477445
0.446918
0.477024
0.496455
0.46907
0.446793
0.659673
0.672043
0.688174
0.735056
0.740115
0.712304
0.705564
0.882112
0.908816
0.873078
0.957908
0.975915
0.94485
0.935146
0.934285
0.884284
0.920003
0.871734
0.871088
0.909087
0.919602
1.07474
1.03262
1.05328
1.0203
1.03674
1.05071
1.07043
1.09814
1.12685
1.14856
1.19004
1.16234
1.15059
1.12705
1.20628
1.2077
1.22362
1.21395
1.21864
1.22858
1.23379
103.14
102.691
103.512
103.292
103.736
103.424
102.749
104.178
103.809
102.632
103.25
103.153
103.954
102.039
104.108
104.056
103.996
103.658
103.29
101.843
102.711
102.06
99.0236
101.535
100.912
102.234
101.514
104.927
104.934
103.296
106.232
103.11
103.846
105.373
6.06662
1.81597
3.51016
1.15254
2.04578
0.604708
5.6259
3.62832
2.49054
3.54283
2.92671
4.85794
4.32385
2.23595
1.36864
0.843794
2.43046
1.18121
0.869789
2.54079
2.44143
1.31329
1.78238
0.799525
0.793142
0.81723
0.808755
0.808317
0.83723
0.847045
0.842409
0.84128
0.711664
0.727483
0.716271
0.690589
0.708355
0.720667
0.715438
0.673802
0.681979
0.681267
0.679691
0.670278
0.68256
0.671653
0.620317
0.609554
0.609956
0.625494
0.628024
0.614536
0.614963
0.596839
0.603496
0.598699
0.598819
0.590579
0.593838
0.600412
0.569873
0.559394
0.569354
0.575257
0.5674
0.570721
0.578221
0.55345
0.56076
0.561339
0.561019
0.566453
0.556038
0.56179
0.559718
0.553301
0.562201
0.571598
0.565405
0.528594
0.536045
0.538202
0.536031
0.542323
0.541355
0.549269
0.525124
0.534576
0.535621
0.532992
0.525194
0.566338
0.56679
0.55772
0.568192
0.575424
0.569862
0.563066
0.610558
0.610291
0.620445
0.60872
0.604311
0.606228
0.612781
0.638101
0.636311
0.641984
0.626407
0.627392
0.629646
0.632469
1.16846
0.63481
0.614381
0.821724
0.966887
1.28481
1.03441
11.628
7.43454
10.9574
10.6533
5.59078
12.737
8.5907
5.22961
9.94697
9.62121
3.65047
5.43136
4.26813
4.88219
6.99497
6.05354
10.8043
10.2196
8.15925
10.418
0.691765
0.705983
0.695974
0.697497
0.686979
0.689934
0.692425
0.707532
0.713678
0.709676
0.699361
0.713934
0.710059
0.715786
0.712685
0.713496
0.723648
0.707832
0.704582
0.708045
0.714215
0.77818
0.876457
0.817257
0.830675
0.893644
0.900861
0.831178
1.06564
1.01909
1.0642
1.05776
1.00945
1.01894
1.07911
0.645505
0.843842
0.762874
0.835421
0.75076
0.787253
0.950745
0.784292
0.899705
1.08182
1.02729
0.984032
1.35078
1.24397
1.23876
1.33266
196.401
173.953
919.505
154.676
197.683
129.796
397.267
216.746
191.177
52.0762
30.1153
73.6764
78.5869
167.689
245.346
292.054
1348.96
1019.84
447.103
952.864
103.917
22.6059
111.513
22.823
17.4503
39.6146
15.3319
47.6024
6.87291
6.55201
5.24006
8.9666
4.04961
-0.291699
-0.0526136
-0.225931
-0.305459
-0.322367
-0.177817
-0.267569
-0.245061
-0.2276
-0.111939
-0.22672
-0.299503
0.0511079
0.0537574
0.053035
0.0623275
0.0605891
0.0596002
0.0602396
0.067837
0.0695278
0.0693163
0.0728699
0.0700331
0.0679862
0.0706818
0.0669507
0.0649282
0.0664175
0.066417
0.0646662
0.0671428
0.0676599
0.0560583
0.0631264
0.0612857
0.0625712
0.0592496
0.055912
0.0608193
0.047134
0.0543162
0.0482718
0.0472203
0.0398089
0.0298476
0.0376865
0.0313935
0.0285386
0.033991
0.0374898
0.0318742
0.0136479
0.00892435
0.00971634
0.0169428
0.0121998
0.0122301
0.0168389
0.00113689
0.00543637
0.00685732
0.0099042
0.0168099
0.0121124
0.00411563
0.00841625
0.00640227
0.0112898
0.0149297
0.009845
0.00435821
0.00473291
0.00137016
0.00571725
0.00870576
0.018513
0.0128002
0.0100706
0.00725914
0.00122399
0.00665167
0.0053255
0.0389081
0.0286151
0.0341939
0.0350192
0.0291364
0.0341951
0.0385945
0.0303386
0.0236626
0.0318522
0.0308627
0.0395492
0.0339008
0.0407273
0.0300609
0.0184419
0.0263917
0.0545947
0.0651403
0.0539203
0.0580034
0.0510855
0.0430407
0.0675092
0.0741483
0.0746312
0.0843956
0.0775337
0.0654205
0.0716164
0.0775044
0.0731017
0.0749565
0.0839213
0.0736269
0.0734593
0.06727
0.0771132
0.0719811
0.142835
0.130718
0.130438
0.12229
0.129457
0.133214
0.125295
0.143789
0.140062
0.139786
0.130621
0.134629
0.131673
0.136771
0.137107