/*--------------------------------*- C++ -*----------------------------------*\
| =========                 |                                                 |
| \\      /  F ield         | OpenFOAM: The Open Source CFD Toolbox           |
|  \\    /   O peration     | Version:  v2012                                 |
|   \\  /    A nd           | Website:  www.openfoam.com                      |
|    \\/     M anipulation  |                                                 |
\*---------------------------------------------------------------------------*/
FoamFile
{
    version     2.0;
    format      ascii;
    class       volScalarField;
    location    "0.15";
    object      alpha.water;
}
// * * * * * * * * * * * * * * * * * * * * * * * * * * * * * * * * * * * * * //

dimensions      [0 0 0 0 0 0 0];


internalField   nonuniform List<scalar> 
24700
(
1
1
1
1
1
1
1
1
1
1
1
1
1
1
1
1
1
1
1
1
1
1
1
1
1
1
1
1
1
2.1881e-07
4.59274e-07
1.51717e-07
1.80022e-07
5.65336e-07
1.39189e-07
3.90878e-07
3.84022e-05
6.00104e-05
3.84022e-05
3.84022e-05
5.36934e-05
4.36666e-05
0.000106878
0.000684165
0.000572272
0.000524267
0.000612325
0.0002167
0.000129722
0.000327761
1.50394e-07
5.97437e-07
1.0148e-07
4.15313e-07
6.41e-07
1.55869e-07
1.1965e-07
0.00143391
0.00117362
0.00106498
0.00439404
0.0039883
0.00126492
0.00228951
5.93359e-10
2.19084e-10
8.37851e-11
2.50156e-10
3.53445e-10
2.15824e-10
1.21318e-10
1.50536e-06
4.67892e-06
1.58807e-06
2.08709e-06
4.56355e-07
3.04782e-07
1.22277e-06
0.542549
0.0734161
0.966905
0.528302
0.0600567
0.735133
0.936174
5.45448e-06
2.29376e-06
9.99166e-07
5.2952e-06
5.34333e-06
1.35785e-06
2.41414e-06
3.40365e-15
3.25677e-15
2.5477e-15
2.36954e-16
1.02869e-15
4.02487e-16
1.33392e-15
2.41913e-23
1.98574e-23
3.05132e-23
6.46351e-23
1.91802e-23
2.24429e-23
4.72903e-23
3.45074e-11
1.17442e-11
6.74755e-12
2.68172e-12
4.34518e-12
5.16514e-12
1.21341e-11
8.40203e-45
5.71997e-45
3.43486e-44
6.66559e-44
7.25389e-43
1.11492e-43
1.85155e-44
2.37959e-45
1.58512e-45
5.82071e-46
8.19428e-47
4.11271e-47
4.40329e-46
8.66615e-46
9.14816e-45
1.3108e-46
9.2701e-46
2.18378e-45
6.84288e-46
1.79253e-46
1.46041e-48
1.63214e-47
1.25699e-35
6.77094e-37
1.19916e-36
9.35707e-38
1.74158e-37
1.38761e-36
3.15861e-37
2.73889e-16
1.23428e-16
1.55896e-17
2.75692e-16
3.34535e-16
1.58586e-16
2.67627e-17
0.00073804
0.000634434
0.00078661
0.000244365
0.000623286
0.00014958
0.000267479
8.21717e-05
5.792e-05
4.18579e-05
5.05064e-05
4.77731e-05
6.27793e-05
6.18273e-05
0.000143635
9.60166e-05
5.69056e-05
0.000146891
9.03574e-05
9.21421e-05
0.000153159
0.000151051
0.000109351
0.000170272
0.000311161
0.000430487
0.000296566
0.000270809
9.9726e-05
0.000119779
9.97067e-05
9.9726e-05
9.97067e-05
9.9726e-05
0.000124843
9.9484e-05
7.00085e-05
0.000310781
0.000240707
0.000286006
8.61645e-05
9.45642e-05
2.73873e-05
4.34915e-05
7.75613e-05
3.9979e-05
7.6619e-05
2.98046e-05
3.73807e-05
0.00101435
0.000344303
0.000344857
0.000525913
0.00139365
0.00150356
0.00121701
0.883788
0.813963
0.969696
0.811566
0.910951
0.913695
0.911887
6.49505e-05
0.000114278
0.000130359
8.25549e-05
6.49649e-05
0.000177365
0.000117788
1.438e-05
6.78749e-06
7.74179e-06
6.78641e-06
1.04578e-05
6.42621e-06
1.30632e-05
5.79263e-05
6.80857e-05
3.91749e-05
6.82243e-05
4.00425e-05
6.82782e-05
3.64049e-05
4.9788e-05
0.000108198
0.000112152
3.17582e-05
2.39911e-05
2.70431e-05
3.77746e-05
2.6295e-05
4.58722e-05
6.9403e-05
2.63399e-05
2.64414e-05
2.42825e-05
5.67501e-05
0.00262147
0.00185692
0.0018774
0.00116799
0.000907698
0.000907769
0.996606
0.993582
0.977736
0.998989
0.998126
0.993589
0.135416
0.0491938
0.0480944
0.0262237
0.00777511
0.00990629
0.0470282
0.00488955
0.000930988
0.0064541
0.00644458
0.00469046
0.00283579
0.00440827
0.000303471
0.000347984
0.000337696
0.000171681
0.000347984
0.000154238
0.000152782
0.000757374
0.00120583
0.000889725
0.000803351
0.00178323
0.00256764
0.00121633
0.00114698
0.000694029
0.00030465
0.000381122
0.000304483
0.000610606
0.000455017
0.000216964
0.00029024
0.000220207
0.000222849
0.000449184
0.00056735
0.000259197
2.52853e-05
6.77951e-06
1.1136e-05
3.74686e-06
4.94808e-06
6.54279e-06
7.48046e-06
0.000884839
0.00131255
0.000886271
0.00554189
0.00264363
0.00130771
0.00218204
0.000662199
0.000526094
0.00066271
0.000219149
0.000662199
0.00010877
0.000499822
2.22736e-07
1.28582e-07
3.18577e-07
1.01588e-07
2.59282e-07
9.1123e-08
2.66137e-07
6.33761e-24
1.46027e-24
1.41168e-23
1.86561e-23
1.66094e-23
2.9871e-24
7.95691e-24
1.60357e-23
2.71428e-24
4.48641e-24
3.39081e-23
1.94223e-22
9.60865e-24
3.30885e-23
7.45917e-27
3.47906e-26
4.89206e-27
7.23715e-26
5.02724e-25
1.61196e-26
5.99108e-26
4.05506e-35
4.06231e-36
2.2783e-36
3.38631e-37
9.40594e-37
1.25209e-36
8.41604e-36
1.95948e-40
1.11557e-40
9.51506e-40
1.8392e-39
1.7541e-38
3.6741e-40
1.92763e-39
1.08008e-40
1.14928e-42
1.14613e-41
2.21621e-41
2.15892e-42
5.52043e-41
1.0577e-39
1.70762e-36
9.38201e-37
1.76397e-35
2.27269e-37
1.07542e-37
3.49674e-37
2.15671e-36
3.57631e-38
6.63626e-37
6.38931e-38
1.14075e-38
5.83724e-39
7.66685e-38
1.79426e-38
5.16372e-25
6.34744e-25
6.38447e-25
3.64295e-25
2.37878e-25
3.64151e-25
5.00068e-25
3.21677e-14
4.40077e-14
4.58797e-14
1.17003e-14
1.68965e-15
3.01657e-15
1.55597e-14
1.37085e-10
6.9032e-12
1.13376e-10
1.49292e-10
6.06596e-11
8.77503e-12
1.35245e-10
0.983122
0.912737
0.837249
0.975482
0.983284
0.977381
0.928016
8.4358e-05
8.40962e-05
7.48666e-05
8.41984e-05
7.55806e-05
8.43958e-05
8.44002e-05
3.71789e-05
3.71789e-05
3.71789e-05
1.13731e-05
2.19713e-05
1.02886e-05
1.88467e-05
0.00076577
0.00077787
0.000519975
0.000519495
0.00077758
0.000778347
0.000778363
0.00153109
0.00153115
0.00153115
0.000468185
0.00121552
0.000641663
0.000721894
0.00127678
0.00124832
0.000468185
0.000974442
0.000468185
0.000117991
0.000118138
0.00023695
0.000186656
0.000117872
0.00031519
0.000295973
0.000657513
0.000969603
0.000305594
0.000301632
0.00120537
0.000668717
0.000835539
0.000668674
0.00186333
0.000944616
0.00230213
0.00113261
4.61113e-05
0.000274364
0.000147776
4.56639e-05
6.8045e-05
0.000107827
0.000103231
1.45448e-05
2.22364e-05
1.33002e-05
3.48523e-05
7.34995e-05
3.80975e-05
2.42084e-05
0.000491305
0.000543378
0.00049517
0.000709005
0.00174591
0.00129957
0.000630169
7.98162e-05
5.34471e-05
2.26234e-05
2.58622e-05
6.64033e-05
2.7253e-05
8.55875e-06
5.99639e-10
2.23751e-10
6.28791e-10
5.76946e-11
7.1173e-10
6.2898e-11
6.76683e-10
8.43237e-18
3.21745e-18
4.58713e-19
1.11784e-17
1.06446e-17
4.05259e-18
8.11366e-19
1.52177e-19
1.30696e-19
8.67257e-19
8.79821e-18
1.82022e-18
8.26479e-19
4.69453e-19
7.43231e-27
2.4836e-26
2.93509e-26
5.85632e-25
8.04281e-26
3.20567e-26
1.77519e-25
3.25541e-33
5.0307e-33
1.14063e-33
8.4156e-32
9.12608e-33
2.70399e-32
5.46183e-33
2.69648e-17
1.78034e-17
3.48289e-17
3.70518e-17
4.02338e-17
2.099e-17
3.35313e-17
5.38863e-15
2.72811e-15
7.21803e-15
5.10964e-15
6.65997e-15
2.30872e-15
5.57096e-15
5.45973e-05
2.10858e-05
1.65029e-05
5.13884e-05
4.19205e-05
1.56869e-05
1.41595e-05
5.72414e-06
5.72414e-06
3.533e-06
5.71871e-06
2.48047e-06
3.60461e-06
2.46038e-06
2.85864e-05
4.78222e-05
4.62391e-05
1.11792e-05
2.19792e-05
3.96568e-05
2.59274e-05
7.7713e-06
1.02134e-05
6.53291e-06
6.01924e-06
2.19133e-05
1.49196e-05
1.06787e-05
0.000350207
7.04732e-05
0.000265014
7.82209e-05
7.33081e-05
0.00031568
0.00068193
4.58331e-05
9.41114e-05
2.48673e-05
2.30521e-05
3.40125e-05
7.44693e-05
3.54972e-05
0.00921291
0.00162379
0.00738605
0.0121453
0.00879163
0.00296437
0.00733782
0.0995905
0.532661
0.0776167
0.0425853
0.114914
0.265669
0.0630008
0.000499341
0.0017447
0.00116879
0.000495331
0.0008306
0.00165842
0.000738448
0.00351933
0.00317939
0.00314667
0.00837653
0.00377523
0.00359774
0.00344458
0.916473
0.896733
0.947706
0.915846
0.811058
0.940492
0.924032
0.00414058
0.00476831
0.00377802
0.00174579
0.00232971
0.00266413
0.00239796
9.3631e-11
5.11785e-11
2.23191e-11
8.31321e-13
4.96975e-12
8.69069e-12
1.67042e-12
2.7729e-20
1.22613e-19
1.41234e-20
9.34246e-20
2.11461e-20
9.06934e-20
2.26027e-20
4.97298e-21
6.89101e-20
1.23691e-20
1.58195e-21
4.91533e-21
2.83734e-20
5.87733e-21
2.14684e-20
1.41787e-20
5.22443e-21
1.98989e-19
7.37797e-20
4.53082e-25
1.68352e-25
4.70713e-25
8.63704e-24
1.24281e-24
8.2619e-25
3.05534e-24
2.3964e-23
2.25908e-24
4.56684e-23
2.69301e-22
4.47733e-24
2.62609e-27
7.56956e-27
1.26591e-26
4.93148e-26
1.1294e-26
5.9559e-13
5.32902e-13
6.268e-13
3.79575e-13
1.55751e-13
1.85128e-13
4.53872e-13
1.75295e-05
3.87691e-06
1.20449e-05
9.3362e-06
7.36671e-06
1.57163e-06
4.62767e-06
3.69604e-06
5.24449e-06
3.6935e-06
6.00532e-06
7.88703e-06
1.8099e-05
7.13966e-06
6.85621e-06
2.08706e-06
3.28242e-06
1.08652e-06
1.7824e-06
3.96371e-06
2.37625e-06
1.56455e-10
7.13163e-11
1.07761e-10
6.72628e-11
7.26735e-11
8.89806e-11
1.35937e-10
1.10441e-10
8.04909e-11
2.1538e-10
1.12257e-10
8.14069e-11
1.47619e-10
9.20233e-11
2.02039e-05
2.02039e-05
9.37326e-06
1.20316e-05
2.02039e-05
1.02692e-05
3.50434e-06
7.84596e-05
7.84127e-05
6.55373e-05
6.55675e-05
7.85813e-05
7.85317e-05
7.86269e-05
9.59056e-09
1.59544e-08
4.55991e-08
7.9346e-09
6.00832e-09
9.90069e-09
2.36618e-08
7.60266e-09
3.09971e-09
3.99874e-08
1.57058e-08
4.94237e-09
3.19876e-05
1.70962e-05
1.1248e-05
1.17591e-05
1.12883e-05
8.7725e-06
2.23994e-05
0.000504034
0.000270709
0.000243349
0.000243485
0.000286844
0.000300523
0.000530109
0.00133478
0.0043858
0.00126991
0.00217744
0.00126847
0.00296331
0.00123499
0.226218
0.0271942
0.0905862
0.087086
0.783919
0.0280238
0.131345
7.83382e-06
5.25384e-06
6.86344e-06
1.79676e-05
4.40129e-05
9.21112e-06
2.115e-05
0.000903603
0.00135333
0.000943951
0.00453256
0.0032235
0.0023082
0.002706
0.0298525
0.287302
0.926714
0.0282955
0.0286592
0.320894
0.619042
0.000159385
0.000300637
8.89236e-05
9.90082e-05
8.78823e-05
0.000183194
8.75854e-05
3.8847e-06
5.35551e-06
4.05848e-06
3.83364e-06
1.40921e-05
1.15101e-05
1.71652e-06
5.27832e-16
4.8869e-15
1.16628e-15
1.92414e-16
4.81339e-16
2.20168e-15
5.91123e-16
1.59112e-15
1.20325e-15
4.84378e-16
1.10858e-14
4.85181e-15
1.48134e-19
2.25263e-20
2.543e-20
3.11531e-19
1.54397e-18
1.43178e-19
7.90067e-20
5.72357e-25
7.92938e-24
9.54596e-25
9.25331e-26
2.54141e-25
1.54443e-24
2.67643e-25
3.77314e-25
4.99389e-25
2.26938e-25
3.45488e-25
4.98256e-25
5.54012e-25
2.87067e-25
3.20079e-13
1.81351e-13
1.02719e-12
1.73582e-13
2.434e-12
1.01718e-12
4.3594e-11
9.60853e-11
1.97291e-11
2.49718e-11
1.55624e-11
1.31912e-11
1.65362e-11
1.08044e-10
2.8661e-10
1.51935e-10
0.985167
0.99151
0.96723
0.989626
0.964175
0.991503
0.975364
4.72325e-05
3.28634e-05
6.61764e-05
1.08743e-05
6.61578e-05
2.59131e-05
6.83134e-05
7.38017e-09
9.09406e-09
1.11458e-08
1.29425e-09
3.41086e-09
3.96962e-09
2.69868e-09
1.86018e-09
1.55039e-09
2.64929e-09
2.90188e-09
1.82895e-09
3.04075e-09
2.03842e-09
8.35571e-11
6.55932e-11
3.75679e-10
1.65703e-10
2.08299e-10
7.57567e-11
8.92269e-11
7.15679e-08
3.47564e-08
9.60759e-09
1.43623e-08
3.68405e-08
2.24311e-08
4.53526e-09
1.86263e-05
5.21376e-05
5.76356e-05
3.00081e-05
1.27318e-05
1.51379e-05
7.74514e-06
5.1642e-05
4.73307e-05
4.75106e-05
7.33432e-05
7.33895e-05
5.57e-05
2.3993e-05
1.62142e-06
2.909e-06
7.0286e-07
3.42164e-07
7.0935e-07
3.94592e-07
1.86791e-06
0.0874342
0.0955382
0.357195
0.0486675
0.0219046
0.0218933
0.0850182
0.999133
0.998769
0.999134
0.996832
0.990036
0.998608
0.993339
0.999394
0.999679
0.998128
0.999839
0.999474
0.998387
0.995001
0.997834
0.99834
0.990123
0.00012596
0.000123073
0.000238914
0.00069441
0.000326342
0.000212078
0.000366274
0.00109453
0.0010312
0.00134857
0.00575892
0.00268796
0.00228551
0.0022175
0.0711772
0.0232192
0.052836
0.032381
0.0223644
0.0463955
0.0309482
0.121217
0.0534058
0.0517391
0.0604656
0.0622866
0.0546023
0.146301
1.05079e-10
1.13187e-10
6.37793e-11
1.08723e-10
3.15824e-10
2.12296e-10
7.50708e-11
7.79076e-14
1.12317e-13
1.47013e-13
1.61271e-13
4.01719e-13
8.14921e-13
2.48196e-13
4.80815e-14
2.80969e-14
4.52998e-14
2.16584e-27
4.39066e-27
7.01748e-27
8.72749e-26
2.63921e-26
2.26435e-26
6.21739e-27
1.3893e-08
9.14374e-09
1.57858e-09
8.97314e-12
1.03791e-08
4.47159e-11
6.54251e-09
2.86732e-09
4.8303e-10
1.59955e-13
6.37178e-13
1.66155e-12
2.19245e-09
1.96508e-09
1.17797e-08
1.01556e-08
3.06045e-09
9.56287e-10
1.22572e-27
7.19246e-10
9.15349e-09
9.21507e-07
3.41096e-07
1.0786e-07
4.55866e-07
7.2668e-08
5.5073e-07
1.96602e-06
5.30903e-09
9.742e-08
1.0572e-09
2.54665e-09
4.09149e-09
4.01602e-08
1.08957e-08
4.90572e-09
1.46622e-09
2.15628e-08
3.08316e-08
4.39543e-08
1.80642e-08
1.42589e-09
8.8178e-09
1.01991e-09
8.29755e-06
6.72566e-06
2.1758e-06
2.21071e-06
7.2691e-07
3.14458e-06
1.99303e-06
9.55061e-06
1.01773e-05
3.21377e-06
3.21377e-06
3.55883e-06
7.47522e-06
7.15934e-06
0.000146249
0.0001462
0.00015743
0.000491793
0.000273749
0.000693411
0.000296425
0.0004447
0.000169092
0.000510609
0.00051143
0.00051061
0.000434575
0.000375509
5.03929e-05
5.03235e-05
7.28521e-05
8.0863e-05
1.32507e-05
5.41857e-05
1.20751e-05
0.000379134
0.000782192
0.000247661
0.000423065
0.000246139
0.00110155
0.000428371
0.999919
0.999666
0.999589
0.999081
0.998723
0.997858
0.999081
0.999081
0.997511
0.994491
0.995621
0.986888
0.997985
0.998723
0.996403
0.0094742
0.00456892
0.00211616
0.00206583
0.00219654
0.00442192
0.00513914
0.000645155
0.00100516
0.000642474
0.00171073
0.00294138
0.000968897
0.000913465
2.41264e-05
2.38415e-05
2.38009e-05
2.38415e-05
2.38009e-05
2.38007e-05
2.37749e-05
6.48602e-06
4.39773e-06
2.30827e-06
2.306e-06
4.60078e-06
3.77106e-06
9.73866e-06
2.98865e-07
2.05755e-07
2.08112e-07
7.48161e-07
4.51527e-07
5.83745e-07
2.97672e-07
9.58958e-10
1.4693e-09
1.73402e-09
8.00509e-09
3.05911e-09
3.39397e-09
1.8382e-09
3.85421e-07
4.33956e-07
3.86086e-07
1.69303e-06
1.14086e-06
7.46879e-07
1.07013e-06
5.49415e-08
4.44824e-08
8.83785e-08
4.36696e-07
1.6888e-07
1.32067e-07
8.98959e-08
4.82856e-09
2.27954e-09
2.22258e-09
2.23893e-08
8.38829e-09
4.32213e-09
6.22393e-09
1.33044e-06
8.45287e-07
1.01949e-06
1.86281e-06
4.24811e-06
1.15685e-06
2.81006e-06
1.13933e-10
3.99373e-10
1.16734e-10
6.00683e-11
1.10963e-10
2.32999e-10
7.40422e-11
2.28548e-13
1.35497e-12
7.07826e-12
1.75669e-11
3.58385e-11
2.55538e-12
4.89236e-13
2.89857e-06
1.7447e-06
2.23987e-06
1.75532e-06
7.40089e-07
8.62814e-07
3.05864e-06
0.000167488
0.00053956
0.000643323
0.000134045
6.14534e-05
0.000127611
0.00025691
3.95579e-07
1.03923e-06
6.35298e-07
9.89816e-07
1.62638e-07
1.34658e-06
3.86008e-07
6.7311e-07
4.16348e-08
8.79474e-07
5.09254e-11
4.22443e-11
2.74239e-11
2.83285e-10
9.62301e-11
3.6714e-11
9.16021e-11
3.23524e-05
3.00389e-05
1.29576e-05
2.00599e-05
3.05644e-05
1.53651e-05
1.28785e-05
4.41568e-05
2.82565e-05
2.82696e-05
8.91549e-05
0.000105203
5.06071e-05
0.000105485
1.72158e-05
3.14727e-05
3.05422e-05
9.16866e-05
0.000100976
8.67528e-05
2.03119e-05
6.27076e-06
3.09478e-06
2.66255e-06
1.01474e-05
5.10959e-06
3.39388e-06
6.88572e-06
0.000113773
0.000450262
0.000211712
0.0001733
0.000113946
0.000182493
0.00017478
2.86334e-05
9.47654e-05
4.69156e-05
2.88369e-05
3.11398e-05
5.07962e-05
4.34444e-05
1.73042e-06
2.53341e-06
2.83366e-06
3.08064e-07
5.68586e-07
7.39909e-07
3.47372e-07
5.74954e-05
5.77133e-05
8.29037e-05
0.000105889
0.000170435
8.25838e-05
0.000134548
2.47712e-06
1.58611e-06
1.6621e-06
5.73363e-06
5.63792e-06
4.49236e-06
2.9309e-06
0.000335016
0.00123154
7.53665e-05
4.58682e-05
4.57259e-05
0.000961452
4.85846e-05
1.71552e-05
6.58262e-06
1.39918e-05
3.67026e-05
4.10575e-05
1.50802e-05
3.60825e-05
8.58398e-12
7.52277e-12
3.83424e-11
2.72599e-11
2.34231e-11
1.01953e-10
1.24482e-10
1.71151e-07
1.02066e-06
7.61455e-07
1.90528e-07
1.95833e-07
5.14148e-07
4.75571e-07
7.92381e-07
1.29875e-06
1.48118e-06
3.2921e-07
1.48263e-06
1.71458e-06
3.9699e-07
3.24151e-11
4.0321e-11
1.20307e-10
9.83175e-11
8.26313e-11
3.95971e-11
8.20011e-11
2.58975e-05
1.06479e-05
8.19889e-06
8.19387e-06
1.68714e-05
8.19232e-06
8.14342e-06
1.96935e-06
1.9689e-06
2.67273e-06
1.96935e-06
2.14418e-06
4.86629e-06
3.71263e-06
1.13002e-05
2.39727e-05
1.13423e-05
3.30903e-05
2.36532e-05
2.27055e-05
1.12552e-05
6.67107e-05
8.77058e-05
0.000108885
5.43126e-05
3.80515e-05
8.22272e-05
7.27771e-05
0.000268241
0.000408923
0.000144397
0.000144397
0.000144202
0.000431124
0.000143879
0.000463565
0.00061972
0.000240755
0.000291186
0.000207201
0.000519802
0.00065622
0.000282161
0.000193014
8.65953e-05
0.00028206
0.000230511
9.2145e-05
8.92745e-05
0.00021024
0.000209845
0.000331781
0.000460252
0.000250526
0.000163631
0.000319988
0.93518
0.940561
0.813299
0.977511
0.974479
0.989648
0.95887
0.841629
0.965653
0.999231
0.998531
0.999546
0.99397
0.993134
0.323716
0.888427
0.995353
0.992126
0.0161471
0.0163018
0.022138
0.0200031
0.0307319
0.0290268
0.0193478
1.13811e-06
2.0475e-06
1.31671e-06
5.66641e-07
1.59552e-06
1.35143e-06
9.11553e-07
5.74691e-05
5.30508e-05
5.29173e-05
7.02234e-05
0.000139316
6.85609e-05
9.28017e-05
0.000101215
2.40716e-05
4.51029e-05
5.70231e-05
1.42537e-05
1.89288e-05
6.25117e-05
2.63002e-05
5.66808e-05
1.42929e-05
4.10539e-05
1.42561e-05
5.80783e-05
2.01146e-05
1.66503e-09
3.69463e-09
1.34379e-09
5.40679e-09
1.66646e-09
3.12583e-09
1.04775e-08
1.6673e-09
6.52687e-09
1.02215e-08
1.25097e-06
1.7297e-06
1.30448e-06
1.64058e-06
5.37038e-06
3.46098e-06
6.26075e-07
0.98446
0.9849
0.967881
0.638248
0.898255
0.984948
0.963139
0.0012909
0.00328966
0.000256886
0.000755777
0.000256446
0.00439746
0.00214853
5.27385e-05
1.96399e-05
2.71087e-05
2.14826e-05
6.91031e-06
1.24626e-05
6.50548e-05
5.55116e-09
6.36444e-09
5.66178e-09
3.77697e-09
2.76239e-09
1.36077e-08
1.35874e-08
3.72166e-10
2.1886e-10
7.25213e-10
1.73159e-09
5.26705e-09
2.60384e-10
7.75968e-10
5.72884e-12
2.36144e-11
7.4777e-12
3.4029e-10
4.12136e-10
1.14953e-09
1.34651e-09
4.03041e-09
2.0715e-09
1.00686e-07
2.61647e-08
2.30419e-08
3.22957e-08
1.16746e-07
3.71873e-08
1.42437e-07
6.07793e-08
1.877e-08
1.05661e-07
3.73551e-07
3.74492e-07
2.65487e-06
6.76958e-06
2.65945e-06
1.89108e-05
4.90716e-06
1.34515e-06
4.69016e-06
5.90887e-06
8.27196e-05
0.000174805
3.34226e-05
3.34257e-05
3.34226e-05
0.000141194
5.72465e-05
0.000275308
0.000251655
0.000275473
0.000275765
0.000275473
8.60269e-05
0.000259621
2.28961e-07
2.83058e-07
5.26175e-07
4.41087e-08
4.0669e-08
5.80044e-08
2.00977e-07
8.40007e-08
4.06188e-08
3.81912e-11
4.3655e-11
1.16172e-10
0.000134812
7.79914e-05
7.80769e-05
0.000120158
0.000188967
0.000111354
0.00024995
6.28538e-06
5.54251e-06
9.67981e-06
5.54343e-06
5.60488e-06
1.47608e-05
7.09437e-06
2.78952e-05
4.13851e-05
3.07841e-05
0.000145057
7.02645e-05
4.49264e-05
4.42812e-05
0.00195295
0.00261797
0.00166316
0.00616988
0.00836141
0.00480242
0.00454313
0.998438
0.995805
0.993247
0.996905
0.990242
0.956343
3.23816e-05
3.63589e-05
3.24175e-05
6.14691e-05
9.03681e-05
7.91103e-05
5.93592e-05
9.6129e-06
4.48581e-06
6.3255e-06
4.58069e-06
7.54073e-06
3.76296e-06
7.44898e-06
2.08218e-08
1.09478e-08
1.85897e-08
3.85943e-08
2.44758e-08
5.10387e-08
6.71935e-08
1.35617e-08
2.24125e-08
8.96412e-09
1.89977e-05
2.80168e-05
5.60399e-05
3.38892e-05
1.88275e-05
2.66881e-05
2.88932e-05
8.38768e-06
1.80829e-05
5.60527e-05
1.91999e-05
8.15461e-06
1.71198e-05
5.73501e-06
0.000540335
0.000818974
0.000211573
0.000221157
0.000138227
0.000445644
0.000350251
0.755083
0.916238
0.751386
0.846091
0.954916
0.943064
0.935888
1.51784e-05
1.51008e-05
1.18747e-05
8.31434e-06
3.41105e-06
5.44603e-06
6.73195e-06
6.92438e-06
6.92438e-06
1.98878e-06
5.57324e-06
5.54536e-06
4.62204e-06
3.91226e-06
3.65236e-07
1.22192e-06
6.01377e-07
3.24692e-07
3.25367e-07
8.64935e-07
3.57723e-07
3.34171e-09
1.1233e-09
8.24721e-10
3.69931e-09
3.52016e-09
1.96896e-09
2.07563e-09
3.40242e-09
4.16595e-09
1.11021e-08
2.73548e-08
8.79272e-08
7.63196e-09
6.92447e-09
2.67224e-07
5.33546e-07
2.47818e-06
2.10153e-07
1.23506e-07
1.57651e-07
7.71179e-07
0.000429785
0.000179862
0.00036197
0.000429711
0.000384959
0.000100615
0.00020678
0.000533386
0.000533386
0.000533386
0.000533386
0.000533386
0.000533363
0.000437793
2.70452e-06
5.50037e-06
1.38646e-06
1.33038e-06
1.33032e-06
1.33038e-06
3.45683e-06
6.88937e-06
1.0542e-06
6.76532e-06
1.15478e-06
1.40133e-06
2.91367e-06
1.33033e-06
4.76761e-08
9.72791e-08
9.73949e-09
3.41753e-08
4.07467e-08
8.65068e-09
1.47209e-07
4.30192e-08
4.21406e-08
8.31679e-08
3.33708e-07
1.46707e-06
1.11867e-06
3.60921e-07
2.07954e-07
6.03824e-07
5.56014e-07
0.000140831
7.68153e-05
8.11358e-05
9.86121e-05
7.98475e-05
0.000170172
9.24455e-05
4.7034e-05
4.84978e-05
4.71817e-05
6.78799e-06
1.73124e-05
2.37361e-05
7.26852e-06
3.58201e-07
2.1996e-07
3.09894e-07
3.74335e-07
2.19125e-07
6.85399e-07
3.39617e-07
3.29141e-06
7.16264e-06
3.67642e-06
4.00377e-06
6.71595e-06
1.23476e-05
4.22639e-06
4.90456e-05
2.68302e-05
1.02383e-05
1.00953e-05
1.61038e-05
1.48828e-05
2.9807e-05
0.0102445
0.0100173
0.0137463
0.0244793
0.0375595
0.00956561
0.010703
0.0183076
0.0595
0.0523503
0.0175378
0.0337408
0.0390745
0.0340537
0.998415
0.996741
0.999888
0.999936
0.999835
0.999829
0.998601
0.999979
0.999913
0.999087
0.999882
0.998769
0.987907
0.995739
0.987141
0.994954
0.999267
0.992806
0.999728
0.998699
0.991295
0.958187
0.976063
0.922861
0.994378
0.993241
0.561506
0.156929
0.122412
0.122577
0.123501
0.094059
0.220774
0.00057801
0.00057801
0.000577966
0.00057801
0.000402723
0.000469871
0.000577974
8.4065e-06
7.18493e-06
6.68739e-06
3.54135e-06
7.47564e-06
3.0299e-06
2.28938e-06
6.03849e-06
1.69046e-06
2.09981e-06
1.68289e-06
4.29662e-06
2.9366e-06
6.34778e-06
0.00222424
0.0012809
0.000606236
0.000306251
0.000113996
0.000999763
0.000643477
1.74155e-06
1.11205e-06
9.65059e-07
1.08169e-06
9.59729e-07
9.59086e-07
1.90578e-06
2.76605e-05
3.83734e-05
2.75272e-05
2.71288e-05
3.09569e-05
2.84781e-05
3.24524e-05
0.000683646
0.00103635
0.000679491
0.000748041
0.000779878
0.00226399
0.000816286
0.000201565
0.000446117
0.000202253
0.000283822
0.000202945
0.000676948
0.000259441
0.0407874
0.0178148
0.0185361
0.155806
0.260274
0.0304657
0.0595463
1.39978e-05
2.33132e-05
7.46043e-06
3.51599e-05
4.39944e-05
4.2366e-05
1.64987e-05
3.18499e-05
6.64849e-05
3.41475e-05
4.53271e-05
6.8692e-05
0.000104786
6.08096e-05
0.000128454
0.000131517
0.000131531
0.000109938
7.16949e-05
0.000131531
7.15837e-05
3.51367e-06
1.35777e-06
1.29653e-06
1.33038e-06
2.77431e-06
1.59258e-08
3.56049e-08
1.32172e-08
3.99531e-08
1.64889e-08
6.80733e-08
2.4401e-08
5.74789e-07
5.59618e-07
1.16707e-06
7.3557e-07
1.40971e-06
7.44028e-07
1.93273e-06
0.000356198
0.000640745
0.000672196
0.000356229
0.000369811
0.000348144
0.000827379
0.000542572
0.000482076
0.000317176
0.000318513
0.000317176
0.000511914
0.000757938
0.999949
0.999136
0.999804
4.00513e-13
2.33429e-13
2.53748e-13
2.58119e-12
1.50043e-12
1.13145e-12
2.34755e-12
2.22595e-11
5.91689e-12
1.40566e-11
5.83185e-11
1.46318e-12
1.40796e-12
5.7052e-11
7.17737e-13
2.03727e-12
2.25158e-13
3.29234e-11
6.67775e-11
6.25835e-12
1.41355e-07
6.18734e-07
2.36746e-08
2.22381e-07
3.7342e-08
5.94562e-08
2.35673e-07
1.8279e-07
4.04609e-08
2.85479e-06
6.30579e-06
4.03976e-06
2.769e-05
3.50457e-05
3.28403e-05
5.87004e-05
2.93519e-05
4.48241e-06
0.000230983
1.67641e-05
0.000101837
2.15378e-05
9.94411e-06
0.994814
0.998607
0.999156
0.990959
0.950201
0.991932
0.99956
0.980185
0.999066
0.999415
0.99969
0.994529
0.998864
0.953342
0.995656
0.999833
0.999061
0.989002
0.998927
0.999691
0.997133
0.999921
0.997209
0.98188
0.00451696
0.00181068
0.0029619
0.000591255
0.00461279
0.00156912
0.0140542
3.33351e-05
3.94308e-05
8.11994e-05
7.37419e-05
4.2289e-05
3.35069e-05
7.56912e-05
1.44054e-05
2.63767e-05
8.88512e-06
5.9229e-06
1.47789e-05
1.03151e-05
1.55518e-05
7.1149e-05
8.41213e-05
6.48324e-05
8.38495e-05
6.44939e-05
8.45662e-05
6.42375e-05
4.02855e-05
5.8972e-05
5.88708e-05
8.20915e-06
1.62115e-05
4.46793e-05
1.89692e-05
3.05879e-07
1.66983e-06
4.49761e-06
2.65475e-06
2.73627e-06
1.04939e-06
5.75017e-07
0.000136331
0.000136261
0.000232007
0.000136296
0.000237593
0.000136463
0.000136167
3.88755e-06
1.24187e-06
1.96743e-06
1.69788e-06
2.27887e-06
9.43311e-07
2.33693e-06
0.000230303
0.00023033
0.000230332
0.000213843
0.000120851
0.000230322
0.000230307
2.30254e-06
6.37917e-07
1.84368e-07
6.0451e-08
1.83132e-07
1.96961e-07
7.56631e-07
5.17943e-08
5.92087e-09
3.99662e-08
1.4262e-08
9.91759e-08
1.1982e-06
9.55639e-08
7.93372e-08
1.92733e-07
9.62069e-08
8.07125e-07
1.85469e-07
8.80535e-07
2.21513e-06
1.52487e-06
1.46702e-06
1.75171e-06
1.58654e-06
2.20872e-06
1.74694e-06
0.000150985
0.000124884
0.000183607
0.000182629
0.000127329
0.000378513
0.000124994
0.939733
0.946123
0.8703
0.946289
0.903063
0.917874
0.879744
3.20848e-05
1.07388e-05
1.56973e-05
1.0649e-05
1.46722e-05
1.45318e-05
7.16798e-06
0.000281394
0.000148943
0.000121165
0.000144334
0.000141543
0.000102061
0.000369327
9.19137e-05
0.00014566
9.34182e-05
0.000106776
0.00016995
0.000174255
0.000118097
0.999963
0.999944
0.999984
0.999853
0.998955
0.999929
0.9993
0.998241
0.997935
0.994524
0.997221
0.999552
0.991821
0.978805
0.999927
0.999796
0.997406
0.00170452
0.000350686
0.00111042
0.00419601
0.00208997
0.00334458
0.00451664
0.000263589
4.1571e-05
0.000203159
0.000117002
0.000172744
4.14663e-05
0.000274882
3.76992e-10
2.90636e-09
7.22198e-10
1.56369e-10
2.24056e-10
1.08838e-09
3.6649e-10
1.07559e-10
7.6844e-11
4.3246e-11
3.25162e-08
6.91765e-09
4.55776e-09
8.03203e-08
5.73445e-07
9.14494e-07
8.56469e-09
4.22544e-08
3.19061e-07
1.04281e-07
1.47896e-08
0.000116113
0.000490594
0.000183403
0.470443
0.0700679
0.183417
0.935892
0.271922
0.0963056
0.327273
0.986522
0.99274
0.997774
0.965248
0.997649
0.987752
0.998204
0.999757
0.999933
0.999176
0.999109
0.999461
0.999118
0.995429
0.986206
0.996458
0.996841
0.999204
0.99987
0.997566
0.999639
0.00180918
0.00223623
0.00180918
0.00315518
0.00180918
0.00523923
0.00337961
0.000233835
0.000400754
0.000234641
0.000168073
0.000261434
0.000243864
0.000243682
9.4651e-07
7.39879e-07
2.07683e-06
7.40105e-07
1.62858e-06
1.65323e-06
7.34088e-07
6.39194e-07
2.05919e-07
2.98685e-07
6.51304e-08
8.879e-08
1.37233e-07
1.09314e-07
0.000443277
0.000438659
0.000438659
0.00154815
0.000805916
0.000894482
0.000435298
0.00060643
0.0011844
0.000895202
0.000871427
0.000576418
0.00044694
0.000313537
8.46348e-08
1.42181e-07
1.43009e-07
8.45798e-08
1.34905e-07
2.55572e-07
1.17979e-07
1.69834e-07
3.88663e-08
2.91719e-08
8.62043e-08
8.01264e-08
2.41819e-08
1.82579e-08
9.39308e-05
3.82979e-05
9.5986e-05
9.5986e-05
9.30046e-05
2.38753e-05
4.03144e-05
7.86268e-05
2.17319e-05
3.89155e-05
2.1336e-05
1.2824e-05
4.73243e-05
1.90578e-05
0.0001049
0.000309882
0.00018195
0.000106681
0.000104629
0.000134546
0.000165308
6.98271e-07
3.95717e-06
1.58796e-06
5.36532e-07
1.80271e-06
4.06223e-06
1.05243e-06
1.97713e-07
1.14107e-06
9.71642e-07
9.12105e-09
3.96248e-09
4.20093e-09
7.38255e-09
2.9475e-08
7.61409e-09
2.37588e-09
2.25667e-09
9.57874e-09
4.57243e-09
9.88818e-09
1.7843e-09
2.42962e-08
8.84843e-08
2.02022e-08
1.01123e-08
2.06925e-07
2.11346e-07
6.61346e-08
9.83671e-09
3.36054e-08
2.56629e-08
1
1
1
1
1
1
1
1
1
2.56647e-05
4.41215e-06
6.96705e-06
0.0266935
0.00907188
2.18981e-05
6.34703e-05
0.00136204
2.53954e-05
3.15298e-73
4.08853e-07
0.000150085
1
1
1
1
1
1
1
1
1
1
1
1
1
1
1
1
1
1
1
1
1
1
1
1
1
1
1
1
1
1
1
1
1
1
1
1
1
1
1
1
1
0.526564
0.244511
0.972217
0.993623
0.993499
0.927634
0.952236
1.9343e-47
1.47237e-48
8.25869e-49
1.65296e-49
3.04857e-49
1.57795e-48
2.36103e-49
1.76706e-49
1.77782e-48
0.997619
0.995755
0.997619
0.991788
0.995405
0.987275
0.990958
0.98304
0.976812
0.952736
0.99684
0.982958
0.964327
0.99313
0.997128
2.23923e-48
9.3407e-47
6.56551e-48
9.85092e-48
9.094e-48
9.91031e-47
0.00255141
0.00583284
0.00326625
0.000127008
0.000225913
0.000126507
8.15601e-05
8.15601e-05
8.14172e-05
8.15026e-05
0.00094119
0.00132385
0.000941518
1.11808e-09
2.35915e-09
1.32568e-09
1.69618e-05
1.79864e-05
2.63295e-05
0.000687488
0.00126664
0.000743348
0.000941376
0.000941517
0.00184294
0.00101379
3.0542e-05
3.05049e-05
3.1093e-05
1.83496e-09
1.35997e-09
2.97067e-09
1.91904e-09
2.06662e-05
5.6111e-05
4.82835e-05
3.10197e-05
1.67695e-05
1.69052e-05
3.54559e-05
2.70292e-05
6.25646e-06
6.21092e-06
1.8552e-05
8.64114e-06
2.68765e-05
1.95671e-05
1.83717e-05
1.37547e-05
1.33734e-05
1.85483e-05
0.000152356
0.000102125
0.000200333
0.000181286
8.84257e-05
8.55724e-05
2.5502e-05
5.97458e-05
1.2816e-05
2.77418e-05
4.68584e-05
1.71556e-05
2.07268e-05
3.49081e-05
3.08662e-05
2.44513e-05
3.74706e-05
2.94608e-05
2.65702e-05
1.88575e-05
7.82912e-05
5.65212e-05
7.20524e-05
8.40489e-05
2.71529e-05
6.63915e-05
8.42359e-05
6.96584e-05
1.26057e-06
1.42671e-06
1.12288e-06
6.81677e-07
0.0561751
0.0243281
0.0394414
0.0165987
4.51105e-07
9.3917e-07
1.59143e-06
4.48256e-20
1.09769e-20
2.32086e-19
5.68377e-20
0.0506262
0.275698
0.0722371
0.180534
1.99117e-05
5.36197e-06
9.47709e-06
3.51927e-06
3.96956e-39
2.81432e-38
8.4699e-38
0.000322534
0.000284568
7.50226e-06
3.14288e-06
1.69785e-05
7.29463e-06
0.0094164
0.0161945
0.0180572
0.00780104
0.000303246
0.00030117
5.02699e-43
2.77107e-43
2.14901e-41
4.1689e-42
0.999
0.998576
0.998844
0.995323
1.97314e-07
1.68839e-07
2.15801e-07
2.58442e-07
4.40127e-05
2.49308e-05
7.20749e-05
3.26145e-06
0.000757997
0.00114941
0.000707862
0.00114991
9.30939e-06
1.55333e-05
4.02327e-06
3.10666e-06
6.75943e-06
1.39949e-05
0.00394516
0.00312742
0.00184053
0.00475203
9.51156e-07
1.01822e-06
6.25306e-07
6.21511e-07
0.000224047
0.000102497
0.000121634
2.99249e-05
0.000755756
0.000573281
0.999979
0.999999
2.83652e-07
4.52606e-07
9.26826e-07
1.80533e-06
8.84901e-06
3.71728e-05
3.57461e-05
3.87659e-05
2.5955e-05
8.68491e-06
1.28648e-05
1.46031e-05
1.41871e-05
3.3109e-06
2.41659e-21
3.14688e-21
8.08903e-21
1.68267e-20
5.41796e-05
3.01517e-06
0.000123566
6.79753e-06
1.13681e-05
2.61286e-06
4.24195e-06
7.62842e-06
0.00130033
0.00143886
1.3061e-12
4.34927e-12
1.44029e-13
8.80052e-13
0.853466
0.665193
0.889713
0.891371
0.805222
0.972277
0.953814
3.15115e-09
1.08299e-08
4.80081e-10
3.52001e-09
0.00014049
0.00017144
0.000172114
0.968141
0.992006
0.788878
0.708292
0.950053
0.981047
2.22355e-05
1.95809e-05
4.96137e-11
8.38407e-10
3.93532e-10
1.63028e-10
3.38717e-10
3.45773e-10
9.77171e-06
2.92435e-06
2.72113e-06
1.14393e-11
7.59423e-12
5.56207e-11
6.13878e-34
1.8015e-34
0.00751014