/*--------------------------------*- C++ -*----------------------------------*\
| =========                 |                                                 |
| \\      /  F ield         | OpenFOAM: The Open Source CFD Toolbox           |
|  \\    /   O peration     | Version:  v2012                                 |
|   \\  /    A nd           | Website:  www.openfoam.com                      |
|    \\/     M anipulation  |                                                 |
\*---------------------------------------------------------------------------*/
FoamFile
{
    version     2.0;
    format      ascii;
    class       volScalarField;
    location    "0.15";
    object      p;
}
// * * * * * * * * * * * * * * * * * * * * * * * * * * * * * * * * * * * * * //

dimensions      [1 -1 -2 0 0 0 0];


internalField   nonuniform List<scalar> 
24700
(
-401.081
-440.551
-351.462
-415.273
-433.37
-313.081
-363.686
-421.5
-453.064
-463.978
-427.956
-454.791
-445.829
-383.373
-410.138
-434.621
-418.291
-224.55
-254.55
-264.351
-204.892
-189.747
-257.058
-240.97
-172.683
-217.402
-207.598
-208.38
-201.84
-2.94757
-2.95022
-2.94549
-2.93604
-2.94984
-2.93352
-2.95552
-3.68372
-3.57036
-3.71062
-3.62128
-3.86376
-3.5952
-3.85204
-1.10568
-1.17272
-1.0836
-1.11278
-1.14305
-1.149
-1.02341
-1.94506
-2.05286
-1.93851
-2.19669
-2.14477
-2.06245
-2.03079
-5.14377
-2.88499
-4.75854
-5.2839
1.55207
-3.84649
-5.19604
-2.19356
-2.17006
-2.19509
-2.21468
-2.19206
-2.1799
-2.20457
-2.3898
-2.39647
-2.42905
-2.36535
-2.40179
-2.41314
-2.37291
-42.7044
-5.93992
-31.3695
-20.4061
-5.48692
16.5991
-46.5547
-2.72618
-2.6984
-2.72189
-2.73272
-2.7637
-2.73014
-2.74099
-2.43568
-2.4258
-2.44403
-2.45489
-2.46396
-2.44161
-2.45103
-2.36123
-2.37139
-2.35616
-2.34812
-2.36431
-2.36605
-2.35108
-2.19644
-2.20428
-2.209
-2.21653
-2.20965
-2.20903
-2.20214
-2.86828
-2.8779
-2.86275
-2.85567
-2.84071
-2.84731
-2.86456
-2.86674
-2.8724
-2.88394
-2.9164
-2.93096
-2.9151
-2.90654
-2.89312
-2.91544
-2.9015
-2.92399
-2.92352
-2.93824
-2.9249
-2.90976
-2.84275
-2.85966
-2.85678
-2.87524
-2.8612
-2.85147
-2.86532
-2.46247
-2.48217
-2.47256
-2.44458
-2.45483
-2.46977
-2.46008
-1.10773
-1.22695
-1.13887
-1.16198
-1.14578
-1.17346
-1.05502
-1.2632
-1.05545
-1.09447
-1.02532
-1.00407
-1.02931
-1.13613
-0.463207
-0.50887
-0.500855
-0.402585
-0.430931
-0.454356
-0.456218
-0.106511
-0.12998
-0.114492
-0.0635159
-0.134013
-0.137809
-0.113276
0.2445
0.276228
0.298413
0.34214
0.293564
0.307354
0.264298
0.0151115
-0.0979127
-0.000622892
-0.0149974
0.0499375
-0.0582545
0.0121095
-2.06256
-2.12049
-2.19608
-2.30018
-2.25048
-2.19724
-2.16033
-1.34477
-1.43548
-1.48213
-1.69339
-1.41722
-1.30112
-1.52757
-16.7115
-0.0937128
4.43826
5.18152
7.18668
0.835679
-12.9657
-1.52984
-1.57347
-1.54724
-1.48652
-1.54177
-1.5485
-1.50278
-1.55176
-1.54803
-1.56705
-1.538
-1.52864
-1.55133
-1.53779
-1.05649
-1.03737
-1.01952
-0.981466
-0.996944
-1.0051
-1.0205
-0.540979
-0.495447
-0.506248
-0.589209
-0.551329
-0.525712
-0.542061
0.00122158
0.0198583
0.0418503
-0.0101672
-0.0190704
-0.00328199
0.0154254
0.507939
0.477394
0.413652
0.446523
0.437648
0.435026
82.8693
65.0164
63.9067
55.3711
64.6078
43.7325
4.89794
1.59148
2.77818
3.17926
2.09894
2.32711
3.56194
0.752331
0.671172
1.19261
0.836399
1.39976
0.885732
1.27138
0.666567
0.660434
0.61879
0.729125
0.635425
0.626439
0.70182
0.69271
0.689787
0.706621
0.709237
0.716393
0.663567
0.683957
0.777955
0.740844
0.779577
0.786881
0.669232
0.735847
0.78971
0.602201
0.647605
0.672554
0.532173
0.64423
0.667383
0.618496
-0.254338
-0.221811
-0.419345
-0.15579
-0.175569
-0.298925
-0.20622
-2.50022
-2.48441
-2.59896
-2.10482
-2.76626
-2.54443
-2.32215
-1.31653
-0.764149
-1.05508
-1.01684
-1.13037
-0.857128
-1.23348
-1.89953
-1.89277
-1.86294
-1.83172
-1.83372
-1.86826
-1.8718
-2.47302
-2.46457
-2.45613
-2.44126
-2.45042
-2.45393
-2.46284
-2.49997
-2.51351
-2.50351
-2.49428
-2.48403
-2.50259
-2.49248
-2.55754
-2.55125
-2.5679
-2.54778
-2.5362
-2.55893
-2.54783
-2.69101
-2.70475
-2.70478
-2.72285
-2.70981
-2.71545
-2.70254
-2.76551
-2.77782
-2.75724
-2.75695
-2.74429
-2.77066
-2.75805
-2.81195
-2.8089
-2.82498
-2.78961
-2.80228
-2.81245
-2.79899
-2.80596
-2.80735
-2.79194
-2.81307
-2.8263
-2.81812
-2.80438
-2.85967
-2.84274
-2.8568
-2.86126
-2.87532
-2.85158
-2.86541
-2.73194
-2.71539
-2.72864
-2.74901
-2.73582
-2.72625
-2.7392
-2.44398
-2.42573
-2.43551
-2.46395
-2.45456
-2.44148
-2.45085
-2.34235
-2.34592
-2.32517
-2.33874
-2.35841
-2.35187
-2.33164
1.93026
-12.7826
10.0593
-7.13217
7.85803
0.606082
3.44473
-1.33818
-1.31073
-1.3229
-1.33458
-1.30283
-1.31379
-1.33727
-1.19812
-1.18219
-1.21331
-1.1678
-1.15066
-1.19316
-1.17563
-0.0740045
-0.0706389
-0.100433
-0.130089
-0.141524
-0.102812
-0.113723
0.0406536
0.0301261
0.0400296
0.00705704
-0.037771
0.00539881
-0.0236112
-0.00190223
0.0342109
-0.01846
-0.0536369
-0.0424905
0.147254
0.0999277
0.162575
0.165007
0.157079
0.143236
0.166049
0.129365
0.140471
0.14807
0.0510024
0.102903
0.712076
0.754317
0.703653
0.6257
0.572316
0.699249
0.632752
0.899208
0.932032
0.918104
0.826557
0.933524
0.920973
0.865035
-1.57313
-1.38159
-1.32845
-1.73997
-1.75384
-1.56168
-1.49722
-2.77938
-2.3472
-2.50693
-3.08512
-3.23412
-2.57978
-2.82163
-1.90339
-1.82247
-1.76366
-2.02628
-2.09397
-2.00545
-1.89995
-2.03655
-2.0601
-2.05549
-2.0713
-2.04959
-2.06359
-2.04394
-2.32322
-2.33489
-2.3275
-2.30548
-2.31165
-2.31933
-2.31414
-2.42049
-2.41086
-2.40784
-2.39281
-2.4033
-2.40139
-2.41124
-2.47582
-2.46109
-2.46175
-2.43786
-2.45571
-2.46208
-2.45204
-2.6532
-2.65315
-2.66657
-2.63904
-2.65317
-2.6458
-2.65938
-2.86539
-2.84931
-2.84085
-2.81904
-2.83427
-2.83527
-2.85125
-2.78568
-2.77006
-2.76456
-2.74103
-2.75562
-2.75408
-2.76922
-1.92626
-1.8858
-1.91391
-1.96336
-1.93952
-1.91311
-1.9377
-1.14987
-1.16108
-1.13146
-1.20446
-1.16865
-1.18535
-1.1523
-0.990046
-0.965938
-1.00145
-0.994329
-1.04859
-0.966655
-1.01299
-1.04608
-1.01551
-0.989818
-0.976397
-0.946219
-0.98327
-1.01554
-0.13464
-0.105206
-0.145067
-0.0766458
-0.0955182
-0.118649
-0.0972349
-0.0394616
-0.012684
-0.00566623
0.00153677
0.0162993
0.00413758
-0.0203254
0.854695
0.760739
0.768184
1.02307
0.831781
0.739572
0.841628
6.6163
7.65422
9.15041
3.21082
4.30956
6.93739
5.62132
1.2879
1.28886
1.2951
1.23107
1.27169
1.18729
1.19375
-3.3553
-2.8154
-3.05136
-2.6991
-2.65704
-2.92014
-2.79461
-2.73908
-8.61275
-18.0464
-11.4167
-5.57045
-10.9102
-10.0264
-6.87492
-6.40735
-6.70146
-6.59981
-6.68916
-6.66366
-6.90068
-2.16533
-2.15821
-2.16216
-2.17202
-2.15544
-2.15697
-2.1688
-2.29411
-2.29105
-2.28235
-2.27194
-2.27897
-2.28401
-2.28834
-2.32848
-2.31033
-2.33301
-2.34479
-2.33522
-2.32873
-2.34202
-2.32703
-2.33757
-2.34468
-2.30736
-2.32048
-2.41859
-2.43025
-2.41555
-2.40043
-2.41749
-2.42154
-2.40917
-2.41532
-2.43054
-2.41471
-2.40318
-2.42573
-2.4799
-2.46852
-2.46478
-2.46566
-2.48041
-2.75535
-2.73069
-2.7457
-2.77664
-2.7602
-2.7437
-2.75931
-2.39315
-2.40324
-2.36353
-2.42843
-2.37953
-2.41111
-2.37183
-2.17617
-2.14752
-2.17437
-2.19704
-2.17968
-2.16389
-2.18551
-2.15416
-2.18336
-2.17534
-2.18612
-2.20352
-2.18527
-2.16615
-1.88955
-1.88192
-1.90887
-1.88271
-1.86022
-1.8997
-1.87834
-1.72822
-1.7326
-1.70804
-1.73229
-1.74972
-1.71811
-1.73632
-1.5312
-1.53226
-1.53267
-1.50062
-1.543
-1.53977
-1.51928
-1.43197
-1.41826
-1.44127
-1.46147
-1.45359
-1.45806
-1.43916
-0.671209
-0.655658
-0.625118
-0.669097
-0.695329
-0.666505
-0.636733
-0.670247
-0.713821
-0.625699
-0.656433
-0.68159
0.034805
0.0212864
0.0111419
-0.00178369
-0.0245682
-0.00126762
0.0163714
0.0416359
0.138998
0.0803247
0.12127
0.0745263
0.130897
0.0637186
0.647536
0.652647
0.673888
0.698955
0.689644
0.653349
0.678208
3.47939
2.02676
2.28743
4.21362
11.9657
2.05664
4.13084
1.75836
1.32039
1.79322
2.19159
2.01662
1.81891
1.89097
4.66854
1.59576
2.57516
2.1668
2.50927
0.563218
3.51285
-3.97896
-18.6763
-32.0073
-4.53311
-5.09723
0.58622
7.81085
-4.33851
-4.49858
-4.29939
-4.3896
-4.18532
-4.59859
-4.2609
-2.67448
-2.71924
-2.58564
-2.63747
-2.71112
-2.72394
-2.61638
-2.20406
-2.18533
-2.20913
-2.22045
-2.21256
-2.2055
-2.21798
-2.20391
-2.2141
-2.22051
-2.18753
-2.19922
-2.40787
-2.4109
-2.42061
-2.40331
-2.39284
-2.40143
-2.4113
-2.47896
-2.46313
-2.47709
-2.49262
-2.47892
-2.47036
-2.48412
-2.56099
-2.54387
-2.55999
-2.57529
-2.55943
-2.55038
-2.56629
-2.90885
-2.91803
-2.93672
-2.89936
-2.91698
-2.91738
-2.93228
-2.91047
-2.90563
-2.9111
-2.93157
-2.91601
-2.89638
-2.93916
-2.91726
-2.91801
-10.9677
-2.22421
-0.407712
-6.80307
5.04474
-4.42534
-2.90074
-2.65932
-2.63813
-2.65017
-2.65109
-2.66555
-2.64233
-2.65681
-2.38054
-2.37236
-2.35211
-2.39365
-2.4132
-2.39448
-2.37512
-2.12277
-2.12441
-2.0947
-2.12641
-2.15005
-2.11028
-2.13611
-1.96468
-1.94307
-1.9689
-1.974
-1.99232
-1.95833
-1.9768
-1.81777
-1.84195
-1.82485
-1.79665
-1.81463
-1.83145
-1.81216
-1.5717
-1.61269
-1.5997
-1.62642
-1.60345
-1.61347
-1.59152
-1.4683
-1.45075
-1.46601
-1.45723
-1.47578
-1.45441
-1.47197
-1.12468
-1.08301
-1.12091
-1.1166
-1.14491
-1.09427
-1.12369
3.2539
3.17003
5.64153
2.82179
2.39899
2.40555
4.2022
88.3503
68.9805
64.0895
73.0442
54.234
87.4482
69.3795
85.7804
85.7254
92.9256
66.6897
67.1996
73.8624
74.8364
75.0681
94.8506
76.4748
3.92129
3.86487
4.53966
3.82271
3.49745
3.66148
4.10903
13.4186
12.7393
12.9332
13.2738
12.9292
13.1021
13.4366
9.42639
9.39878
9.09644
12.2269
8.35624
9.06379
11.4504
8.5932
7.32975
8.84919
1.5035
7.48705
7.73142
9.7854
-2.20514
-2.21946
-2.20173
-2.19217
-2.20343
-2.21308
-2.19728
-2.17703
-2.17095
-2.16203
-2.16512
-2.14703
-2.14472
-2.15651
-2.17004
-2.18339
-2.17271
-2.48167
-2.46713
-2.46877
-2.45258
-2.46739
-2.45827
-2.47312
-2.88845
-2.8056
-2.88116
-2.91285
-2.94549
-2.92402
-2.89293
-2.83811
-2.8887
-2.9466
-2.93097
-2.90746
-3.00157
-2.90939
-2.89384
-2.81302
-2.90309
-2.92044
-2.93318
-2.98341
-2.93634
-2.92957
-2.92822
-2.93254
-2.90815
-2.91141
-2.85263
-2.8991
-2.96284
-2.91533
-2.57761
-2.55975
-2.58506
-2.59427
-2.61029
-2.5763
-2.59377
-2.12184
-2.14805
-2.14696
-2.17567
-2.15519
-2.1681
-2.14173
-1.79864
-1.80982
-1.81796
-1.84137
-1.82339
-1.83037
-1.81042
-1.38474
-1.37416
-1.3882
-1.38384
-1.4249
-1.38445
-1.40636
-0.535681
-0.512249
-0.52459
-0.567794
-0.602805
-0.536097
-0.560554
-0.0926572
-0.115306
-0.0963339
-0.130098
-0.0504244
-0.128382
-0.100932
-0.276326
-0.141959
-0.170353
-0.102871
-0.153428
-0.122387
-0.226044
1.31801
1.27951
1.26644
1.25788
1.22682
1.17291
1.23184
62.2878
53.403
71.5667
56.4868
60.2357
77.0439
45.7871
27.2002
38.5736
56.8814
66.9181
68.7557
89.584
70.9293
50.2295
-2.08203
-2.5697
-2.23068
-2.42708
-2.36887
-2.68247
-2.10389
-3.77956
-3.83601
-3.74541
-3.67696
-3.89877
-3.78583
-3.58669
-2.7699
-2.65146
-2.64604
-2.65341
-2.53477
-2.75039
-2.59856
-2.33004
-2.30267
-2.28049
-2.24379
-2.26814
-2.26922
-2.28481
-2.29498
-2.26822
-2.30585
-2.3017
-2.35194
-2.27935
-2.32055
-2.16033
-2.14995
-2.16066
-2.15524
-2.17628
-2.1545
-2.17047
-2.09469
-2.10115
-2.09228
-2.08161
-2.07897
-2.08865
-2.08413
-2.10036
-2.09052
-2.09023
-2.07475
-2.08816
-2.08172
-2.09358
-2.08611
-2.09653
-2.08716
-2.06909
-2.08181
-2.08812
-2.07702
-2.05838
-2.0707
-2.0583
-2.05999
-2.04501
-2.06549
-2.05162
-2.20561
-2.20412
-2.19228
-2.20247
-2.21961
-2.21307
-2.19756
-2.17161
-2.15484
-2.16104
-2.15533
-2.16456
-2.15497
-2.16767
-2.28128
-2.26582
-2.27784
-2.29103
-2.28656
-2.27991
-2.28184
-2.02966
-2.11724
-1.79085
-2.16812
-2.22878
-2.16507
-2.10064
-2.92861
-2.91099
-2.90378
-2.90967
-2.93349
-2.89301
-2.91972
-2.91828
-2.93877
-2.91667
-2.8413
-2.84529
-2.86148
-2.82048
-2.84163
-2.8469
-2.82587
-2.12104
-2.11827
-2.1019
-2.11604
-2.15582
-2.13122
-2.10836
-1.42792
-1.37576
-1.3958
-1.37844
-1.38634
-1.37439
-1.40935
-1.05847
-1.13071
-1.11846
-1.15614
-1.10869
-1.12621
-1.0785
-1.02349
-1.07456
-1.02552
-0.987735
-1.01614
-1.04841
-1.00638
-0.956174
-1.09679
-1.09422
-1.05211
-0.87503
-0.84181
-1.11959
-1.43055
-1.56361
-1.64828
-1.18425
-1.36599
-1.33378
-1.49558
-2.1928
-2.0573
-2.1455
-1.92919
-1.94662
-2.06124
-2.0318
-2.01851
-2.02209
-2.02208
-2.02923
-2.02306
-2.02727
-2.01345
-2.02984
-2.02252
-2.01303
-1.99707
-2.00195
-2.00886
-2.01737
-2.39052
-2.07801
-2.21175
-2.37069
-2.27642
-2.08503
-2.26413
-2.66605
-2.64887
-2.64497
-2.62404
-2.64475
-2.63983
-2.65525
-2.93497
-2.93416
-2.94019
-2.92072
-2.92148
-2.92773
-2.9292
-2.84377
-2.82709
-2.85572
-2.8586
-2.83458
-2.82951
-2.85675
-2.07859
-2.08167
-2.10852
-2.04532
-2.08065
-2.08983
-2.06012
-1.89483
-1.91353
-1.91405
-1.95192
-1.92279
-1.91872
-1.95028
-1.46654
-1.44639
-1.46593
-1.47088
-1.45911
-1.45024
-1.47101
-1.13124
-1.16202
-1.14961
-1.20472
-1.1688
-1.18389
-1.15216
-0.993605
-0.984837
-1.02343
-1.04225
-1.06154
-1.01654
-1.02593
-1.09454
-1.06113
-1.25376
-1.03157
-0.999155
-1.02688
-1.1361
-1.49065
-1.64299
-1.51941
-1.49979
-1.37205
-1.56072
-1.40155
-1.86665
-1.87915
-1.89399
-1.93039
-1.9136
-1.86593
-1.88353
-0.799891
-0.648218
-0.764757
-0.91929
-0.903283
-0.788389
-0.8493
3.71536
3.26615
3.59854
4.18936
3.55578
3.34479
3.85121
161.499
196.761
155.336
205.692
188.377
187.896
177.367
173.783
163.077
201.576
181.453
190.621
183.639
172.015
242.52
150.516
140.319
156.744
13.1363
8.92842
14.9322
8.589
7.97574
10.0639
9.0476
-0.804406
-0.78868
-0.949288
-0.757913
-0.717567
-0.761006
-0.844731
-1.37622
-1.46597
-1.36552
-1.2953
-1.2821
-1.37037
-1.32204
-1.47905
-1.51626
-1.57625
-1.46019
-1.42958
-1.48268
-1.52792
-1.9242
-1.88112
-1.90421
-1.87895
-1.92009
-1.87495
-1.92027
-1.81073
-1.79856
-1.81533
-1.8159
-1.8354
-1.8407
-1.82201
-1.81483
-1.78797
-1.80875
-2.47084
-2.55085
-2.51229
-2.48638
-2.53592
-2.5612
-2.48752
0.942725
8.06166
-9.19953
6.94732
-10.9843
1.208
3.73928
-2.30834
-2.26815
-2.23357
-2.00166
-2.34622
-2.13579
-2.40814
-2.16502
-2.13306
-2.17765
-2.18581
-2.17029
-2.1425
-2.16421
-2.44564
-2.46486
-2.4737
-2.50087
-2.48177
-2.48222
-2.46241
-2.55972
-2.57764
-2.585
-2.61028
-2.59437
-2.59376
-2.57623
-2.91542
-2.90952
-2.92265
-2.92439
-2.92723
-2.9417
-2.91933
-2.93555
-2.93487
-2.94314
-2.93274
-2.94005
-2.94606
-2.94813
-2.93857
-2.94525
-2.94491
-2.93717
-2.943
-2.95756
-2.95242
-2.96405
-2.98345
-2.9847
-2.98362
-2.96832
-2.96013
-2.97273
-2.99008
-3.46814
-3.61065
-3.60856
-3.52975
-3.46296
-3.59632
-3.47737
-2.43691
-2.43232
-2.50715
-2.52999
-2.66777
-2.45124
-2.55293
-2.27392
-2.24799
-2.24254
-2.27409
-2.24309
-2.19855
-2.24101
-2.26683
-2.22853
-1.86951
-1.90861
-1.92364
-1.78696
-1.77462
-1.76866
-1.73936
-1.7744
-1.75761
-1.773
-1.43411
-1.43613
-1.41612
-1.44347
-1.46138
-1.45601
-1.4388
-1.33577
-1.36831
-1.54049
-1.71252
-1.72847
-1.53752
-1.49789
2.97258
1.55597
5.3714
3.15307
1.85807
0.618272
4.32034
116.08
143.165
143.228
110.98
114.253
118.432
-1.13971
-1.07335
-1.07335
-1.03114
-1.0447
-1.05895
-1.11599
-1.35728
-1.39103
-1.34099
-1.32778
-1.29563
-1.36079
-1.32724
-1.7675
-1.75148
-1.74601
-1.74981
-1.72716
-1.72035
-1.73802
-1.77791
-1.76105
-1.75238
-2.19093
-2.23143
-2.22145
-2.17608
-2.129
-2.1655
-2.21404
-1.77199
-1.82395
-1.93243
-2.10135
-2.03061
-1.99965
-1.90249
-1.23608
-1.22005
-1.18
-1.12296
-1.23923
-1.22426
-1.31217
3.7163
4.29467
13.2785
-12.1566
7.3548
1.70519
-4.15221
-2.01907
-1.98493
-2.01835
-2.04371
-2.02796
-2.01022
-2.03211
-2.1748
-2.19655
-2.18007
-2.14597
-2.16752
-2.17978
-2.16174
-2.09864
-2.0739
-2.09674
-2.10562
-2.12178
-2.08918
-2.1083
-2.38099
-2.41324
-2.39392
-2.35228
-2.37252
-2.39459
-2.37519
-2.38376
-2.40388
-2.41331
-2.44048
-2.42253
-2.42089
-2.40153
-2.93748
-2.94588
-2.9617
-2.92542
-2.91328
-2.93146
-2.94747
-3.5663
-3.55519
-3.67354
-3.81401
-3.55553
-3.59149
-3.88378
-3.77076
-3.89477
-3.88316
-4.13775
-3.82447
-4.07858
-3.77778
-2.52766
-2.57866
-2.54035
-2.5767
-2.52375
-2.52932
-2.58245
-2.6027
-2.52455
-2.59552
-2.52998
-2.47681
-2.57045
-2.52057
-2.2158
-2.23143
-2.19252
-2.19339
-2.21775
-2.17872
-2.20933
-2.17897
-2.23259
-2.19813
-1.90064
-1.87932
-1.88907
-1.92575
-1.90717
-1.89219
-1.91008
-1.7686
-1.75584
-1.79339
-1.74238
-1.74465
-1.7665
-1.77883
-1.61348
-1.61132
-1.58057
-1.60954
-1.63706
-1.62261
-1.59507
-1.50136
-1.52785
-1.52904
-1.54006
-1.53142
-1.51648
-1.53285
-1.3781
-1.35574
-1.38474
-1.38024
-1.37203
-1.35886
-1.37756
-1.45971
-1.48639
-1.48928
-1.50821
-1.48796
-1.49311
-1.47175
-3.75129
-2.86299
-4.12844
-2.53903
-2.96606
-3.82016
-3.03226
9.91152
9.50109
10.1109
7.93278
12.0638
8.61612
10.9699
37.2003
58.807
60.4096
82.6383
65.3232
71.9601
52.1017
86.536
86.3805
93.6678
68.0096
68.2177
83.9712
84.7602
66.7186
66.3344
81.5268
79.809
92.6435
74.7029
62.1628
63.8821
53.7607
35.5712
71.2142
52.3934
8.08583
4.34019
4.67061
0.996017
3.31564
1.14631
3.60704
-0.393816
-0.376922
-0.441904
-0.376779
-0.362644
-0.377444
-0.411025
-1.16975
-1.2096
-1.16793
-1.13245
-1.16832
-1.19177
-1.15025
-1.23436
-1.22956
-1.27009
-1.22084
-1.19837
-1.24424
-1.21937
-0.594523
-0.615425
-0.613975
-0.657377
-0.61744
-0.638756
-0.61678
-1.35819
-1.34328
-1.38876
-1.29435
-1.32874
-1.35803
-1.32714
-3.1421
-3.28101
-3.13369
-3.13154
-2.99088
-3.24091
-3.07581
-5.39181
-5.85776
-5.53178
-5.56285
-5.22587
-6.11316
-5.50624
-6.93598
-6.53315
-6.58985
-6.43037
-6.67051
-6.53249
-6.87306
-1.25783
-2.05151
-1.04544
2.07516
-1.87711
-2.50556
0.745979
-1.92415
-1.96153
-1.93682
-1.88635
-1.91271
-1.93694
-1.91424
-2.62961
-2.6365
-2.65745
-2.64655
-2.60809
-2.61593
-2.65308
-3.13032
-3.24413
-3.09982
-3.13021
-3.17771
-3.1413
-3.21245
-2.46275
-2.52679
-2.5256
-2.50295
-2.45569
-1.52526
-1.52414
-1.52584
-1.52163
-1.52844
-1.52354
-1.5256
-1.56515
-1.55033
-1.55201
-1.53749
-1.52608
-1.54857
-1.53881
-0.448235
-0.449577
-0.353026
-0.333216
-0.588142
-0.546149
-0.154514
0.537435
0.549969
0.114964
-0.698689
-0.204301
-0.397062
-0.256363
64.1039
55.3101
72.8052
-1.32669
-1.29648
-1.32986
-1.3424
-1.36726
-1.34961
-1.32508
-1.45503
-1.42828
-1.42736
-1.42852
-1.40377
-1.38596
-1.41597
-1.32207
-1.31009
-1.28319
-1.46448
-1.44041
-1.43025
-0.88489
-0.854619
-0.84156
-0.818393
-0.838458
-0.880429
-0.857319
-0.840211
-0.862756
-0.76107
-0.782899
-0.761149
-0.781463
-0.760074
-0.74944
-0.768395
-0.761181
-0.790171
-0.739741
-0.756428
-0.757635
-0.775973
-0.79017
53.7614
58.3587
76.2445
48.6295
30.8308
43.5223
61.9038
71.2192
71.4479
85.6013
68.6358
53.8839
53.3302
30.3505
48.5687
75.5098
57.7342
43.4271
61.8952
71.3609
70.7489
84.9826
67.2928
53.1332
-0.497966
-0.454497
-0.490726
-0.565385
-0.518756
-0.538942
-0.34714
-0.811097
-0.850417
-0.808365
-0.784355
-0.801713
-0.830218
-0.797405
-1.28312
-1.23905
-1.23793
-1.17523
-1.21261
-1.20581
-1.23893
-1.59111
-1.50797
-1.49124
-1.43338
-1.44215
-1.46788
-1.49838
-1.2731
-1.29987
-1.33996
-1.37883
-1.44866
-1.37249
-1.33928
-2.31713
-2.28451
-2.43674
-2.59478
-2.57213
-2.43569
-2.42068
-7.25791
-7.79134
-7.39888
-7.59868
-7.17013
-7.74651
-7.24971
-1.75316
-1.73265
-1.72199
-1.68713
-1.70854
-1.70725
-1.72861
-3.46954
-3.50579
-3.38974
-3.474
-3.47774
-3.54253
-3.46515
-3.00357
-3.03441
-3.00561
-2.99298
-2.99807
-3.01312
-3.00634
-2.98276
-2.99964
-3.02128
-2.99962
-2.99135
-3.12253
-3.10806
-3.12432
-3.12777
-3.13631
-3.16019
-3.12549
-3.13186
-1.57261
-1.55119
-1.56719
-1.52192
-1.53646
-1.55743
-1.54166
-2.55896
-2.52964
-2.68813
-2.22983
-2.45445
-2.37852
-2.59215
-8.16108
-1.15658
1.65328
-19.526
-2.54908
-5.28227
-8.2869
-1.5661
-1.47504
-1.62189
-1.38427
-1.19991
-1.36897
-1.48711
-1.61456
-1.48972
-1.70425
-1.77545
-1.99664
-1.63085
-1.89688
-1.16833
-0.982419
-1.06989
-1.19101
-1.09966
-1.00655
-1.1687
86.1893
67.4471
62.3411
86.205
67.5808
71.518
53.3541
83.354
83.1822
90.5079
64.7454
64.2472
70.9366
71.3958
73.6253
92.7986
74.1482
-0.522214
-0.54366
-0.43484
-0.455724
-0.442563
-0.478431
-0.35677
-0.628365
-0.628908
-0.658402
-0.601992
-0.628432
-0.619783
-0.638664
-1.02653
-0.989744
-1.01214
-1.05607
-1.0293
-1.00209
-1.02851
-1.03094
-1.0434
-1.07252
-0.89972
-0.922901
-0.926588
-0.835485
-0.823953
-0.80515
-0.972518
-0.929545
-0.904208
-0.923454
-0.948664
-0.751937
-0.719139
-0.742374
7.37756
-1.53214
-1.10832
17.2974
2.94409
-1.30566
4.92938
70.5886
62.0981
90.6285
53.5847
69.1375
71.074
66.285
68.9451
88.5729
79.4761
79.2718
57.4831
56.8337
57.451
45.5645
25.2581
65.0948
41.4586
60.1157
51.222
69.6496
-0.0356634
-0.0685166
-0.263189
-0.166152
-0.00862464
-0.134546
-0.183816
-0.377494
-0.349019
-0.379942
-0.420384
-0.367929
-0.368033
-0.400283
-0.760561
-0.803761
-0.720236
-0.949655
-0.790236
-0.761301
-0.851435
-1.70992
-1.64411
-1.81141
-1.52627
-1.55992
-1.6251
-1.69142
-3.88407
-3.85392
-3.94325
-4.13599
-3.6855
-3.97883
-3.78739
-1.44462
-1.44212
-1.73427
-1.40999
-1.40192
-1.36816
-1.56971
-1.55967
-1.55012
-1.57176
-1.56725
-1.54574
-1.54849
-1.56873
-1.97331
-1.94711
-1.96839
-1.99729
-1.9771
-1.96105
-1.98112
-2.10299
-2.12964
-2.12869
-2.14961
-2.14181
-2.14393
-2.11338
-2.23971
-2.31097
-2.2849
-2.43209
-2.2803
-2.35129
-2.28317
-4.27185
-4.20477
-4.28249
-4.36317
-4.3081
-4.29623
-4.36811
-3.02451
-3.02808
-3.02031
-3.0145
-3.04286
-3.05344
-3.028
-2.9378
-2.95088
-2.95338
-2.93963
-2.94874
-2.94566
-2.94601
-2.96573
-2.95495
-2.95841
-2.96135
-2.96113
-2.96267
-2.95493
-2.95921
-2.96573
-2.96957
-2.96395
-2.96305
-2.97561
-2.95615
-2.96371
-2.9462
-2.93556
-2.95692
-149.301
-142.062
-132.174
-106.036
-135.176
-151.341
-181.533
-128.05
-123.665
-3.31544
-2.80603
-3.41568
-0.783545
-5.27235
-2.63278
-3.76933
-3.62725
-3.17839
-3.02528
-2.84141
-2.62344
-172.433
-140.961
-155.331
-483.131
-503.383
-483.409
-478.986
-464.214
-466.164
-472.724
-484.007
-501.776
-495.779
-510.377
-488.294
-484.321
-472.107
-485.519
-495.149
-469.657
-486.793
-475.272
-504.824
-483.839
-484.151
-451.967
-475.541
-482.162
-464.854
-491.141
-514.942
-501.961
-506.979
-495.494
-489.265
-500.437
-491.589
-480.89
-495.676
-489.582
-482.212
68.9335
-13.0106
5.84489
-15.4721
-22.9009
-12.5899
-44.6941
-2.90299
-2.91499
-2.91738
-2.93442
-2.9219
-2.91792
-2.9342
-2.93987
-2.92251
43.5465
59.6492
62.0104
83.9542
64.8597
58.8032
76.5975
84.1172
65.0729
72.0417
70.5686
90.9976
48.1631
58.4072
34.3038
-2.91656
-2.89325
-2.9109
-2.94036
-2.92781
-2.92789
-5.31348
-5.32197
-5.71677
-1.58138
-1.59453
-1.62151
-1.25359
-1.24937
-1.22917
-1.27318
-5.38097
-5.84297
-5.64029
-2.12304
-2.12482
-2.14911
-1.58987
-1.61653
-1.60282
-2.19964
-2.25454
-2.04492
-5.56413
-5.21919
-5.41649
-5.18131
-2.6602
-2.52041
-2.59113
-2.13496
-2.12052
-2.1094
-2.09385
-1.61293
-1.68989
-1.63431
-1.67768
-1.59654
-1.5805
-1.57046
-1.54272
-1.34042
-1.4492
-1.21053
-1.29336
-1.09308
-1.19231
-1.03646
-1.06628
-1.18369
-1.23431
-1.58407
-1.60453
-1.55296
-1.56825
-1.63578
-1.60144
-1.6458
-1.61386
-1.64174
-1.61374
-1.58733
-1.54601
-1.57122
-1.56345
-1.34601
-1.46727
-1.07464
-1.07586
-1.20303
-1.2041
-1.25247
-1.23335
-1.27998
-1.28078
-1.24659
-1.31002
-1.29857
-1.29171
-2.20036
-2.1759
-2.20009
-2.17498
-0.470527
0.136635
1.18455
0.330189
-2.87444
-2.88454
-2.86694
-2.39046
-2.40572
-2.39226
-2.40817
3.23608
5.49041
4.17126
7.08442
0.0298263
0.106528
-0.0486042
0.0506196
-2.75666
-2.74091
-2.73532
-0.675892
-0.61841
-1.59229
-1.63591
-1.62943
-1.67381
12.0471
11.6003
11.4519
12.4095
-4.40823
-4.34732
-2.92757
-2.91187
-2.90731
-2.89827
105.41
82.117
148.153
113.499
-3.05386
-3.07939
-3.06573
-3.08911
-0.690403
-0.646635
-0.702748
-0.615702
-0.626743
-0.606073
-0.545369
-0.55255
-2.4325
-2.41759
-2.33545
-2.37031
-2.0348
-2.02126
8.19581
11.1327
8.54173
13.2658
0.437033
0.340667
0.436023
0.305564
-0.807454
-0.863964
-0.762287
-0.826261
-0.611594
-0.655656
-99.4207
-91.2783
-2.91432
-2.89871
-2.93131
-2.92624
-0.517229
-0.591797
-0.37792
-0.451493
-0.615964
-0.531583
-0.439644
-0.370429
-1.9369
-1.91255
-2.77393
-2.7874
-2.7641
-2.78528
-1.58831
-1.627
-1.65242
-1.68709
-2.96017
-2.94804
-3.00095
-3.01091
0.29403
0.37696
-2.16936
-2.15851
-2.16744
-2.15098
12.1855
7.98548
50.1729
12.5558
10.2927
39.8626
49.5191
-1.04646
-1.01853
-1.03946
-1.00281
-0.774
-0.753522
-0.734556
49.3231
44.5042
14.1084
13.9108
42.0038
52.2928
-2.3498
-2.35081
-1.85508
-1.85332
-1.90059
-1.96429
-1.96763
-1.93223
-2.95717
-2.96139
-2.96187
-2.90238
-2.91681
-2.90238
-2.67094
-2.67802
-2.66546
-2.00659
-3.3232
-2.7856
-1.09672
-2.08842
-0.564594
-2.32677
15.2433
19.3192
18.9148
15.144
-3.565
-3.99941
-4.04373
-4.50701
-1.10611
-1.12561
-0.61859
-0.579611
-1.12609
-1.10703
-1.23603
-1.22048
-1.91483
-1.93697
-23.0713
-9.95102
-1.42878
-1.4984
-1.67853
-1.68393
-5.74211
-18.0322
-2.52584
-4.32183
28.3014
-17.4498
-5.25531
-4.9447
-5.34749
-4.86007
-0.401309
-0.413966
-0.347324
-0.323451
1.00915
0.424214
-2.32741
-2.34224
-2.30996
-2.32938
-2.1462
-2.14333
-179.159
-179.103
-140.232
-146.213
-2.19516
-2.18392
-2.14763
-2.14358
17.6568
16.97
20.5863
17.9294
-4.99591
-2.00864
-5.49289
-4.56954
-1.07762
-1.07724
-1.83837
-1.80267
-1.4318
-1.41996
-1.42203
-1.39651
-0.0517616
0.101813
-0.148033
-0.0874036
-2.29157
-2.30393
-2.25109
-2.24885
-2.5563
-2.54683
-1.73915
-0.246598
-2.81081
-2.80245
0.813696
0.887534
-392.991
1.0893
2.09257
12.2522
6.2844
-2.21006
-2.20224
-2.21042
-2.19782
-2.25354
-2.27197
-1.95325
-2.07688
-2.12966
-2.14407
-1.91699
-1.92681
-1.81608
-1.84612
-0.625887
-0.679207
0.58716
0.57607
0.478135
0.533114
47.1443
51.5649
82.3699
-2.27772
-2.2752
-2.30018
-2.28813
-1.5109
-1.5246
-1.54165
-1.54316
-2.38879
-2.36033
-2.39366
-2.35096
-1.55261
-1.53629
-1.97324
-1.98649
-1.96016
-1.98909
-4.15749
-4.4311
-5.16094
-4.06848
-1.88576
-1.87409
-1.73068
-1.7393
-2.13282
-2.11013
-2.15274
-2.12096
4.59801
7.23198
-1.84354
-1.82632
-2.46106
-2.46965
-2.45245
-2.4699
-2.45933
-2.44698
13.435
12.8922
12.8572
13.731
-1.27623
-1.2863
-1.34909
-1.22471
-2.74217
-2.73989
-2.76545
-2.77249
-2.36205
-2.39016
-2.35404
-2.40126
-1.54021
-1.55399
-1.55422
-1.54581
-3.7352
-3.79611
-3.57282
-3.60374
-3.79324
-3.75131
-3.58879
-3.56306
-2.51197
-2.61456
-2.35503
-2.48211
-2.61119
-2.51029
-2.44218
-2.36206
-2.89833
-2.69807
-2.80237
0.0783197
0.0710639
0.114706
0.094372
-2.50206
-2.49261
-2.48238
-2.47394
13.1764
13.7963
13.8515
11.5061
-0.703168
-0.710311
-0.738162
-0.733916
0.0443566
0.0577596
0.0715945
0.0840356
-0.103193
-0.00152466
-0.0273947
-0.173282
-2.48001
-2.48135
-1.20162
-1.17961
13.0893
21.7471
-1.46404
-1.45994
-1.47992
-1.48579
-1.91583
-1.92445
-1.88942
-1.88851
-0.745468
-4.82327
1.10882
2.66759
-76.3197
-81.9584
0.814228
0.838436
-3.09968
-2.02635
-5.07175
-1.32517
-2.0118
-2.00626
-2.44566
-2.45011
-0.0190258
0.0423719
-1.36345
-1.31562
-1.37772
-1.34243
-71.533
-61.9552
-1.33779
-1.37908
-1.36027
-1.40299
-1.5024
-1.52079
-2.77356
-2.7757
-0.140493
-0.0945148
-0.643596
-1.81139
-1.82785
-2.07616
-2.09529
-1.53967
-1.49763
-1.59569
-1.524
-1.79712
-1.80784
-1.49115
-1.50341
-1.47294
-1.48532
-1.70682
-1.69901
-1.67331
-1.67391
-2.47718
-2.46651
-1.69887
-1.70694
-1.67392
-1.67326
-2.88537
-2.87556
-2.87563
-2.88542
-1.3185
-1.33258
-1.3614
-1.39847
-0.977071
-0.860203
-1.38037
-1.2993
-1.38963
-1.37846
-2.29875
-2.29984
2.25367
1.76123
3.9535
0.995679
-1.79046
-1.80643
1.11112
1.14686
1.11239
1.18229
1.13131
1.08926
1.17924
1.11559
-0.846402
-0.793124
-2.15035
-2.13891
-1.13261
-1.00778
-0.623653
0.430674
-4.49061
-4.20216
-4.93973
-4.61787
-1.76387
-1.89192
-2.43862
-2.40644
-0.679668
-0.661583
-0.738128
-0.67509
-5.16963
-4.84912
-8.69484
-19.5238
2.02775
5.27077
-0.818762
-0.892082
-0.722281
-0.769059
-1.70722
-1.84038
-1.5005
-1.5337
-1.51756
-1.58307
-1.94727
-1.92364
-1.96026
-1.92574
-1.97426
-1.92722
-2.04799
-1.99796
-2.70271
-2.71409
-2.42795
-2.44155
-0.882423
-0.89636
-0.927912
-0.926062
-2.42804
-2.44159
-1.82078
-1.84049
-1.79305
-1.80375
-1.86109
-1.67512
10.1179
11.7514
-2.09779
-8.99262
-7.6727
-7.85741
-2.2924
-2.26661
-47.5752
-38.9523
-76.2162
-73.4615
-2.12196
-0.866728
-0.85631
-0.861856
-2.09026
-2.08011
-1.85502
-1.86218
-1.89214
-1.88907
-0.22192
-0.203669
-0.228086
-0.195466
-1.83663
-1.84145
-1.81752
-1.82028
-1.21394
-1.20455
-2.49265
-2.47607
-0.574113
-0.594438
0.604611
0.66374
0.52061
0.559812
0.643622
0.602741
0.56875
0.553027
-2.49261
-2.47606
-2.42817
-2.43383
-0.391526
-0.33138
-3.07456
-3.0876
-3.05647
-4.51179
-4.84368
-2.278
-2.53062
-1.89825
-2.13672
-2.5427
-2.58159
-2.49517
-2.48349
-2.71778
-2.68907
-2.16965
-1.04781
-1.80429
-4.5351
-414.909
-402.689
-1.98341
-1.98085
-2.17371
-2.19247
-1.5468
-1.61346
-1.9122
-1.80913
-0.134646
-1.52766
-2.55222
-2.57564
-0.441301
0.157898
-0.577051
-0.677798
-2.34876
-2.38222
-2.38393
-2.35067
-2.43956
-2.45803
6.26683
7.84441
-4.65501
-4.68608
-3.87608
-4.02565
-3.88439
-4.0732
-342.628
-346.62
32.2499
29.9435
36.7684
32.8167
-2.54703
-2.57397
-2.43326
-2.43533
-1.63704
-1.69078
-1.61342
-1.68132
-1.49948
-1.50712
-1.00053
-1.02494
-1.00148
-1.0451
-1.93348
-1.93953
11.45
-1.0259
-0.995753
12.2469
-0.256317
-0.286518
-3.44073
-3.37481
-3.18509
-3.14862
-2.41311
-2.40998
-2.59341
-2.58107
-2.58637
-2.56766
-2.43351
-2.43553
-2.25119
-2.22822
-386.672
4.8344
3.17059
4.4504
1.22237
0.628933
-1.55117
-1.5406
-2.00501
-2.01773
-2.81747
-2.82988
-2.12038
-2.12133
-2.15682
-2.80272
-2.81687
-2.01081
-2.02612
-2.56793
-2.55687
-2.09986
-2.47091
-0.619999
-0.627874
-1.51642
-1.51299
-1.48552
-1.49489
-2.14148
-2.1619
-0.471131
-0.881369
2.14419
4.26878
-1.60644
-1.60806
-3.83452
-4.13689
-3.66876
-4.47425
-1.35183
-1.26098
-1.20237
-1.21319
-1.40575
-1.18374
-1.1514
-1.14886
-2.45582
-2.46598
-2.45551
-2.46571
-0.794641
-0.874588
-1.86179
-1.86786
-0.970199
-1.0304
-1.58552
-1.57406
-2.69479
-2.70574
-1.86098
-1.86755
-1.30553
-1.29361
-1.21095
-1.24039
1.14804
1.41183
-1.09771
-1.11456
-1.56987
-1.51758
-0.294431
-0.238455
-1.57042
-1.50775
-1.49888
-1.47175
-1.50004
-1.45008
0.591468
0.211962
-1.46956
-1.49922
-1.44476
-1.49881
-2.56878
-2.53773
-1.45984
-1.47678
-1.75026
-1.74773
-0.393677
-0.38866
-2.61702
-2.61223
-2.76686
-2.75239
-2.61703
-2.61222
-2.12293
-2.14508
-2.12772
-2.14684
-3.35995
-3.24746
-3.41066
-3.3008
3.93181
4.25552
-2.49529
-2.48741
3.72499
4.1829
-1.03213
-1.0399
-1.0633
-1.0735
-3.75344
-3.58961
-1.83311
-1.81598
-3.42094
-3.42169
-3.44669
-3.50006
-2.56138
-2.67467
-1.39458
-1.36124
-1.3641