/*--------------------------------*- C++ -*----------------------------------*\
| =========                 |                                                 |
| \\      /  F ield         | OpenFOAM: The Open Source CFD Toolbox           |
|  \\    /   O peration     | Version:  v2012                                 |
|   \\  /    A nd           | Website:  www.openfoam.com                      |
|    \\/     M anipulation  |                                                 |
\*---------------------------------------------------------------------------*/
FoamFile
{
    version     2.0;
    format      ascii;
    class       volScalarField;
    location    "0.15";
    object      p_rgh;
}
// * * * * * * * * * * * * * * * * * * * * * * * * * * * * * * * * * * * * * //

dimensions      [1 -1 -2 0 0 0 0];


internalField   nonuniform List<scalar> 
24700
(
2817.52
2797.62
2865.17
2783.75
2785.23
2874.2
2843.17
2827.77
2766.84
2765.71
2791.36
2793.9
2783.28
2814.86
2807.67
2802.76
2799.51
2847.86
2837.42
2798.31
2887.08
2882.66
2803.58
2800.1
2907.54
2843.26
2851.77
2821.63
2847.76
-0.0155823
-0.0175266
-0.00633986
-0.0225606
-0.03524
-0.0127942
-0.0340657
-0.917924
-0.727568
-0.921839
-0.807996
-1.02847
-0.781174
-0.888099
1.5573
1.27868
1.32103
1.4716
0.785215
0.626936
1.08798
-1.25013
-1.35357
-1.26201
-1.47572
-1.44204
-1.3549
-1.34167
1.69217
3.26998
1.07956
10.1176
15.7037
2.59107
4.09199
-0.023296
-0.0230843
-0.0297179
-0.0227601
-0.0185399
-0.0204668
-0.0267421
0.158822
0.154167
0.138207
0.156041
0.133908
0.137416
0.161566
1483.49
204.628
2704.2
1487.46
167.326
2090.79
2611.4
0.048448
0.0471952
0.0385657
0.0639465
0.0146204
0.0261114
0.0365951
-0.0473859
-0.0559019
-0.0524879
-0.0583207
-0.0489889
-0.0574855
-0.0485093
-0.191285
-0.183091
-0.186252
-0.199912
-0.197711
-0.190291
-0.19372
-0.42163
-0.411076
-0.407524
-0.395315
-0.406829
-0.405276
-0.416785
-0.0350264
-0.0262464
-0.0313363
-0.0334501
-0.0368839
-0.0324446
-0.0313027
-0.0322518
-0.0287162
-0.0218627
-0.00907953
-0.00524787
-0.0104138
-0.0136641
-0.0186382
-0.0107298
-0.0151894
-0.0085569
-0.0080882
-0.0018044
-0.00685742
-0.0127197
-0.0325225
-0.0272677
-0.0281593
-0.0221865
-0.0265367
-0.029779
-0.025232
-0.0707876
-0.0660279
-0.0748147
-0.0747501
-0.0666051
-0.0662775
-0.074975
1.63392
1.32131
1.68599
0.810093
1.45617
0.633664
0.960593
-0.270855
-0.104779
-0.136057
-0.0351221
-0.0357206
-0.0599419
-0.148102
0.503942
0.440041
0.394786
0.541922
0.487114
0.477064
0.505984
0.698546
0.642476
0.678823
0.861642
0.901582
0.784936
0.767781
0.715486
0.7352
0.743954
0.765624
0.737267
0.746162
0.733806
0.550041
0.44237
0.627483
0.578345
0.641277
0.47913
0.533514
-0.96622
-0.987784
-1.04821
-1.2038
-1.13531
-1.10023
-1.07435
1.44074
0.394055
0.353311
0.350437
1.83211
2.12994
1.47019
1752.64
1647.35
1963.42
1651.17
1871.26
1859.03
1824.78
0.467761
0.539314
0.575218
0.519805
0.451577
0.668238
0.581322
-0.192072
-0.177661
-0.197713
-0.146944
-0.151101
-0.172356
-0.168367
0.171405
0.182669
0.165299
0.212929
0.1851
0.201463
0.169166
0.42529
0.503726
0.516942
0.38467
0.39639
0.414988
0.427547
0.643239
0.669916
0.68685
0.637123
0.647164
0.648023
0.667919
1.60627
1.42269
1.33928
1.16395
1.12159
1.08392
88.9799
89.3847
87.8867
89.0597
89.0874
86.3774
17.8839
7.29204
8.28811
6.52074
3.33737
3.78066
9.07995
1.82479
1.05842
2.55236
2.13583
2.28847
1.58934
2.16395
1.00685
1.00737
0.992603
1.00431
0.97677
0.933621
0.987414
1.14438
1.20269
1.1808
1.21258
1.44193
1.53904
1.26866
1.44247
1.29638
1.21213
1.25404
1.13448
1.28966
1.2633
1.0941
1.13847
1.15924
1.0526
1.23425
1.28269
1.13606
0.392727
0.408204
0.237397
0.450755
0.450187
0.342461
0.417231
-0.21187
0.332516
-0.266386
5.83252
1.58816
0.244648
1.58168
1.27293
1.64146
1.57331
0.935228
1.49995
0.903102
1.11943
0.0744909
0.0626708
0.0881836
0.100155
0.116867
0.0774847
0.0926858
-0.130951
-0.140895
-0.137807
-0.142676
-0.133443
-0.140797
-0.131316
-0.182667
-0.174469
-0.182863
-0.182419
-0.190554
-0.178178
-0.186464
-0.159011
-0.159559
-0.150971
-0.160078
-0.166895
-0.155194
-0.162488
-0.0981642
-0.0935056
-0.0919542
-0.0847142
-0.090065
-0.0880909
-0.0935778
-0.0685411
-0.0624568
-0.0701686
-0.0703812
-0.0761058
-0.0649956
-0.0707737
-0.0491605
-0.0505036
-0.0437964
-0.0581057
-0.0523811
-0.0489594
-0.0538848
-0.0486664
-0.0474434
-0.0530373
-0.0455695
-0.0404022
-0.0440361
-0.0486905
-0.0272775
-0.0325045
-0.0281815
-0.0266004
-0.0222649
-0.0298872
-0.0253229
-0.0462809
-0.0495487
-0.0443988
-0.0426654
-0.0478701
-0.0489106
-0.0434691
-0.0524402
-0.055829
-0.0472188
-0.0489798
-0.0579893
-0.057355
-0.048326
-0.0247539
-0.0313155
-0.0289512
-0.0186745
-0.0199437
-0.0255886
-0.0237571
2136.11
1947.96
1824.23
2134.15
2148.16
2114.79
2028.03
0.135978
0.143134
0.13989
0.161313
0.161395
0.150909
0.147383
0.144171
0.153587
0.148057
0.130551
0.142483
0.119437
0.129335
1.13652
1.11549
0.95954
0.934857
1.13687
1.10619
1.12799
1.54986
1.60916
1.5958
0.925934
1.38924
1.00259
1.05394
1.39758
1.37487
0.902152
1.23865
0.891621
0.761876
0.734738
0.84203
0.781692
0.758608
0.862401
0.850881
1.02367
1.16685
0.867826
0.804481
1.33317
1.14271
1.19423
1.13611
1.40067
1.13447
1.55897
1.22729
1.24557
1.32471
1.29291
1.19681
1.29205
1.27765
1.24052
-0.864041
-0.690419
-0.624676
-0.993399
-0.999159
-0.845972
-0.772238
-1.62857
-1.19456
-1.36278
-1.73032
-1.10828
-0.835339
-1.5548
-0.195746
-0.152354
-0.123554
-0.410146
-0.433644
-0.392545
-0.297821
-0.15727
-0.16243
-0.179487
-0.199807
-0.196495
-0.179634
-0.178375
-0.153816
-0.148552
-0.159556
-0.159654
-0.147427
-0.147377
-0.160578
-0.229467
-0.238227
-0.237663
-0.245389
-0.237489
-0.242331
-0.233782
-0.213104
-0.216764
-0.218953
-0.222654
-0.222116
-0.217749
-0.226107
-0.113787
-0.114851
-0.108766
-0.120632
-0.116371
-0.117075
-0.112265
-0.00596164
-0.00828154
-0.00771327
-0.00935075
-0.00618504
-0.00848798
-0.00607515
-0.00510473
-0.00788378
-0.00594053
-0.00722696
-0.00341786
-0.00752308
-0.00426993
0.28535
0.227672
0.208786
0.271999
0.256564
0.209294
0.200164
0.143275
0.134294
0.14041
0.114124
0.127257
0.119019
0.132144
0.250016
0.278018
0.267573
0.233486
0.211125
0.278487
0.234593
0.204669
0.219693
0.233166
0.244527
0.275179
0.246895
0.228081
0.811738
0.641509
0.764906
0.642965
0.640558
0.800184
1.04626
0.637883
0.675775
0.6353
0.637589
0.64014
0.666396
0.636981
2.74135
1.31286
2.37826
3.18986
2.62576
1.53122
2.35317
17.5493
50.1157
16.8504
8.80739
17.0633
30.9627
12.5636
1.67479
1.94317
1.85204
1.65164
1.75284
1.8583
1.6646
0.15477
0.507531
0.15016
4.50152
0.922669
0.674566
0.598685
912.74
882.525
946.031
879.075
798.068
917.04
918.699
-0.254955
1.12685
-0.556946
-3.08275
-2.48565
-1.93045
-2.57366
-0.45985
-0.434343
-0.433222
-0.438709
-0.403737
-0.419535
-0.44976
-0.24713
-0.262465
-0.258134
-0.265328
-0.253969
-0.263832
-0.249774
-0.303261
-0.303219
-0.307504
-0.290262
-0.299091
-0.30151
-0.296411
-0.303391
-0.30302
-0.29174
-0.311319
-0.30432
-0.248146
-0.240142
-0.243827
-0.249942
-0.248612
-0.242195
-0.248221
-0.243547
-0.231179
-0.244506
-0.251372
-0.237135
-0.206709
-0.213725
-0.219175
-0.210864
-0.207221
0.00309722
0.00284066
0.00622389
0.00273614
0.000785461
0.00158259
0.00435942
0.190071
0.141116
0.18289
0.158665
0.183991
0.142667
0.171251
0.149656
0.157838
0.145889
0.155685
0.158902
0.183357
0.155027
0.154307
0.138169
0.143402
0.132694
0.135336
0.14388
0.14088
0.142391
0.142364
0.141465
0.139479
0.14357
0.139336
0.142301
0.139042
0.142538
0.14082
0.144298
0.145261
0.141406
0.141585
0.157418
0.177805
0.140696
0.151643
0.14136
0.140152
0.13094
0.190585
0.184383
0.165972
0.150935
0.198323
0.159861
0.19875
0.393629
0.397419
0.409596
0.395311
0.387472
0.395335
0.406727
0.396194
0.380206
0.410614
0.398249
0.391474
0.657259
0.653475
0.643756
0.63632
0.631841
0.640185
0.647675
0.792372
0.749979
0.67425
0.684953
0.681514
0.736464
0.804241
1.23333
1.90463
1.25721
1.52721
1.32274
1.62588
1.26784
28.5655
5.75168
12.7042
13.7247
82.2932
5.55394
17.6457
2.17401
1.75347
2.20135
2.60115
2.41745
2.24138
2.29965
5.53326
2.70792
3.50461
4.94687
4.55403
2.17719
5.25272
19.832
197.467
680.555
18.7145
17.894
245.969
491.868
-2.95783
-2.92591
-2.97785
-3.03291
-2.86236
-3.15402
-2.95297
-1.23422
-1.27213
-1.12192
-1.20239
-1.28005
-1.28242
-1.17038
-0.39952
-0.398851
-0.404261
-0.38634
-0.396844
-0.398653
-0.392736
-0.400961
-0.399974
-0.387982
-0.412167
-0.403483
-0.237695
-0.238271
-0.229587
-0.237504
-0.245422
-0.242368
-0.233843
-0.161759
-0.170098
-0.165664
-0.153983
-0.158676
-0.16508
-0.160449
-0.0967609
-0.103284
-0.101016
-0.0908784
-0.0934069
-0.0987999
-0.0963258
0.000435223
0.000454968
0.000150175
0.000727006
0.00149923
0.00109733
0.000299093
0.00372297
0.00304434
0.003091
0.001008
0.00185871
0.00310282
0.000163622
0.00367388
0.0029276
2540.88
2584.28
2526.55
2603.13
2530.18
2597.49
2538.76
0.151131
0.114786
0.213423
0.0687564
0.222511
0.106232
0.2249
0.0848365
0.0897629
0.0916207
0.0780819
0.076936
0.083196
0.0841591
0.11616
0.119457
0.125845
0.121022
0.115776
0.123025
0.115579
0.129137
0.132351
0.127995
0.12573
0.125811
0.129133
0.129055
0.132663
0.132851
0.131514
0.132322
0.132775
0.131173
0.132039
0.165916
0.201394
0.228659
0.176449
0.150586
0.149446
0.140034
0.0934304
0.12384
0.113652
0.184474
0.14625
0.145788
0.0613874
0.231323
0.256285
0.240618
0.247637
0.238235
0.254072
0.245068
13.0176
13.5938
37.7352
8.47091
5.4251
5.16416
12.9863
98.7646
97.7627
98.3955
98.1034
97.3336
97.8571
98.0053
97.423
97.3713
97.2096
96.7287
97.2277
96.512
97.4093
97.0934
98.5233
98.3301
4.29399
4.2617
4.9546
4.34508
3.93081
4.07346
4.54824
14.2058
13.5401
13.8806
16.1439
14.4276
14.4371
14.6848
50.7787
22.7476
38.9514
29.8729
21.1367
35.5854
28.7411
87.9332
41.3563
42.1173
39.8479
45.8045
42.2066
103.822
-0.697022
-0.706433
-0.670312
-0.690195
-0.719846
-0.71539
-0.681196
-0.428973
-0.441287
-0.43421
-0.435455
-0.435763
-0.444494
-0.43789
-0.439157
-0.424908
-0.432622
-0.144526
-0.14838
-0.151909
-0.160736
-0.157151
-0.155343
-0.151802
0.0171945
0.0724401
0.0152334
0.0157108
-0.035272
-0.00464685
0.00808589
0.0491108
0.0168827
-0.00819605
-0.00175506
0.0217602
-0.0815326
0.00145879
0.0124536
0.0656867
-0.00601999
-0.00500596
0.00643482
-0.0519397
-0.00485014
0.000555919
0.000215732
-0.0129392
0.0124699
-0.00385745
0.0349385
0.010918
-0.0463083
-0.0107046
0.0334425
0.0329171
0.026854
0.0181582
0.0204616
0.0259809
0.026902
0.103643
0.095855
0.098071
0.093869
0.0959215
0.0911271
0.0990786
0.146646
0.150956
0.136631
0.137837
0.134484
0.13878
0.138041
0.207729
0.200717
0.198834
0.208116
0.18606
0.200425
0.196544
0.601549
0.5906
0.610342
0.920023
0.691119
1.11753
0.72948
0.886532
0.698712
0.959984
0.964055
1.01536
0.892506
0.852658
0.402421
0.517425
0.500393
0.549177
0.476507
0.525996
0.41508
1.67227
1.70445
1.58843
1.63197
1.57735
1.70342
1.61876
97.2339
97.5343
97.308
94.6344
95.6266
94.0494
95.0367
94.8272
94.1804
94.0271
93.5609
95.165
96.0216
95.7424
95.2213
4.47637
1.01992
-0.284457
-0.525338
-0.444841
0.739494
1.65783
-2.50892
-2.24501
-2.47225
-1.63961
-0.864382
-2.24602
-2.12539
-1.75572
-1.63452
-1.65101
-1.61459
-1.51482
-1.72407
-1.59109
-1.10781
-1.0645
-1.06416
-1.03116
-1.07123
-1.04477
-1.07166
-0.984468
-0.976222
-1.01759
-1.03254
-1.06475
-0.99745
-1.02062
-0.703601
-0.71161
-0.726032
-0.743459
-0.746112
-0.729819
-0.727399
-0.588191
-0.57617
-0.584361
-0.576182
-0.592786
-0.576867
-0.590263
-0.497383
-0.505955
-0.508722
-0.517416
-0.512847
-0.512537
-0.506066
-0.504853
-0.494104
-0.503127
-0.512903
-0.507244
-0.501582
-0.508873
-0.544749
-0.539393
-0.548881
-0.555672
-0.555586
-0.549283
-0.551351
-0.697492
-0.720538
-0.690307
-0.671051
-0.706581
-0.715385
-0.681476
-0.438309
-0.403141
-0.432102
-0.43146
-0.459081
-0.417531
-0.448628
0.0440756
0.0836264
0.0543334
0.0105876
0.0311366
0.0556051
0.0403456
0.847299
1.70791
2.26172
0.60079
0.382569
0.622044
0.982656
0.00512849
0.00623251
0.00675039
0.00741056
-0.000429587
0.0103815
-0.000718787
0.00462451
0.000678709
0.0068341
-0.00988018
-0.0140688
-0.0116786
-0.0165216
-0.019287
-0.0151662
-0.0125239
0.195653
0.18886
0.148376
0.177995
0.180765
0.157282
0.155916
0.248147
0.255893
0.230835
0.319438
0.356864
0.278272
0.349888
0.225201
0.189914
0.207561
0.270097
0.309425
0.276643
0.219894
0.198506
0.168359
0.198421
0.216274
0.200356
0.181572
0.209355
-0.424562
-0.403361
-0.492489
-0.499496
-0.370835
-0.294639
-0.554379
-0.864395
-0.960707
-1.05245
-0.646034
-0.807606
-0.774044
-0.920571
-1.47088
-1.35666
-1.44123
-1.25254
-1.2514
-1.35328
-1.34252
-0.493921
-0.503773
-0.440985
-0.443368
-0.366242
-0.458104
-0.3899
-0.646985
-0.659325
-0.649631
-0.646738
-0.633248
-0.651048
-0.643215
0.870512
3.41234
0.438983
0.23188
0.306558
2.76897
0.312655
0.0894014
0.0594419
0.0785919
0.1391
0.149141
0.0797376
0.139602
-0.00361629
-0.00280556
-0.00148194
-0.00775232
-0.00851903
-0.00740728
-0.0088779
-0.0841065
-0.0872031
-0.0981322
-0.0762086
-0.0705664
-0.0775259
-0.0864654
0.0970747
0.0914488
0.0870674
0.102508
0.088069
0.0922604
0.100702
0.109509
0.109198
0.11052
0.100242
0.110975
0.104009
0.0908478
0.0805619
0.0731062
0.031341
0.0527294
0.0963035
0.0780148
0.0386331
0.138653
0.128522
0.139617
0.108954
0.126665
0.122112
0.133888
0.155804
0.160126
0.129677
0.137851
0.126616
0.138603
0.134891
-0.113286
-0.0837186
-0.236937
-0.0377958
-0.0397832
-0.0397855
-0.137888
-0.44777
-0.45861
-0.551583
-0.507441
-0.400916
-0.340184
-0.446865
-0.630366
-0.54083
-0.84381
-0.808335
-0.886673
-0.589704
-0.462371
0.0965907
0.159885
-0.00869246
0.00801762
-0.0358615
-0.0322744
-0.0751362
4.11594
3.66147
4.00919
4.67836
3.9976
3.74031
4.27556
205.121
231.983
208.243
219.819
220.386
211.301
217.683
220.788
199.237
206.171
195.229
204.41
206.494
203.984
263.405
191.376
176.937
184.118
16.7168
12.1246
19.3384
12.4702
13.2563
15.5079
13.1107
-0.325673
-0.305324
-0.447866
-0.283996
-0.261586
-0.291741
-0.357262
-0.70945
-0.782611
-0.707071
-0.631666
-0.596612
-0.692398
-0.64881
-0.70851
-0.794208
-0.820151
-0.721103
-0.739026
-0.774147
-0.769572
-0.881185
-0.826698
-0.896404
-0.866173
-0.914697
-0.831341
-0.895303
-0.597324
-0.603551
-0.600086
-0.602495
-0.603607
-0.597867
-0.597554
-0.602654
-0.603373
-0.60576
-1.013
-1.11074
-1.07615
-1.056
-1.1187
-1.13408
-1.04602
2138.03
2151.88
2115.42
1390.43
1918.69
2131.75
2104.87
2.77463
7.3265
0.585229
1.96544
0.470194
9.9797
4.6023
0.27414
0.203766
0.195175
0.203036
0.165987
0.190415
0.309365
0.0707911
0.0699729
0.0645517
0.0581681
0.0588679
0.0642129
0.0656303
0.0329394
0.0334145
0.0269072
0.0204419
0.0179646
0.0269083
0.0260447
-0.00736499
-0.01066
-0.00539796
-0.0151039
-0.00874927
-0.00482181
-0.0192355
-0.0170579
-0.0163818
-0.0653734
-0.0368034
-0.0348112
-0.0193517
-0.0395668
-0.0303504
-0.0551203
-0.00788099
-0.0187639
-0.0243481
-0.0380133
-0.0513813
-0.0586878
-0.0846929
-0.0701049
-0.0124592
-0.0194724
-0.040138
-0.0614755
-0.0567932
-0.535078
-0.449963
-0.833378
-0.778991
-0.693208
-0.542469
-0.628525
0.60778
0.532933
0.542212
0.524905
0.409884
0.136043
0.470698
-0.00055278
0.00709751
0.00389599
-0.00114859
0.0114512
0.0266513
0.00290437
-0.00478455
0.015024
0.124402
0.103702
0.0978681
0.365575
0.250396
0.253362
0.334426
0.448526
0.313365
0.578998
0.0799561
0.0806995
0.0844723
0.0966833
0.060373
0.066334
0.0905864
-0.62187
-0.664213
-0.820063
-0.907585
-0.956376
-0.817108
-0.758721
4.38422
3.26554
6.58096
6.62396
6.56176
3.44873
6.92246
149.75
167.588
149.318
153.768
138.54
141.888
-0.547627
-0.498054
-0.503531
-0.46743
-0.445607
-0.472518
-0.520795
-0.646286
-0.665161
-0.637358
-0.628968
-0.613297
-0.648279
-0.630647
-0.608027
-0.61042
-0.606779
-0.608713
-0.604477
-0.60867
-0.607926
-0.608027
-0.60955
-0.610087
-1.10347
-1.11044
-1.08935
-1.09465
-1.04458
-1.05828
-1.12337
-0.1547
-0.209854
-0.262329
-0.514447
-0.442342
-0.402642
-0.304839
1.57389
2.06445
1.0042
1.05517
0.812038
1.37217
1.13789
1532.13
1879.17
1537.36
1681.81
1936.51
1919.56
1881.91
0.184962
0.192338
0.170629
0.175406
0.161914
0.167001
0.166409
0.158546
0.158364
0.144887
0.16044
0.157328
0.155218
0.153137
0.14633
0.15272
0.146904
0.14138
0.143622
0.147966
0.146119
0.0843802
0.0768963
0.0778192
0.0914287
0.089583
0.0830896
0.084087
0.0597599
0.0580382
0.0513871
0.0444646
0.0441704
0.0520424
0.0530062
-0.10576
-0.0977048
-0.126436
-0.119698
-0.0894092
-0.100995
-0.133674
0.27259
-0.391275
-0.0467446
0.0321157
0.195752
-0.624063
-0.652561
0.087354
-0.0084599
0.00847115
-0.208372
0.0767141
-0.168688
-0.137863
-0.127906
-0.153734
-0.14496
-0.172229
-0.137699
-0.132852
-0.162444
-0.166036
-0.129614
-0.159159
-0.136341
-0.100998
-0.154158
-0.126512
0.0250577
0.0110655
0.0298512
0.0290357
0.0230923
0.03624
0.0335332
0.0360728
0.0192325
0.0353916
0.123528
0.126426
0.134391
0.120071
0.119939
0.124226
0.12464
0.373793
0.2644
0.256879
0.296801
0.279588
0.418366
0.281122
0.196571
0.196488
0.205718
0.134214
0.143615
0.155226
0.135668
0.132744
0.127764
0.12338
0.136233
0.126212
0.129377
0.130845
0.0606355
0.0656255
0.0501804
0.078008
0.0716333
0.0791514
0.0673943
-0.110788
-0.184894
-0.187555
-0.198209
-0.15148
-0.188912
-0.129444
4.92896
5.8953
7.32296
16.5581
26.643
4.43946
5.90138
20.5534
44.1633
39.6965
18.0732
30.4286
31.0411
29.9413
94.9809
98.1566
96.9902
96.7115
97.7862
98.1202
96.5983
98.8861
98.7298
98.6559
98.7506
98.9244
97.9896
98.8896
98.884
98.7541
98.6855
96.8569
97.7229
98.1474
97.4191
99.1338
98.6466
94.9896
98.6506
98.0684
54.9627
20.4034
18.1889
14.9664
19.6784
12.0224
24.9055
0.0133947
0.037484
0.00150532
0.0291913
-0.027535
-0.00608814
0.0166393
-0.539262
-0.558097
-0.535263
-0.527704
-0.54267
-0.556413
-0.533803
-0.523855
-0.528865
-0.54393
-0.52369
-0.517879
-0.530237
-0.521454
0.163486
-0.0371927
-0.199853
-0.287825
-0.322725
-0.100059
-0.20423
-0.652729
-0.643284
-0.665434
-0.61638
-0.632445
-0.647511
-0.634372
-2.02505
-2.17143
-2.03837
-2.06344
-1.89984
-2.15928
-1.97101
-3.19259
-3.23554
-3.37084
-3.35221
-2.94227
-1.95268
-3.15714
-5.41828
-4.68023
-5.0428
-4.75251
-5.12038
-4.36556
-5.26847
77.9768
33.2791
35.5755
292.684
487.144
56.204
114.826
0.202394
0.214194
0.186701
0.256225
0.267336
0.260329
0.209861
-0.0100111
0.0743319
-0.0097193
0.00665707
0.0847134
0.181398
0.0525143
0.0420181
-0.0423798
0.104832
0.0353937
-0.140789
0.0725684
-0.18841
-0.0923674
-0.143082
-0.13282
-0.1193
-0.0870538
0.00655776
-0.0106817
-0.017153
-0.0339754
-0.0224311
-0.0219087
-0.00564397
-0.205536
-0.188425
-0.210012
-0.154785
-0.160869
-0.17737
-0.18442
0.199018
0.369591
0.451088
0.277049
0.0534192
0.102636
0.69113
1.15734
1.11832
0.649146
-0.151446
0.36661
0.210983
0.482882
99.0512
99.4181
98.552
-0.554744
-0.542929
-0.556081
-0.559425
-0.565885
-0.559275
-0.553135
-0.589893
-0.581535
-0.582454
-0.581773
-0.575423
-0.568643
-0.58026
-0.551351
-0.548573
-0.540065
-0.588915
-0.583238
-0.582274
-0.445172
-0.433098
-0.433885
-0.430876
-0.432617
-0.440748
-0.435958
-0.434311
-0.438519
-0.425692
-0.427858
-0.42775
-0.418885
-0.413942
-0.415986
-0.407128
-0.417943
-0.427503
-0.354237
-0.419253
-0.392277
-0.418427
-0.425532
90.4456
91.3208
90.846
89.5202
87.5205
89.7401
90.0905
89.76
90.3455
90.9281
92.3526
90.9894
90.1636
87.2274
89.653
90.1212
90.7113
89.5084
90.0641
90.2702
89.6099
90.3121
90.9507
89.7672
0.379534
0.0443011
0.234184
-0.244036
0.511061
-0.0580465
2.19318
-0.392919
-0.40625
-0.366253
-0.373962
-0.384158
-0.402292
-0.371814
-0.62775
-0.594824
-0.60744
-0.570632
-0.584024
-0.586507
-0.59774
-0.816191
-0.743614
-0.746133
-0.695484
-0.697838
-0.71375
-0.738802
-0.647145
-0.643202
-0.677791
-0.743092
-0.78919
-0.70966
-0.711487
-1.56375
-1.51169
-1.6592
-1.78864
-1.78437
-1.64258
-1.64635
-5.85539
-6.4098
-5.90339
-6.24187
-5.6697
-6.37686
-5.85952
0.224435
0.22132
0.230925
0.240117
0.238262
0.230224
0.229993
-0.16616
-0.195841
-0.05717
-0.22116
-0.494503
-0.250382
-0.150417
-0.166737
-0.220682
-0.172613
-0.159155
-0.145503
-0.19026
-0.163495
-0.121202
-0.165805
-0.207894
-0.167919
-0.141017
-0.423797
-0.393904
-0.438486
-0.469235
-0.450437
-0.462512
-0.411096
-0.452398
-0.156143
-0.114412
-0.133357
-0.0644296
-0.097638
-0.129804
-0.0962653
-1.1634
-1.16372
-1.27482
-0.767175
-1.08087
-0.688917
-1.23374
905.531
939.009
863.92
943.112
899.549
900.375
875.974
-0.997678
-0.918729
-1.0438
-0.836963
-0.669094
-0.828538
-0.932065
-0.909701
-0.878795
-1.08468
-1.13451
-1.33626
-1.02642
-1.12082
-0.647138
-0.463882
-0.554871
-0.641347
-0.540166
-0.463191
-0.630735
96.6123
96.263
96.6764
96.6268
96.3683
96.6549
96.8565
94.9832
94.8078
94.7764
94.7059
94.2776
93.4374
93.6016
95.6967
96.4767
96.164
-0.0259015
-0.270863
-0.0486094
0.466236
0.0489821
0.33467
0.574244
-0.303809
-0.358276
-0.323698
-0.342989
-0.334946
-0.365643
-0.304176
-0.475933
-0.466734
-0.470737
-0.485236
-0.476864
-0.468049
-0.476076
-0.477278
-0.480535
-0.491266
-0.443916
-0.448714
-0.447604
-0.43262
-0.430092
-0.429566
-0.465941
-0.450543
-0.448273
-0.449221
-0.456079
-0.384488
-0.269628
-0.363674
59.2774
7.79138
19.6966
99.723
31.9704
10.2026
37.7215
94.784
95.5762
96.7463
95.0144
93.6054
95.2995
92.4371
95.1378
93.6931
94.229
94.0236
93.3073
92.6457
94.5167
94.0049
92.5306
93.045
90.5367
95.0601
95.2607
95.3921
0.483095
0.550561
0.32586
0.594471
0.454029
0.991565
0.687205
-0.0590427
-0.0143801
-0.0622531
-0.0920821
-0.0366076
-0.0537376
-0.0631619
-0.286464
-0.325218
-0.264037
-0.448521
-0.307082
-0.291895
-0.364052
-1.07929
-1.01838
-1.16259
-0.92251
-0.937755
-1.00746
-1.0554
-2.76522
-2.71219
-2.832
-2.17395
-2.32795
-2.49719
-2.69108
0.736525
1.5299
0.803862
1.17798
0.749321
0.615409
0.206958
0.169874
0.183763
0.180529
0.16013
0.163333
0.174224
0.172142
0.123739
0.126432
0.123529
0.121387
0.123174
0.125075
0.123379
0.326994
0.195974
0.330668
0.335166
0.316114
0.163738
0.21217
0.337829
0.132389
0.178718
0.0321202
0.144758
0.16423
0.145783
-1.38662
-0.771794
-1.16281
-1.48675
-1.45733
-1.34666
-1.31721
-0.190604
-0.187092
-0.167604
-0.183214
-0.226419
-0.223549
-0.188178
-0.0291694
-0.0487146
-0.0333017
-0.0260234
-0.016757
-0.0375821
-0.0397118
-0.0777661
-0.0413496
-0.0264291
-0.0366761
-0.0548253
-0.0597621
-0.0703967
-0.0547814
-0.0627676
-0.0848108
-0.0867948
-0.05834
-0.0979226
-0.0600555
-0.0496354
-0.00684469
-0.0145292
-0.0359117
2854.48
2841.9
2850.04
2855.83
2846.5
2832.66
2782.65
2833.47
2857.67
-0.333667
0.132435
-0.490646
79.2404
23.6489
0.334805
-0.700631
3.25378
-0.189581
-0.0889239
0.0778059
0.707374
2812.11
2873.28
2839.13
2810.01
2809.33
2810.99
2814.15
2809.35
2798.88
2811.89
2791.18
2792.98
2800.94
2804.65
2807.16
2810.44
2842.23
2809.93
2819.88
2795.27
2807.5
2809.23
2807.89
2809.3
2810.26
2813.08
2809.08
2810.98
2808.71
2804.31
2800.08
2794.76
2787.78
2779.69
2806.19
2814.59
2803.17
2833.45
2798.62
2775.35
2802.29
1587.53
698.173
2830.42
2889.13
2863.21
2685.19
2707.18
-0.0151645
-0.00877348
-0.00932798
-0.002452
-0.00832602
-0.0117086
-0.00959228
-0.00790595
-0.00893526
98.5978
96.2815
96.8763
94.9001
94.1552
95.1239
94.8255
94.9667
93.8218
93.0725
92.572
94.6138
94.2836
96.7698
100.333
-0.0121793
-0.0164631
-0.015724
-0.00103763
-0.00688506
-0.00696005
-1.59969
1.94788
-1.16135
-0.211064
-0.128537
-0.25358
0.141914
0.126912
0.136713
0.122516
-3.31493
-3.32312
-3.57053
0.119538
0.121317
0.115419
-0.353234
-0.38026
-0.375303
1.96076
3.37456
2.24438
-3.51961
-3.19574
-2.37074
-3.04555
-0.100017
0.018631
-0.0485467
0.115431
0.117122
0.122609
0.125392
-0.824913
-0.857702
-0.824391
-0.856357
-0.349441
-0.322282
-0.319518
-0.290879
-0.796543
-0.895737
-0.680794
-0.756781
-0.578225
-0.668996
-0.526208
-0.553114
-0.663886
-0.704909
-0.158422
-0.252851
-0.090076
-0.141298
-0.791272
-0.775825
-0.826274
-0.784691
-0.832339
-0.807146
-0.778365
-0.775602
-0.785805
-0.786447
-0.788841
-0.903783
-0.554825
-0.554751
-0.669461
-0.681485
0.134618
0.115777
0.127994
0.133244
0.0835807
0.11594
0.131085
0.130298
0.138557
0.142578
0.135086
0.138348
7.41196
4.11385
6.47701
2.97055
-0.0933673
-0.108857
-0.109629
-0.222556
-0.213681
-0.223608
-0.215381
9.94527
34.8133
13.5324
25.9344
0.612059
0.662588
0.538182
0.616105
-0.0714132
-0.0770374
-0.0801776
-0.328809
-0.301654
-0.790228
-0.815084
-0.813625
-0.843448
17.2908
20.341
21.1394
16.8401
-1.02071
-0.940349
-0.00567192
-0.0112895
-0.0129963
-0.0160897
137.921
132.983
167.691
160.432
-0.268119
-0.32836
-0.279935
-0.337834
-0.251778
-0.234889
-0.239758
-0.2101
1.17802
1.59215
1.14815
1.59066
0.163693
0.191384
0.210868
0.179721
0.163177
0.171693
9.48042
12.1147
9.27331
14.5683
0.91388
0.838796
0.912112
0.812097
-0.241248
-0.333679
-0.256527
-0.333419
1.16543
0.969437
2845.32
2853.37
-0.0712849
-0.0734799
-0.0759876
-0.095929
0.177108
0.139182
0.32317
0.278387
0.107117
0.162641
0.272054
0.316363
0.201553
0.183139
-0.0235838
-0.0221582
-0.0230363
-0.0201247
-0.731472
-0.801321
-0.701392
-0.833637
-0.105599
-0.0998361
-0.130734
-0.142467
1.35572
1.54666
-0.43398
-0.441523
-0.429192
-0.440326
92.8677
70.8901
91.0919
88.68
79.0679
93.5169
93.3828
-0.48138
-0.471835
-0.47844
-0.469373
-0.389154
-0.379785
-0.368089
96.6464
99.2461
81.7892
74.6865
94.4329
97.4076
0.235107
0.241065
0.120476
0.122231
0.113558
0.106193
0.102851
0.109511
-0.0358877
-0.0414499
-0.0661945
-0.0101447
-0.00617883
-0.0145516
-0.106953
-0.103341
3.30106
6.07758
0.502294
0.976139
18.6542
36.2832
35.9453
35.8925
22.3274
24.1514
31.3014
22.5004
-1.29981
-1.47361
-2.21332
-2.50693
0.148197
0.144793
1.09342
1.57617
0.142734
0.147877
-0.524191
-0.51909
0.191757
0.182237
956.298
739.93
-0.370587
-0.210299
-0.403505
-0.623158
790.55
962.489
5.80923
6.94128
2235.34
2724.3
-3.60011
-3.58706
-4.12024
-3.66042
0.588309
0.532216
0.603763
0.580153
1.79905
1.432
-0.0979266
-0.0948378
-0.09089
-0.0831841
0.142663
0.140952
2841.91
2841.96
2851.57
2835.9
0.0987918
0.126857
0.113044
0.120552
18.5642
18.3965
21.3335
19.6358
-2.13584
0.856006
-2.65466
-1.73577
0.264987
0.274865
-0.76803
-0.468349
0.083499
0.0808015
0.0947578
0.108175
2.42472
2.40086
1.58973
1.35302
0.054316
0.0519461
0.0682989
0.0725481
-0.160172
-0.163887
57.0444
17.0631
-0.0451203
-0.04857
2.23837
2.53376
2813.65
1154.13
400.149
1497.69
722.219
-0.405143
-0.414789
-0.406449
-0.420504
0.155426
0.164801
-0.86511
-0.979683
0.114109
0.112462
-0.655704
-0.654726
-0.524934
-0.550554
-0.130261
-0.161421
1.05405
1.0254
0.938046
1.07986
102.836
122.9
132.43
-0.140464
-0.13146
-0.128655
-0.119319
0.12146
0.112637
0.125744
0.120415
0.0270682
0.0324345
0.0356887
0.041481
-0.192709
-0.179945
0.124198
0.122578
0.125427
0.136418
4.12861
0.842213
-1.346
-2.03477
0.143831
0.144204
0.138174
0.140207
-0.480501
-0.4398
-0.500341
-0.441355
7.89771
10.6834
0.204914
0.206821
-0.146453
-0.1405
-0.139722
-0.133431
-0.133407
-0.135599
17.7626
21.2244
24.4095
46.4731
1.80319
1.55144
1.62037
1.03741
-0.0158456
-0.0182406
-0.0116274
-0.0141417
0.0646595
0.0754513
0.066868
0.0600219
-0.201302
-0.228113
0.137392
0.133073
-2.30599
-2.24725
-2.21127
-2.05653
-2.6024
-2.4679
-2.44792
-2.44057
-1.57283
-1.66191
-1.4002
-1.53072
-1.66462
-1.57013
-1.49958
-1.44726
-0.0161425
-1.3561
-1.1803
0.779798
0.891381
0.696265
0.73205
-0.176552
-0.18174
-0.192218
-0.196331
25.009
20.0157
57.5536
26.2318
-0.222156
-0.245616
-0.338002
-0.301858
0.732991
0.696323
0.808178
0.738002
0.907856
0.946395
2.66219
1.97777
-0.193608
-0.191189
0.123415
0.11046
68.2598
85.4566
0.224866
0.188543
0.202843
0.181613
0.130498
0.130476
0.132402
0.132708
2001.43
2080.84
2095.78
2131.67
2833.37
2856.94
1.93824
1.28019
98.0014
148.606
674.372
1503.93
-0.493675
-0.466491
-0.161869
-0.163746
0.603654
0.638822
0.0148421
0.0349234
0.36006
0.387167
2869.23
2878.64
-0.134939
-0.117135
-0.1229
-0.151302
-0.0298036
-0.0612321
0.0339488
0.0371933
0.440841
0.455763
-0.279086
0.132853
0.131737
0.0844873
0.0784297
-0.399659
-0.397589
-0.54837
-0.442655
0.196802
0.171493
0.0336076
0.00319563
0.0609541
0.0214054
0.132973
0.132943
0.129168
0.129924
-0.154592
-0.15975
0.133078
0.132857
0.12991
0.129215
-0.0187248
-0.0218776
-0.0219509
-0.0187758
1.96625
1.41735
1.35989
0.875033
-0.137956
-0.0360247
0.451292
0.804056
0.130418
0.68785
-0.237606
-0.243525
5.32117
3.82037
20.4365
7.54009
-1.1356
-1.15603
1.52844
1.51464
1.46465
1.52554
1.58351
1.53375
1.61565
1.52791
-0.20793
-0.179022
-0.427844
-0.400972
115.4
131.696
164.346
167.531
-2.85499
-2.66777
-2.90122
-2.88084
-1.11371
-1.22907
0.166906
0.216048
-0.275601
-0.251031
-0.110749
0.169395
-0.918362
-2.02747
2187.45
1518.87
2281.14
698.524
0.114799
0.060214
0.292234
0.238395
-0.0124643
0.47971
-0.604238
-0.580475
-0.649939
-0.674191
0.168084
0.173537
0.164172
0.170637
-1.01855
-0.985527
-1.02014
-1.00991
-0.0919152
-0.0871796
-0.0416105
-0.0371927
-0.388065
-0.407267
-0.426488
-0.428039
-0.0417037
-0.0372359
-0.577025
-0.561552
-0.633135
-0.625293
0.78893
0.279258
12.6044
13.4355
1051.62
1317.51
1216.6
1285.76
0.100417
0.114008
2854.7
2849.54
2844.63
2854.29
0.146348
-0.438886
-0.432985
-0.438269
-0.502446
-0.508182
0.133189
0.133075
0.131819
0.132743
0.563936
0.567695
0.563108
0.573084
-0.585804
-0.594542
-0.562768
-0.600184
0.192575
0.215132
-0.0288109
-0.0310019
1.06372
1.17585
1.14742
1.14793
1.1082
1.14681
0.986064
0.993074
0.970134
1.04231
-0.0287709
-0.0309887
-0.149001
-0.1504
0.197851
0.130331
-0.282234
-0.307757
-0.266987
6.03365
1.08399
-1.42098
-1.62304
-1.00728
-1.23312
-1.55078
-1.60202
-1.54073
-1.18501
-1.71238
-1.5571
101.866
176.73
53.8828
118.602
2762.24
2774.46
-1.3079
-1.30522
-0.743608
-0.280372
3.25353
1.20151
1.39745
1.48167
124.14
53.8729
0.107944
0.09004
17.4408
28.3447
1.89504
1.27851
-0.883287
-0.921396
-0.923167
-0.885251
-0.999933
-1.03152
20.7542
38.033
-3.14522
-3.15385
-1.08189
-1.18717
-0.00209372
-0.164629
2834.6
2830.61
33.6279
31.8869
50.8372
41.225
0.228963
0.151557
-0.221337
-0.218096
-0.682079
-0.718825
-0.73738
-0.776934
0.126082
0.123462
0.210633
0.20345
0.200805
0.176847
0.132423
0.132501
23.5408
0.198424
0.215953
22.3249
2.50291
1.92701
-1.66691
-1.57625
-1.40901
-1.33561
-0.212653
-0.217187
-0.0482342
-0.0492886
-0.0419589
-0.0458381
-0.221586
-0.218291
0.0722737
0.0793955
2790.48
25.1426
11.4588
17.0659
2.41411
1.40623
0.114634
0.110436
-0.559794
-0.549469
0.298457
0.290745
0.163479
0.219594
0.213396
-0.124568