/*--------------------------------*- C++ -*----------------------------------*\
| =========                 |                                                 |
| \\      /  F ield         | OpenFOAM: The Open Source CFD Toolbox           |
|  \\    /   O peration     | Version:  v2012                                 |
|   \\  /    A nd           | Website:  www.openfoam.com                      |
|    \\/     M anipulation  |                                                 |
\*---------------------------------------------------------------------------*/
FoamFile
{
    version     2.0;
    format      ascii;
    class       volScalarField;
    location    "0.4";
    object      p_rgh;
}
// * * * * * * * * * * * * * * * * * * * * * * * * * * * * * * * * * * * * * //

dimensions      [1 -1 -2 0 0 0 0];


internalField   nonuniform List<scalar> 
6576
(
2807.56
2782.4
2791.12
2796.52
2812.7
2819.9
2795.51
2800.62
2815.83
2805.81
2847.12
2830.46
2819.25
2827.82
2795.11
2800
2766.06
2794.89
2797.47
2845.18
2775.24
2835.53
2839.36
2792.72
2824.62
2855.97
2905.96
2818.23
2777.96
2782.26
2801.92
2763.05
2801.32
2823.88
2815.38
2838.76
2813.85
2841.75
2797.85
2820.72
2785.66
2777.94
2804.92
713.465
394.237
1353.22
500.481
728.808
1404.55
1178.03
599.467
1103.05
0.127822
-0.111302
-0.0473536
0.14467
-0.165639
-0.163104
0.0888545
0.05439
-0.0252647
0.0742723
0.0861813
-0.0278756
-0.0933064
0.015432
1.34732
0.85842
1.05949
0.721119
1.16001
0.87099
0.954546
18.6238
17.8358
18.2407
18.3181
18.6658
18.2876
18.2508
18.6711
18.9431
18.3493
18.4019
18.2081
18.6433
19.2593
-122.672
-126.193
-116.973
-118.056
-113.756
-124.234
-116.969
-74.5783
-107.057
-111.024
-104.162
-122.871
-100.007
-86.8769
77.637
177.859
51.5188
115.758
198.206
66.3038
111.772
1293.26
1341.39
1383.57
1170
1477.52
1996.61
-0.135919
-0.010588
-0.311071
-0.26612
-0.440999
-0.432694
-0.386921
1680.68
2448.69
2485.34
2564.42
2415.21
2703.54
2549.04
0.621984
0.0707921
0.13527
-0.0234134
0.0774724
-0.138171
-0.185798
7.70513
7.84766
7.96785
6.78403
7.67396
8.24176
7.45234
6.77587
6.69298
6.4831
6.06928
6.53113
6.9877
6.61154
6.89836
6.9544
6.958
6.79894
6.5911
6.97723
6.89536
6.70588
6.51088
6.47641
6.624
6.49832
6.3352
6.39684
6.39701
6.4719
6.55089
6.43577
6.42771
6.51471
6.72448
6.63519
6.55915
6.08382
5.89728
5.9866
6.11177
5.95388
5.83286
5.722
5.86916
5.98345
4.23597
4.11169
4.24845
4.33463
4.12686
4.29056
4.58448
4.51568
4.28126
3.48767
3.58872
3.33495
3.65757
3.93241
3.53818
3.69033
3.71719
3.45479
3.28565
3.6614
3.929
3.58051
3.36322
2.64773
2.76003
2.67349
3.08825
2.74851
2.90469
3.28415
0.24857
0.160055
0.227555
0.658758
0.580922
0.166595
-0.0081373
2.04672
1.95301
2.09289
2.37074
2.12406
2.10842
2.31861
2.784
2.56948
2.89912
2.75674
3.00557
3.2374
2.94844
3.88273
4.17922
4.02005
3.70116
3.71271
4.03086
3.92218
5.20891
4.94794
5.30782
4.81373
4.69423
5.11635
5.01335
6.05037
6.31526
6.33452
5.78944
5.77355
5.9216
5.91918
6.18123
6.18653
7.03792
6.9674
7.3712
6.83716
6.91579
6.90295
7.08043
19.1122
21.7974
13.8442
57.244
35.6575
20.9501
30.232
721.938
750.156
639.901
798.095
667.85
562.74
832.947
570.398
857.952
982.091
967.048
927.343
799.319
581.083
689.425
368.565
154.277
139.685
232.171
265.801
303.307
195.533
176.952
295.899
292.486
923.573
949.812
913.907
250.066
427.409
176.857
471.293
469.064
279.766
374.453
434.893
301.548
302.015
177.23
433.418
349.384
346.353
208.875
85.4536
32.2978
69.0233
47.654
33.5683
33.5848
32.1398
34.1868
300.717
87.2995
79.7745
482.776
576.031
104.538
163.475
1.23307
0.12393
1.64285
-0.268325
-0.0606521
1.1564
1.85688
7.10846
6.45282
3.42163
10.5195
3.61277
4.89562
3.5958
5.46959
9.16359
52.5674
54.4062
64.2751
53.3693
62.9942
68.7405
132.617
174.724
69.0828
235.286
560.832
214.702
268.729
328.174
181.895
365.312
828.131
792.571
803.334
948.247
746.455
347.353
718.219
822.179
981.428
34.0271
9.37683
31.7225
31.9687
63.7785
24.0733
51.3013
1.06156
-0.190272
1.5353
0.145882
1.64032
-0.336481
1.29328
2.59774
1.5376
2.3243
1.44994
1.29328
1.60364
1.91273
2.45422
2.0781
3.92897
3.20358
3.12208
2.78731
2.80279
2.94193
3.83453
3.42257
3.31084
3.12702
3.33746
3.11639
3.3325
2.63865
2.74641
3.10795
65.3792
94.2177
226.139
151.975
56.261
38.0293
225.197
1436.41
1447.68
1470.28
1264.95
1377.9
1337.41
1473.19
6.3772
6.04094
6.0751
6.5553
6.45864
6.2203
6.00592
6.3459
5.17408
5.43653
5.72664
6.35137
5.67802
5.17015
7.5841
7.08834
6.73786
7.68143
7.57324
7.08784
6.76975
8.42375
8.14298
9.33909
8.49735
8.65566
10.7596
9.48517
10.0082
9.26698
9.32168
9.14273
13.5133
10.8277
10.5443
8.9925
9.06156
211.797
410.305
413.318
210.661
209.067
204.218
412.533
157.58
122.791
327.503
415.177
404.122
365.743
418.777
312.06
317.686
198.765
317.625
306.077
308.595
271.678
288.064
288.704
293.974
192.154
287.937
194.107
190.733
188.014
319.661
107.15
191.924
194.269
312.93
-2.09649
-6.17846
-4.12983
-2.11528
-0.0732129
-0.699678
-2.24303
-1.36525
-2.51549
1.04566
-2.99119
-1.25141
-6.37878
-0.577802
-2.00783
0.576917
-6.98683
-0.327641
-0.441064
-0.791493
-0.0361287
-0.657386
-0.390187
-0.438588
-0.51507
-0.406567
-0.0944072
0.166802
-0.663884
-0.880642
-0.609559
-0.550348
-0.598501
-0.685525
-0.335166
-0.430856
0.186793
0.108979
-1.77382
-1.15772
-1.2153
-1.68906
0.0495461
0.293087
1.22013
-0.646879
-1.43516
-0.0204918
-1.15565
-0.17558
0.879734
3.47409
4.03052
3.1968
2.73832
2.13223
3.38412
2.76698
2.93937
2.60825
2.72401
3.24503
2.67777
2.70651
2.97248
5.06704
4.80892
4.6871
4.52612
4.36817
4.37624
4.64099
6.03554
6.17819
5.88424
5.91662
6.1844
5.69428
5.69991
5.57797
5.33983
5.31477
5.47882
5.4606
5.57846
5.55228
5.47954
5.32019
5.30572
5.39154
5.3878
4.93866
5.0021
4.99826
4.96137
5.02098
4.95841
4.94941
5.12559
2.79535
4.96361
2.33545
2.45976
5.04203
4.23639
2.34092
1.88042
1.80541
2.15433
1.92824
1.72163
1.78586
1.73676
1.73468
4.71452
6.99851
2.92564
10.7553
5.19497
4.72123
4.10341
44.4125
43.36
50.3799
48.4382
100.067
291.842
120.656
1027.67
911.426
910.614
912.063
868.619
194.135
152.839
984.762
994.87
1009.38
1045.78
1028.29
971.71
959.546
327.687
524.051
446.381
260.709
255.833
159.879
178.345
261.371
130.964
404.978
357.389
298.72
142.503
105.965
63.534
75.3258
595.581
432.822
514.553
473.902
370.829
454.723
487.898
342.4
446.955
346.592
413.748
375.164
396.208
422.207
371.839
389.163
396.563
417.945
478.29
490.051
491.951
457.317
428.932
432.942
434.5
290.935
343.208
289.165
240.952
293.524
276.893
374.686
310.297
370.818
291.327
179.57
58.33
14.4593
95.4511
55.5121
40.0037
83.5647
61.1747
244.142
261.355
293.887
137.888
128.934
402.798
296.438
348.129
12.5376
39.3965
27.7791
21.8863
42.2071
42.3554
23.3229
244.269
121.074
194.205
48.1501
77.8452
484.595
258.8
276.68
467.117
105.054
220.884
500.913
457.931
385.131
936.137
68.8789
91.0783
70.0268
100.241
52.8997
117.168
45.3174
242.083
160.37
153.632
186.104
239.745
138.044
75.1828
135.482
117.801
327.197
243.557
236.16
21.1996
-2.36897
-4.53487
76.7682
56.2584
65.4484
79.7619
71.7305
61.8367
-7.34143
127.951
106.505
105.38
109.272
133.485
43.4513
98.123
110.418
82.2557
105.456
-20.0036
37.0516
215.64
86.295
76.2392
113.117
91.1785
66.8706
130.715
34.586
104.767
77.2486
90.4122
9.92713
7.13578
3.44175
19.0294
17.3531
4.67407
8.66756
9.56518
4.00211
4.31409
3.80856
12.7212
14.0789
10.9665
1.10706
0.877975
1.5927
1.05953
1.16049
1.4492
2.31324
4.91429
4.06799
4.76116
4.57653
3.7119
3.70216
4.19797
3.06371
1.20117
5.0323
0.339561
4.19318
5.46786
4.4423
0.866722
0.521843
0.295626
0.677355
0.784229
0.582135
0.888432
0.424655
0.49189
0.784379
0.705413
0.829978
1.06916
1.08108
0.646214
1.12593
0.684316
0.783955
1.57847
1.39028
1.49077
1.53455
1.45365
1.80363
1.55812
6.15793
6.18923
6.14303
6.39526
6.34081
6.23685
6.32909
5.93595
5.68875
5.85789
6.01726
5.83971
5.8707
6.01317
6.35527
6.43206
6.58235
6.4852
6.7007
8.01871
7.84965
8.14607
8.08428
7.99065
8.04883
8.10573
8.36798
8.96691
8.33127
9.08818
8.95888
8.5629
8.29188
103.285
94.3847
46.1789
44.9532
72.3653
37.582
23.0642
1010.07
975.636
896.8
562.248
947.179
545.859
681.177
90.6005
42.6965
240.657
283.594
582.001
129.731
589.091
174.013
364.562
142.811
439.98
916.145
214.13
206.714
149.652
965.04
583.741
314.663
116.702
405.589
96.6191
175.065
48.4929
46.938
127.135
331.107
81.535
60.2738
417.724
207.18
421.18
6.20766
6.2725
6.21322
4.42855
5.62484
6.28577
5.94672
-0.15654
0.411358
0.962122
1.60324
1.27238
1.27139
0.893133
-0.162277
-0.180204
-0.927527
-0.329683
0.144882
0.0185695
-0.801914
-1.58717
-0.968089
-1.32007
-1.52724
-1.94874
-1.34718
-2.22072
-2.30589
-1.58635
-1.65188
-1.91543
-1.5303
-0.391102
-1.92308
-2.04159
-1.82537
-1.18677
-0.296044
-1.71507
-0.490128
-0.816733
-1.0513
-0.362011
0.133719
-0.0750366
-0.297326
-0.315057
-0.281527
-0.25574
-0.0478138
-0.0109685
-0.102257
-0.04084
-0.105797
-0.0497584
0.128011
-0.280616
0.174647
0.334401
0.601214
0.0430324
-0.284769
-0.0998398
0.401291
0.105228
3.5708
3.61375
4.02153
3.19045
2.90772
3.43038
3.2279
3.84375
3.71235
3.73831
3.57036
3.42521
3.62298
3.42544
4.34035
4.44459
4.621
4.06527
4.17743
3.99733
4.24544
4.0513
3.83539
4.18882
4.00017
4.02396
4.71724
4.88058
4.46582
4.62109
4.60662
4.6209
4.74144
4.83329
4.67467
4.43884
4.17837
3.66298
3.20224
3.23873
5.47381
3.49476
3.21136
3.21963
1.18709
1.15111
1.21066
1.77325
1.36574
1.21559
1.4943
1.54954
1.85479
1.43292
1.67118
1.49756
1.64963
2.19514
2.55029
3.72495
2.83343
2.51207
5.12444
2.5055
2.21324
2.61499
3.02256
71.7389
38.4973
109.343
30.4798
26.0518
56.4619
38.0725
1145.65
1052.81
1133.77
1104.87
1182.7
1271.01
1229.25
980.729
1042.79
1121.75
914.637
1036.41
1164.26
1043.87
1079.34
1067.69
1093.36
964.633
968.144
965.131
1020.89
1141.12
1152.77
943.808
824.648
831.791
682.776
908.464
385.066
861.724
1023.75
918.23
806.879
349.692
520.399
405.424
428.039
373.462
388.403
-0.507074
-0.27967
1.42738
0.888122
-0.591984
-1.08566
-0.318917
154.643
66.7845
94.7257
71.4147
35.6179
106.081
73.5263
52.93
38.8837
75.4277
173.342
-42.1104
74.6694
-21.5886
19.1584
0.436042
8.45652
-20.4652
20.8788
93.2516
116.708
-1.43774
71.7508
62.3621
40.2898
60.9075
87.4828
49.992
60.1664
98.384
73.3829
27.5295
67.9003
35.3532
27.0767
25.9224
3.72475
7.19045
6.06958
5.05295
9.7998
5.26036
1.83756
6.31539
1.45938
7.3263
3.4417
8.95414
3.50857
7.2451
1.66718
1.29439
1.69872
1.7816
3.45709
1.3241
1.83446
1.0228
1.02189
1.10274
1.09629
1.16236
1.02025
0.999416
93.3934
91.5905
310.162
102.256
464.155
134.071
106.074
503.483
684.206
815.214
791.389
816.203
802.851
766.974
22.4511
28.7276
26.994
41.6869
33.7823
26.2255
40.7275
18.803
18.7399
18.8805
18.9475
18.7599
18.9618
19.2845
17.6633
19.1001
18.3559
17.7777
17.6783
16.5112
16.9857
6.84489
7.25576
6.64779
7.16005
7.03454
7.84924
7.48876
8.12026
8.0148
7.84576
7.73802
8.2645
8.52375
7.9543
9.81464
8.89599
7.78928
12.1927
13.2219
11.4541
16.3915
35.8302
36.1757
39.1462
81.3883
62.5889
108.677
55.6553
443.31
449.775
269.245
1171.93
1457.14
416.815
991.614
222.882
546.874
123.829
129.575
402.817
129.266
227.373
76.0211
74.4196
1143.49
1191.77
1356.28
1148.57
1182.93
1175.76
1369.83
1145.38
1377.37
1422.94
1279.23
1127.69
1249.35
1394.4
1029.48
1210.29
1068.26
1457.93
1098.3
1408.39
1476.61
574.457
588.569
1450.73
1490.97
1487.59
1452.09
1304.98
1446.25
1477.27
1440.63
601.758
600.549
590.451
953.824
562.356
552.881
10.2205
10.767
11.4123
11.3032
12.2738
11.6124
13.373
8.91891
10.2033
8.55854
8.28096
8.64677
6.95204
7.61985
8.01262
8.29794
7.95273
8.29182
8.49952
8.01478
8.24924
8.20233
7.87872
7.81006
8.00139
8.03087
5.94969
6.69853
7.3258
6.10179
6.53954
6.47148
5.62411
-0.221377
-0.728345
-1.50259
0.439274
1.34282
-1.62551
-1.96513
-2.12658
-1.69239
-1.87096
-2.26672
-2.0571
1.62065
0.459269
0.968944
0.574505
1.29202
0.673413
1.6016
-1.97161
-1.11226
-1.19369
-1.25083
-0.663505
-0.751125
-0.907083
-0.287657
-0.508219
-0.0314535
-0.128835
-0.0210844
0.0142548
-0.0107481
-0.0470579
0.0176649
0.0147708
-0.191478
0.0777742
-0.0747723
0.0517337
0.198739
0.252487
0.19155
0.363144
0.545632
0.339343
0.064456
0.0902267
0.0344066
0.195339
0.274549
0.159877
0.329001
0.121584
0.216506
0.225005
0.164745
0.122032
0.0509704
0.327455
0.3221
0.299584
0.302279
0.424628
0.728013
0.467275
0.684052
0.471101
0.361714
0.474014
0.211468
0.386407
0.374371
0.202801
0.368531
0.458293
0.336152
1.02198
0.85476
1.11814
1.01344
1.21581
0.872889
1.03821
0.171849
0.369078
0.251261
0.0615537
-0.0533
0.037554
0.13433
0.225224
0.262792
0.427985
0.230446
0.253354
0.175063
0.198019
0.0935561
0.0592569
0.0898409
0.0540085
0.0397746
0.0752295
0.0541415
3.84838
2.67728
10.5972
0.249521
0.280273
0.531531
1.18504
1.80349
1.51003
6.25511
12.788
11.051
6.47925
13.9068
13.8677
8.01454
2.40665
1.66523
4.53374
0.591952
0.311191
1.17486
1.43217
1.29507
1.01134
0.722462
0.608866
0.662509
0.4597
0.696306
0.792965
1.13918
0.482801
0.430955
0.539221
0.59212
0.38693
0.489107
0.357746
0.351336
0.443233
1.12514
0.999914
0.998989
0.996116
0.963083
1.12082
0.857214
19.9537
11.0437
22.1002
13.8468
7.96726
4.47096
8.71609
9.7284
35.989
17.7584
41.4424
23.2947
18.2383
22.8307
1093.8
636.743
1073.33
1096.78
946.31
543.668
1010.39
774.084
988.795
159.302
1071.63
710.552
732.656
124.48
824.381
727.131
695.163
1024.96
695.36
1052.07
1073.16
1205.94
997.33
953.056
1260.73
1177.15
1183.68
1206.14
943.179
926.455
943.608
1085.76
1052.43
1093.99
959.975
1305.39
1041.31
1019.11
1160.71
1285.04
1187.8
1160.51
1146.5
1047.75
1089.14
1134.64
1176.86
1227.62
1288.33
1083.62
1214.85
1004.9
1029.82
1093.86
-1.65067
-0.721103
-1.63193
-0.553816
-2.10598
-2.21996
-1.53969
68.6488
112.954
50.5062
74.3348
70.1612
25.9438
66.6996
64.9319
57.1305
27.5492
82.4061
88.9413
113.845
31.1407
45.0652
72.8316
94.5399
105.634
41.2326
55.9254
20.4424
35.3372
2.50641
18.2317
36.272
34.6194
5.76207
13.3964
5.70295
3.50443
2.91958
7.60897
4.71578
1.65726
23.4154
23.4878
23.0033
22.3946
22.9336
23.7268
22.629
104.297
61.9717
101.001
72.3767
71.7502
37.1827
38.3551
76.5069
39.5148
23.7909
22.6957
18.2045
63.5765
33.9311
230.542
110.436
21.6482
21.2156
21.884
21.9036
21.5459
22.1053
22.0328
21.9511
22.1806
20.7721
20.5773
20.997
20.9075
21.2344
21.7065
21.4293
22.3933
21.9527
19.5682
19.7633
20.772
20.1917
20.6605
21.1011
21.1961
76.7406
112.776
122.241
262.493
191.527
796.431
244.175
1286.42
1312.86
1073.3
1296.01
1275.8
1081.89
1288.37
1362.76
1037.75
1334.65
926.626
1325.46
1327.34
1110.82
1377.35
1120.72
1124.77
1375.03
1421.13
1397.19
1388.27
585.356
801.479
641.794
1319.64
1318.59
1145.6
1391.64
1131.42
1434.45
1465.63
1432.88
309.177
1513.3
298.777
791.842
1180.75
1146.98
1420.35
1394.58
1297.36
1176.32
1323.3
1400.74
77.088
64.3074
31.9918
119.408
918.97
311.097
259.437
86.0699
134.624
73.7329
129.514
241.029
11.2456
11.6
15.1021
16.1281
15.574
13.1432
12.2528
7.69206
7.64229
8.07886
8.1633
8.18246
9.38755
9.21484
8.39561
8.11161
8.40474
8.1837
8.60491
8.22987
8.49076
4.89006
4.55251
5.13842
4.99575
4.65825
5.71525
5.17619
2.33313
2.15563
2.55218
2.17546
2.02124
2.25646
2.42813
0.236187
0.325148
0.401976
0.375621
0.208067
0.424611
0.5271
0.389082
0.515139
0.724197
0.31558
0.084531
0.437235
0.216754
0.201837
0.0679501
0.385783
0.385368
0.328869
0.330903
0.346915
0.405387
0.483321
0.394932
-0.117024
0.529825
0.388371
0.49348
0.497112
0.179576
0.428291
0.408519
0.00994537
0.282005
-0.905395
-0.275657
-0.153278
-0.215645
-0.593441
977.326
2373.67
2693.36
2608.09
2687.85
2568.64
2481.73
-1.36745
-2.65164
-2.83212
-4.6575
-2.89145
1.9082
10.2547
7.0235
50.0145
8.66195
50.1314
16.0404
159.83
23.0325
-0.882366
-0.308584
-0.550686
-0.286741
-0.214907
-0.315542
-0.434305
0.641078
0.411191
1.96864
-0.0424072
-0.176141
0.256903
4.50977
0.0891365
0.0280482
0.0538485
0.176768
0.0370594
0.0475833
0.0544426
0.0324663
0.0386114
0.0315333
0.0114524
0.069106
0.0358814
0.0296781
0.0256382
0.0514016
-0.011437
0.0109155
-0.023913
-0.0121725
-0.0140485
-0.0215588
0.019103
0.0695709
0.129929
0.285673
-0.0206634
-0.0444591
0.176327
0.142486
0.85967
0.895166
1.26762
0.0184351
0.726782
0.536884
1.29564
0.753243
-0.00448168
0.469376
0.713409
0.51199
0.196644
1.01145
36.6881
26.7174
53.5421
27.4504
45.7937
28.6659
11.1806
154.784
165.321
160.534
154.969
152.857
203.557
514.678
127.425
120.085
124.049
180.559
170.499
315.003
181.23
327.844
333.428
129.469
126.248
157.95
126.741
264.583
305.765
188.358
267.16
208.006
396.094
261.023
208.861
400.85
357.851
196.405
266.744
121.345
471.651
299.691
304.58
424.85
333.267
418.272
280.432
1077.98
837.117
1015.43
830.404
1020.75
1060.46
1064.82
455.323
1056.73
923.484
934.572
1155.19
1145.12
817.574
819.5
1158.59
986.366
822.641
1008.61
1167.62
2.59021
3.22959
2.55972
5.65001
4.19268
5.6189
4.33939
1.14373
1.13067
1.10186
1.13776
1.00576
1.13345
1.07559
0.64582
10.7
9.54788
8.45827
2.42364
1.3494
3.2471
-7.77574
2.35322
13.9759
3.5343
2.8189
6.24851
38.4659
997.735
468.185
878.998
960.343
698.783
915.578
876.237
115.696
58.7301
-1.31168
244.082
32.8254
165.851
705.366
815.319
716.512
847.441
858.381
823.237
836.765
359.735
169.022
159.452
241.99
160.001
164.99
162.64
287.57
733.904
162.956
880.57
277.493
251.492
228.391
1455.35
1131.36
1481.99
1369.97
1389.74
1474.38
1492.26
1172.26
1182.8
1168.26
1623.45
1218.9
1585.1
1517.84
1193.5
1566.08
1540.04
192.031
193.447
188.877
444.415
189.84
190.988
218.366
672.008
1025.47
1079.13
228.607
202.739
312.181
1089.51
230.541
168.507
225.326
417.488
1075.5
166.681
706.713
13.9203
14.3658
26.758
12.5731
19.715
11.4615
17.2819
5.31505
5.29095
5.37879
5.09422
5.22368
5.28317
5.19461
5.23312
5.21605
5.08892
5.15356
5.20939
5.08693
5.03113
4.56214
4.86963
4.52471
4.94406
4.85034
4.53066
4.97082
4.46756
4.63752
5.01641
4.37588
4.3291
2336.8
1835.25
2414.2
1929.34
2136.68
620.99
2249.51
3.46772
12.1456
10.2152
3.4206
4.45984
6.83109
6.53481
1.46684
0.0503325
0.192579
0.393182
0.372019
0.402935
1.81225
-0.536974
-0.739075
-0.534201
-0.0847277
-0.0210288
-0.056684
-0.0141163
-0.0488308
-0.0464944
-0.0536353
-0.0989823
-0.0100397
-0.0692602
-0.0117576
-0.0179666
-0.00231361
-0.0170225
-0.0156287
-0.0379111
-0.00606201
0.000692964
0.000321714
0.00706675
0.00638856
0.00105606
0.00172915
0.0673582
0.0644427
0.0661691
0.0633588
0.074505
0.0747521
0.0530281
-0.831324
-0.754332
-0.457747
-0.917567
-0.756355
-0.315011
-0.926517
-0.900454
-0.757165
-0.875985
-1.43619
-1.30682
-1.70357
-1.20262
-1.59557
-1.57299
-0.687057
-1.66242
-1.84518
-1.76978
-1.47643
0.365331
0.216349
0.124525
0.247102
-0.0367315
1.17915
1.18345
0.210646
0.630214
5.64954
4.25313
4.55264
7.76412
7.49302
4.19307
9.0535
354.432
355.998
628.209
505.676
358.307
692.49
354.823
667.123
218.005
658.876
322.967
363.501
361.55
212.099
213.089
211.442
360.236
649.572
583.293
650.252
215.853
202.968
433.088
262.215
158.718
157.747
626.48
619.95
283.657
413.351
158.692
602.366
611.682
307.462
326.236
318.986
311.909
313.681
311.699
451.533
305.147
309.709
488.579
333.093
319.958
450.774
334.587
336.635
326.961
335.277
0.662018
0.630837
1.03945
0.627155
0.576155
0.251235
0.562449
0.551418
0.218635
0.818481
0.344188
0.529452
0.863572
0.690936
0.720117
0.633822
0.922057
0.630517
0.661566
0.586462
1.51937
1.9056
0.586237
0.577819
1.53318
1.5039
1.50982
1.61549
1.5851
1.63971
1.60994
1.30453
1.37739
1.38753
1.24294
1.07344
1.12533
1.12873
1.07206
0.499654
3.91109
0.603945
0.00884983
0.633949
2.58276
905.167
344.511
536.58
3496.9
1706.02
2869.78
2571.18
1861.92
3458.01
2735.67
2137.68
1061.09
2469.12
1963.96
2430.05
2661.34
1221.92
756.697
648.458
593.843
703.025
-69.7651
431.057
1022.16
4524.97
3034.42
1119.34
1208.53
1330.9
1283.39
1329.65
1120.67
1103.91
1043.75
1048.11
1173.11
1381.15
1321.19
1114.82
1396.76
1423.39
1441.52
1411.19
35.2329
22.0985
39.8398
22.9199
22.3345
26.0633
24.2242
20.9098
15.0021
15.4206
25.4429
40.7269
25.4597
22.1036
4.49415
4.2929
4.78272
4.65517
4.6649
4.28679
5.15159
5.46183
4.7707
5.49593
4.68345
4.7634
5.59564
4.78779
5.46863
5.25833
5.39867
4.50596
5.37863
5.13591
5.19922
4.92394
5.18545
5.50541
4.64786
4.92648
4.93424
4.65259
0.0216848
0.166345
-0.0694244
-0.13321
-0.0470611
-0.256936
-0.365515
-0.0389927
0.161435
0.0265984
-0.00282039
0.0309409
0.0510529
0.0380851
-0.0216824
0.0325226
0.0716243
0.0602605
-0.0217059
0.254858
0.0459863
0.064038
0.0491899
0.0148598
0.0329915
0.0312527
0.043342
0.031188
0.0409179
0.0362106
0.00394746
0.00352572
-0.00355566
0.0283221
0.00370096
0.0433066
0.0389534
0.0374557
0.0768487
0.0609554
0.013969
0.00362539
0.0160979
0.0867819
0.111501
-0.000500318
0.0856679
0.100343
0.0576389
0.0111369
0.00168438
-0.0713091
0.218699
0.0239728
0.0672173
0.0442129
1.48265
1.20515
1.31393
1.51266
1.22357
1.37174
1.29513
1.27303
1.51286
5.93743
5.82902
3.62209
3.27652
3.56089
3.30612
3.6888
19.4448
28.6779
18.83
30.2406
16.0152
31.0407
18.5316
299.992
304.724
306.887
629.969
626.634
306.249
568.686
576.535
312.846
575.626
310.749
572.75
570.033
562.167
313.211
313.009
391.945
470.685
296.915
466.004
295.075
299.886
300.523
358.266
191.269
186.39
5.16804
5.52715
5.04144
3.55195
5.96065
2.77128
2.09465
194.555
137.464
168.93
214.123
344.007
902.477
426.494
841.271
1000.29
801.254
1009.96
1036.87
1029.04
1052.58
208.153
450.286
185.932
208.832
219.247
577.092
556.078
89.5142
68.3349
63.6751
103.334
175.215
159.708
491.682
4.40606
3.85899
3.18241
6.39306
4.14045
4.17436
7.19679
1.36845
1.64236
1.67619
1.36466
1.32272
1.14981
1.00447
3.15169
2.0824
1.44008
1.48106
1.63252
0.908125
1.16271
0.847352
1.03315
1.72737
1.61701
1.11686
1.20512
0.939106
1.16151
0.806895
0.959505
0.934816
1.25417
1.39364
1.34667
1.39264
1.48771
1.57875
1.45591
1.26204
1747.15
1029.83
755.051
427.419
334.252
912.508
-28.7148
217.851
-47.7318
103.793
-602.785
160.08
671.967
193.397
248.684
-267.931
-9.91079
244.052
148.885
-249.227
125.175
-140.307
97.8536
-156.34
-23.3993
24.7873
-0.586503
-5.82245
-11.3034
-71.3837
-80.6996
-70.0064
-73.7543
376.265
348.659
689.462
341.622
273.521
717.34
621.599
1020.07
765.426
987.997
1154.39
811.455
1227.94
979.968
454.996
262.57
407.678
1151.51
1186.14
1219.75
1272.84
1047.6
1126.42
1082.69
1173.05
997.245
1289.36
38.5167
0.542455
603.089
1051.98
805.577
137.998
355.089
29.9197
36.7667
0.1839
0.135614
0.267582
0.441668
0.711891
0.175391
0.192255
2.93011
3.95038
7.07319
3.02035
3.00049
2.70947
5.16041
0.116353
0.210468
0.0496589
0.0398148
0.078366
0.0613066
0.139908
-0.0217077
0.0617576
0.0910416
0.886306
1.41533
1.26633
1.37191
0.971403
1.38129
1.46206
0.69901
0.258435
1.04216
1.55903
1.45597
0.54199
0.416024
1.38692
1.05255
0.409824
-0.0240294
0.240587
-0.0477654
0.515192
0.0262601
-0.612598
0.320962
0.863285
-0.136824
0.871178
0.0976688
1.34023
-0.192609
-0.0530379
-0.183467
-0.118382
-0.588987
-0.127334
0.0688237
-0.0706591
0.0590494
0.0725695
0.0900883
0.164231
0.126998
1.43923
1.59549
1.91878
1.59913
1.78336
1.58018
1.74526
689.933
549.859
692.228
371.119
403.371
699.358
658.504
584.743
664.963
62.9309
160.774
522.499
149.628
157.454
623.745
627.401
575.366
0.850702
0.698656
1.48992
0.789831
0.979278
0.579371
0.928605
4.80909
5.1128
5.60923
11.4936
13.34
6.9023
10.8027
3.87829
2.95108
3.28593
4.53372
14.7925
11.9947
20.5628
1.72077
2.21136
3.19913
1.6316
1.44358
2.52305
4.50988
4.47983
3.67683
3.48406
3.93462
4.25389
5.25348
3.81502
0.848189
0.941193
0.842942
0.883698
1.57395
0.853782
0.813203
3.83444
6.07707
3.09866
2.30545
2.29208
3.90588
1.73395
2.5269
1.52588
2.08382
1.76069
1.85143
2.1388
1.51948
13.3119
5.68216
5.52668
8.12103
2.771
3.69207
4.82651
4.33205
10.4106
3.29342
1.65699
3.24848
9.53018
4.4737
13.1696
35.588
18.2831
3.94361
6.63111
12.5786
9.9987
10.5764
11.2367
3.05619
2.66077
2.84027
5.88416
4.50478
2.49748
2.31372
97.375
193.944
34.0273
37.2655
75.914
177.351
89.6569
7.64104
5.51831
5.46997
6.50648
5.69809
6.62584
11.1615
10.8655
9.09443
11.3846
9.00054
15.1095
15.2299
9.60129
3.05717
3.05136
2.4665
4.35552
4.1425
3.52709
2.92866
2.98007
2.47828
2.94125
1.84639
1.66781
1.93968
1.90856
39.5807
126.498
91.1259
115.911
47.4397
306.697
55.5196
-240.041
73.0803
-77.5644
151.745
-1.84362
92.0914
114.866
10.8432
196.538
139.221
278.448
80.4081
65.2575
134.373
-142.035
40.4983
-94.2884
134.891
85.415
79.9298
103.021
143.09
74.3107
129.48
18.1944
-26.4682
16.6791
-12.4157
11.1174
25.4037
16.4774
-45.8468
6.82696
69.5995
21.0321
21.9424
18.2083
20.1736
23.2285
23.6256
22.7116
-20.2434
-21.8257
-16.1109
-29.5489
-47.733
-33.0254
-26.5294
-40.8509
-37.8062
-39.6399
-5.96729
-46.0924
-32.9034
-63.4271
-71.6558
-42.1091
-101.039
-110.502
-95.5417
-93.8793
-106.391
-59.6467
-53.1709
-80.5607
-82.7638
-138.897
-136.691
-139.056
-136.728
-140.09
-136.833
-138.882
-150.932
-147.533
-146.827
-148.925
-149.006
-147.302
-147.029
-127.25
-122.944
-127.913
-132.005
-129.479
-121.287
-128.537
-117.027
-123.639
-114.833
-121.219
-113.189
-107.637
-122.7
-90.7336
-50.0729
-87.0147
-81.1928
-25.3896
-36.2128
-68.1979
512.398
462.18
356.363
323.469
404.51
392.97
235.883
508.232
666.534
252.2
498.343
14.6475
664.146
593.337
572.062
203.058
577.941
186.115
486.329
528.443
-22.9312
592.784
505.273
426.162
-24.9504
-29.8964
103.445
-27.3231
13.4694
-18.3711
357.08
-134.658
-131.973
-141.262
-136.43
-129.216
-129.825
-138.553
-145.542
-141.683
-143.338
-141.5
-138.437
-144.848
-142.02
118.931
-133.948
138.552
140.351
30.8622
-50.347
-161.045
1081.82
1500.53
1366.33
506.901
1141.89
1751.86
382.179
488.49
642.498
559.451
585.191
116.824
403.916
138.486
152.689
331.1
635.809
207.957
372.957
529.57
-146.309
-143.593
-145.39
-145.229
-146.023
-146.226
-145.183
-137.182
-141.2
-139.158
-135.943
-137.528
-139.424
-138.894
-141.235
-137.463
-138.146
-141.373
-145.566
-140.709
-139.635
16.8657
17.0834
17.7369
17.8009
18.1957
17.6318
17.1955
20.6141
20.6477
20.3693
19.8115
19.8849
19.5044
19.7318
13.5328
13.1576
14.1016
15.0628
13.2465
12.2524
11.7374
15.629
16.3464
16.0836
15.9104
16.112
16.394
17.4847
15.9828
15.9782
1542.13
1517.55
1341.41
310.465
1028.32
1531.79
590.219
1537.83
1415.43
923.392
899.111
1186.61
1542.03
1527.93
1368.62
1069.45
1531.39
1636.2
1022.45
1658.02
788.578
22.0238
132.286
43.5795
14.307
22.4011
76.1055
142.227
4.84299
32.6742
25.5354
5.13315
2.60665
6.46771
10.0575
6.36142
6.93869
9.0279
10.0361
7.28268
3.20605
3.4317
3.16645
3.19756
3.22799
-0.0812684
0.136333
-0.0138608
0.164587
-0.122225
-0.171164
-0.0100147
0.474785
-0.253005
-0.0345689
-0.505168
-0.0381673
0.290316
-0.213588
0.310658
0.584509
-0.00154188
0.479317
0.378245
-0.0734785
-0.0899223
-0.119366
0.0509134
-0.145698
-0.363983
-0.195107
-0.122839
-0.172102
1.37229
1.15739
1.08141
1.62695
1.6427
0.742336
1.03759
0.38187
0.598596
0.748059
0.976813
0.497217
0.111674
0.0662623
0.107386
0.163983
0.11
0.168057
0.220516
-0.00413574
-0.158277
0.0469292
0.270421
0.70064
0.232605
0.142702
0.14305
0.143483
0.294255
0.518644
0.209527
0.104268
0.184585
0.0122057
0.0445471
0.211688
0.720442
0.302292
0.293675
0.210638
0.0269632
0.228899
-0.102988
1.65156
3.1079
2.99893
2.04057
1.77023
2.08292
1.07613
372.211
621.834
638.053
631.2
612.94
628.379
610.52
313.304
604.033
308.848
614.327
584.338
625.491
556.358
186.424
406.964
1.27829
1.63125
1.8082
4.35321
2.36054
1.84203
1.87683
2.82862
2.81273
362.847
367.566
113.443
26.9604
158.113
84.2527
368.619
0.506655
0.105077
-0.0296895
0.528765
0.948807
0.843754
-0.730616
1.74054
0.129782
2.39473
-0.187038
-0.0310495
0.559529
1.00754
-0.8333
-0.667028
-0.823349
-0.506751
-0.917288
0.501666
0.241736
0.291507
1.41118
1.957
0.881376
0.719081
1.5595
0.484121
1.23748
0.633199
1.43097
0.177094
0.192292
1.26323
1.40357
0.348047
0.635657
1.13344
1.11298
0.332888
0.286676
0.475658
0.493363
0.613368
0.536177
0.601265
0.428948
0.434663
0.314617
0.30404
0.415307
0.566743
0.616741
0.403018
0.476593
0.342543
0.871687
0.449274
0.32288
0.555108
0.668233
0.63693
0.494185
0.550457
0.727112
0.587517
0.676037
0.68509
0.734093
0.891932
0.878111
0.763339
0.795737
1.71594
1.70768
1.74763
2.46006
2.85205
2.02168
2.85797
1.52982
2.30772
1.19768
1.20798
1.62272
1.31465
1.62159
1.12997
1.13209
1.93193
1.72777
1.48545
1.81586
1.72689
2.36001
1.59388
2.1109
1.51216
1.65405
1.77109
2.28824
2.11569
2.32347
2.08371
1.79179
2.84511
4.34823
2.72445
6.05463
11.5404
10.687
23.7677
36.5661
15.6561
13.8985
3.44735
2.87319
2.96362
3.35255
2.8102
3.72926
3.14117
2.55754
2.64917
2.7448
3.49744
3.85538
2.9166
2.95295
2.96373
3.27047
2.89818
3.01977
3.06066
2.80352
3.28528
3.35875
2.68185
2.69099
3.40943
2.76704
2.38376
2.4082
2.2673
2.26993
2.37596
2.09581
2.26534
340.774
126.58
346.96
165.122
33.4429
57.3926
423.309
132.672
-14.467
-1.44741
260.115
16.2195
128.098
-155.203
47.0748
-184.305
6.85058
-82.7321
128.439
43.2668
-67.5555
-107.954
-46.1529
157.32
-11.5238
-108.818
-116.984
-68.858
-19.4209
116.824
-17.8938
-35.0752
19.1137
139.891
82.3742
221.61
357.709
85.0007
461.641
378.641
313.896
311.581
316.547
462.962
294.122
570.183
278.731
399.472
584.588
444.816
64.8088
110.547
401.383
341.082
433.625
329.036
-38.6635
478.375
484.068
143.848
200.791
360.144
177.631
201.089
63.8417
72.0734
183.885
291.076
197.026
258.307
201.395
189.3
87.8422
398.339
259.929
344.308
371.32
269.87
-274.956
30.8065
-197.294
-44.2901
-70.1138
-27.5536
-33.1475
-32.2313
-13.4822
9.91933
109.292
28.9888
149.138
-14.4471
81.5703
141.302
167.367
194.35
315.147
191.53
-174.683
-54.3928
-11.1784
135.223
-200.434
-88.4404
28.0285
102.737
-93.294
2.61208
-23.9816
53.0643
108.926
-145.004
-118.602
17.1066
-99.5791
-112.483
-106.874
-104.175
-87.4494
-106.832
-66.5871
-98.3001
-119.404
-117.423
-88.1656
-68.9953
-119.887
-117.712
-89.517
-87.0596
-57.7589
-2.44064
-28.0315
-67.6966
-53.2267
-62.4889
-109.19
-101.147
152.191
328.554
48.1847
39.1912
35.9928
177.14
62.877
21.8599
22.3382
21.6029
21.0444
21.2332
21.2651
21.418
22.0164
22.7205
23.4494
22.3209
22.084
22.3228
22.579
22.1852
22.6759
21.5319
21.6309
22.2688
20.3134
20.6111
20.8904
19.898
20.098
19.6654
20.0819
21.1612
21.2435
21.2475
20.7116
20.8725
20.7339
20.7019
19.5482
19.2349
19.4977
19.4576
19.3493
19.4924
19.6325
828.939
732.722
763.919
1013.44
987.85
982.802
954.881
2.91564
5.04742
4.56416
2.54431
2.30264
2.74169
3.07869
5.78507
5.90249
9.22864
11.5943
11.6225
11.2533
11.6179
1.75366
1.40513
1.57633
1.25591
1.7789
2.17775
1.38782
0.340808
0.677841
0.260187
2.37457