/*--------------------------------*- C++ -*----------------------------------*\
| =========                 |                                                 |
| \\      /  F ield         | OpenFOAM: The Open Source CFD Toolbox           |
|  \\    /   O peration     | Version:  v2012                                 |
|   \\  /    A nd           | Website:  www.openfoam.com                      |
|    \\/     M anipulation  |                                                 |
\*---------------------------------------------------------------------------*/
FoamFile
{
    version     2.0;
    format      ascii;
    class       surfaceScalarField;
    location    "0.4";
    object      phi;
}
// * * * * * * * * * * * * * * * * * * * * * * * * * * * * * * * * * * * * * //

dimensions      [0 3 -1 0 0 0 0];
oriented        oriented;


internalField   nonuniform List<scalar> 
13152
(
9.96406e-07
2.03036e-05
-1.65389e-06
-1.96461e-05
1.87219e-05
-1.71156e-05
-6.0992e-07
-3.47487e-06
4.25003e-05
-3.46479e-05
3.54508e-05
-2.45681e-06
2.1232e-05
-7.5526e-05
2.85455e-05
-2.44291e-05
6.05214e-05
-1.60984e-05
-2.95262e-05
-2.84145e-05
7.40391e-05
3.91453e-07
-1.67798e-05
2.89895e-07
-2.99077e-05
7.72974e-07
7.85272e-06
5.15876e-06
-2.97913e-05
7.81691e-06
3.25705e-07
-5.07718e-06
-1.55204e-05
-2.98261e-05
-8.64562e-06
-1.4579e-05
-5.13434e-06
2.83589e-05
-7.6405e-08
-8.66263e-06
9.34133e-08
-1.41106e-05
-5.44794e-07
5.67179e-06
-3.05658e-05
1.62314e-05
-2.92993e-05
2.98367e-05
2.93628e-05
-4.81335e-07
4.1888e-08
-1.52366e-05
-2.99042e-05
1.19994e-07
-7.49321e-05
3.43712e-07
1.59811e-05
3.01786e-05
1.88273e-09
7.45186e-05
3.57888e-05
1.26622e-05
2.5416e-05
-7.38669e-05
3.63134e-07
-7.31033e-07
3.61567e-05
1.24154e-05
2.55849e-07
-1.87639e-05
7.36797e-05
7.79142e-05
2.92169e-05
-7.21632e-07
-2.94076e-05
9.12362e-07
-1.64211e-05
-2.69267e-05
7.25647e-05
1.73657e-07
-1.73164e-05
-8.07262e-06
8.00992e-06
2.36357e-07
5.29727e-06
-3.06863e-05
-4.97475e-06
-1.3942e-05
-2.90851e-05
-1.38256e-05
1.19966e-07
2.91678e-05
2.02605e-07
8.77898e-05
1.1533e-06
-3.66999e-05
-5.22432e-05
-3.70552e-05
4.26929e-06
0.000120576
-2.05401e-05
-1.53618e-05
-7.40493e-05
-3.42263e-05
0.000112545
-6.90194e-06
-0.000103847
9.10877e-06
-5.81342e-06
-2.38355e-05
2.88174e-06
-9.13473e-06
-1.90145e-05
-1.23301e-05
-3.17298e-05
-5.05428e-06
1.18542e-05
-3.19818e-07
-6.48007e-06
2.21326e-05
-5.68566e-06
-2.15012e-05
-7.61542e-06
-3.22701e-05
1.36746e-05
2.74083e-05
-4.67685e-05
2.26647e-05
-9.30992e-06
-4.17415e-05
5.67908e-05
-4.66034e-05
2.16207e-06
4.86819e-06
-9.85249e-07
-6.04502e-06
-3.17167e-06
-1.49051e-06
6.82426e-06
3.72323e-06
-2.02671e-06
-1.03209e-05
4.80501e-06
9.23909e-06
-2.2075e-06
-1.01401e-05
-2.88134e-06
-3.11406e-07
4.33153e-07
1.44132e-05
-1.63593e-06
-2.41018e-05
1.13245e-05
-9.29876e-06
-1.60979e-05
3.98098e-05
-6.57586e-06
-4.35882e-06
-1.9208e-05
-2.56636e-05
2.87737e-05
-1.68125e-05
-2.64973e-05
1.10998e-05
-4.33392e-05
-1.00715e-05
-8.41483e-06
-1.56966e-05
-1.55665e-05
3.96779e-05
-5.6608e-06
-4.28509e-05
4.00969e-05
-2.65977e-07
-2.10914e-05
3.59062e-05
-1.62885e-05
-6.24686e-05
-2.9354e-05
4.96937e-05
-3.5581e-05
5.96101e-06
-7.29609e-05
2.53831e-06
-1.343e-06
-1.18513e-05
1.0656e-05
6.46454e-06
-2.4918e-05
2.09917e-05
-6.95178e-05
7.46393e-05
7.14185e-06
2.19665e-05
-4.09596e-05
2.27331e-05
-4.93529e-06
-4.56638e-05
4.3479e-05
-9.32151e-05
6.81803e-06
-8.70662e-06
-2.01837e-05
2.20722e-05
-9.06253e-06
-3.54651e-05
5.13456e-05
-1.25892e-05
-5.17998e-06
8.16758e-06
1.77463e-05
-3.85031e-05
2.32796e-05
-2.0292e-05
1.09309e-05
-2.86497e-05
1.40269e-05
-7.72187e-05
-0.000100447
-2.98779e-05
0.000207544
-2.56895e-06
1.16235e-05
-8.62732e-05
-0.000100656
-2.36019e-06
-0.000137737
0.000110775
3.8586e-05
3.61701e-05
-0.000260181
0.000141597
-0.000206082
0.000222494
1.60387e-05
-2.25658e-07
-1.65097e-05
6.96685e-07
-3.23193e-05
-9.89468e-06
5.82527e-05
6.02382e-07
-3.31474e-05
-1.1755e-05
-5.86548e-05
6.05151e-05
-5.83412e-05
3.00765e-05
-6.14479e-05
3.39552e-06
-0.000152936
2.57785e-05
2.63212e-05
5.42186e-05
-0.000106318
-2.10556e-06
1.40512e-05
1.38329e-05
9.01919e-06
1.51964e-05
2.26665e-05
4.56034e-05
-6.76514e-06
3.84508e-05
2.22642e-05
-5.65801e-05
5.66236e-05
3.47488e-06
-3.51843e-06
8.84136e-05
5.21343e-05
8.35995e-05
1.16925e-05
0.000133345
5.4274e-06
1.86673e-05
2.80396e-05
2.91959e-05
5.9831e-05
-1.89924e-05
5.98807e-05
3.14983e-06
2.8315e-05
-1.27009e-07
-2.67753e-05
-1.41271e-06
-2.64263e-05
-2.91002e-05
8.38415e-05
-1.00805e-06
-2.55452e-05
-2.64146e-05
2.77362e-05
-2.32967e-06
2.59588e-05
-7.79186e-05
-2.20562e-06
8.41643e-07
-3.0221e-06
-1.22539e-05
-0.000214042
7.67161e-05
0.00014958
-0.000137678
5.03608e-05
7.50631e-05
0.000159327
0.000236695
5.01843e-05
2.6174e-06
-2.44087e-06
-2.21264e-05
0.000149027
0.000156868
5.07689e-06
0.000371436
3.52701e-05
6.36598e-05
-3.06443e-05
-6.82855e-05
6.33143e-05
-0.000140229
0.000112184
-6.66333e-05
0.000193607
-6.57065e-05
0.0001304
-9.53374e-05
7.40008e-05
-0.000207993
0.000134508
-0.000200736
0.000198275
-9.18449e-06
-1.55393e-05
-1.3458e-05
3.81818e-05
-1.48141e-06
8.93557e-06
-1.66386e-05
-5.00209e-05
3.30002e-05
-3.34193e-05
1.76545e-05
2.47004e-05
1.00801e-05
-6.01381e-05
5.14459e-05
-9.13867e-05
5.56424e-05
2.79554e-06
1.36345e-05
-1.34133e-05
-3.01672e-06
1.27705e-05
-9.24815e-06
-7.26839e-07
-2.06936e-05
4.70986e-05
4.54215e-06
4.82806e-06
-1.86184e-05
1.27737e-05
-8.95837e-06
7.57869e-06
-1.54986e-05
-1.00655e-06
1.14777e-05
-2.9578e-06
-1.31223e-05
4.60242e-06
-9.25281e-06
-1.18852e-05
3.26158e-05
-4.53119e-06
-7.67942e-06
2.39399e-06
-2.75532e-06
-1.2761e-05
-4.20064e-06
-5.2906e-06
-1.40016e-06
7.00147e-06
-1.01325e-05
1.30367e-06
-1.03832e-05
-5.96622e-07
3.39745e-06
-2.04826e-06
1.22856e-05
-7.57146e-06
-1.26555e-05
7.94137e-06
-2.06069e-05
2.14393e-06
3.07485e-05
-7.15214e-06
-2.10262e-05
2.02397e-05
-2.79392e-07
8.51426e-06
1.96668e-05
-1.41758e-05
2.4834e-05
-2.16073e-05
-5.609e-06
-4.86909e-06
-9.97898e-06
2.04571e-05
3.10203e-06
-1.7092e-05
8.38097e-06
4.66362e-06
-6.43068e-06
-1.38626e-05
-1.13362e-05
1.52199e-05
-6.14671e-06
-2.48079e-05
-2.17197e-05
8.35313e-06
1.80302e-05
-5.68225e-06
-2.24681e-05
-6.43987e-07
-1.1185e-05
-3.6271e-06
-4.88518e-05
-1.0199e-05
3.24552e-05
2.65957e-05
2.71711e-05
-1.29665e-06
-7.47263e-05
-6.38657e-06
2.33586e-05
-1.30234e-05
7.72639e-06
3.77522e-05
8.88786e-06
-2.32079e-05
4.00529e-05
-3.47032e-05
-1.17362e-05
4.23681e-07
6.29879e-05
-1.29577e-05
2.11078e-05
-3.87731e-05
4.37532e-06
-2.13765e-05
3.01701e-05
-1.31689e-05
-2.75322e-05
5.76081e-06
2.61467e-05
3.55682e-05
-8.44769e-05
1.43114e-05
-3.03807e-05
2.18301e-05
-3.42682e-05
-1.23806e-05
1.75682e-05
-1.64787e-05
2.58735e-06
-3.57402e-05
-3.0922e-07
3.34621e-05
-4.03358e-05
3.24536e-05
1.04695e-05
3.29841e-05
-0.00010906
3.15798e-05
-3.09406e-05
-9.4838e-07
-2.64262e-05
9.14681e-05
-2.92294e-06
8.95033e-06
-8.79481e-07
-3.98298e-05
3.4469e-06
3.67399e-05
-3.57006e-07
6.46153e-05
2.11787e-05
-0.000125624
5.56782e-05
1.23839e-05
-5.07865e-05
-2.15338e-05
-6.09303e-05
9.78679e-06
7.44727e-05
-0.000114224
0.000108617
0.000126733
0.000123219
0.000123503
-0.000373456
-2.62905e-06
0.000120989
8.37277e-06
0.000123138
-2.54802e-06
-0.000131565
-0.000116058
0.000370762
-0.000123966
-1.01467e-05
6.62736e-06
-7.09061e-06
1.15585e-05
-2.23459e-05
-3.25557e-06
2.14071e-05
4.19444e-06
3.1193e-05
1.56924e-05
-6.92313e-05
3.83366e-05
-1.03991e-05
-2.53501e-05
-1.60104e-05
6.27675e-05
-3.93503e-05
1.81947e-05
4.34043e-05
-6.70622e-05
6.57305e-05
-3.08178e-05
-7.77835e-06
1.60461e-05
2.255e-05
1.99203e-05
1.20294e-05
1.87324e-05
-6.59039e-06
1.07218e-05
1.52767e-05
-1.39691e-05
6.11401e-06
2.06539e-05
-2.76325e-05
5.24789e-05
-1.89463e-05
1.68313e-05
8.94175e-06
-1.8313e-05
-7.46004e-06
-1.36739e-05
-1.66269e-05
4.71322e-05
-3.39188e-05
2.91866e-05
2.29407e-05
1.78406e-05
-5.90944e-05
3.73107e-05
-3.41795e-05
5.48633e-05
-5.02577e-05
-1.05391e-05
-1.55873e-05
-9.30559e-06
3.5432e-05
2.95568e-06
-8.93347e-06
-4.56129e-06
-2.19219e-05
9.29032e-06
8.43911e-06
1.18027e-05
-2.91753e-05
2.17821e-05
-1.79043e-05
2.28953e-05
-3.30145e-05
3.53718e-05
-7.79614e-06
1.77903e-05
5.04193e-06
-1.5036e-05
3.49786e-05
-1.20262e-05
1.02454e-05
4.25234e-05
-2.48056e-05
1.8585e-05
1.12625e-05
-1.92477e-06
-3.79169e-05
-7.15454e-06
2.30832e-06
2.34312e-05
1.54063e-06
-1.06199e-05
8.38104e-06
-1.88666e-05
2.09348e-05
-1.6247e-05
6.09924e-06
-6.76551e-06
1.69132e-05
2.58155e-05
5.03618e-06
2.16728e-05
1.02419e-05
2.93636e-05
-1.64623e-05
-1.93142e-06
4.82082e-05
2.70945e-05
-3.85206e-05
4.68359e-05
2.90592e-05
-9.31391e-06
-1.92669e-05
-4.78382e-07
-7.17366e-05
-4.46346e-06
0.000105259
-2.94803e-05
-5.15702e-05
2.65339e-05
3.61864e-06
-4.94194e-05
2.70697e-05
-1.01421e-06
-4.49675e-05
6.75737e-05
-7.08292e-05
-1.14431e-05
8.5741e-06
8.11912e-06
-5.25012e-06
1.79569e-05
4.61194e-06
-3.40119e-05
1.0426e-05
1.6105e-05
-7.07735e-06
1.38372e-05
1.35924e-06
2.09242e-05
-2.33896e-05
1.32779e-05
-4.64676e-05
4.36156e-05
-3.0463e-05
5.98459e-05
7.75512e-06
-3.32985e-05
-8.87062e-06
-5.32717e-06
3.52043e-07
8.20152e-06
-3.22639e-06
1.72892e-05
-5.54671e-07
-2.20617e-05
-2.18962e-06
1.98308e-05
6.11839e-06
1.83753e-05
-2.50483e-05
3.46016e-05
-2.02817e-05
4.14146e-05
-2.5229e-05
9.58471e-05
-6.06033e-05
-1.99316e-05
-3.59287e-05
0.000116464
1.27217e-06
-5.95735e-05
-2.30199e-06
-2.00421e-05
1.38261e-06
1.98333e-05
9.38468e-06
-4.92601e-05
1.88543e-05
2.36164e-06
9.70999e-05
-3.82793e-05
-0.000118394
-5.59579e-05
0.000117129
8.30858e-06
-3.72032e-05
-2.8795e-05
1.52069e-05
9.84334e-06
-4.71119e-05
-8.30119e-06
-2.35062e-05
1.26621e-06
4.78648e-05
-4.13517e-05
-7.77924e-06
2.42231e-05
-2.38967e-05
9.39869e-07
-4.34648e-05
0.000115553
1.00013e-05
5.45453e-06
-3.93525e-05
1.14557e-05
-5.1455e-07
-7.88916e-06
-2.41199e-05
-4.37864e-05
5.56052e-06
-9.14158e-06
-2.29086e-05
2.64896e-05
-1.76448e-05
-3.28172e-05
5.60224e-05
-1.63881e-05
-1.03983e-05
1.90154e-05
-2.31249e-05
-2.87076e-05
-3.2832e-05
2.89388e-05
1.23949e-06
-5.04596e-05
-3.22837e-05
5.61345e-05
9.22301e-07
-5.42188e-05
-2.83804e-06
-4.06972e-05
-1.23564e-05
0.000109188
-3.94397e-05
-3.3527e-07
1.5589e-05
-1.45115e-05
-5.52963e-05
-1.4788e-05
1.80206e-05
4.97141e-05
1.24801e-05
-0.000101634
5.21241e-05
-2.74523e-06
-1.49241e-05
5.22601e-05
-1.69554e-05
2.06395e-05
-8.75143e-06
6.91192e-06
-1.88e-05
-4.63438e-05
1.46092e-06
6.55224e-05
-2.54544e-05
-2.96409e-05
-3.16219e-05
1.14641e-05
2.70698e-05
2.94165e-07
-5.07161e-05
-3.74091e-05
5.03341e-05
-6.25693e-05
-6.77909e-06
-4.00247e-05
1.35136e-05
3.32902e-05
-2.37324e-05
1.83769e-05
-1.42354e-06
-2.22973e-08
-6.37348e-05
-1.23102e-05
-2.43319e-05
5.5019e-05
-1.44492e-05
7.15443e-07
1.21385e-05
-2.661e-05
1.32017e-06
2.86516e-05
4.00265e-05
3.67594e-05
-0.000105437
-1.24327e-05
1.3551e-05
2.75333e-05
6.08841e-05
5.05252e-05
-4.67658e-05
9.79165e-06
-4.29509e-05
0.000121009
3.01146e-07
-6.20066e-05
1.49396e-05
-3.98402e-05
-2.8095e-06
-0.000100335
0.000121379
-0.000125582
-2.41514e-05
8.62484e-06
5.15202e-05
-3.59936e-05
3.52103e-05
2.96118e-05
-8.89735e-05
3.67943e-05
7.0409e-06
-5.43016e-06
1.57194e-05
4.12309e-05
1.74117e-05
6.76988e-06
-3.00344e-05
-2.06404e-05
8.74691e-05
-4.40572e-05
2.10637e-05
7.53716e-06
-3.41826e-05
2.61623e-06
1.31539e-05
-1.26877e-06
-1.46486e-05
2.76344e-06
-1.6352e-05
-7.08191e-06
3.65878e-05
1.5675e-06
-1.91883e-05
-1.1875e-05
-4.61733e-05
5.09664e-05
-5.51072e-05
2.85836e-05
-5.11896e-05
6.58374e-06
-0.000125485
-7.41218e-06
-2.18867e-06
1.09601e-05
-1.48671e-06
-1.20715e-05
6.14605e-06
-8.92549e-06
3.71737e-05
-8.01112e-05
1.71261e-06
-6.31407e-05
-1.60131e-05
4.58553e-05
2.75068e-05
-8.89349e-05
1.76397e-05
1.97292e-05
-4.54071e-05
-4.01928e-05
-3.17637e-05
0.000117364
-1.1086e-05
-7.62456e-05
4.19246e-05
-4.42437e-05
-7.03514e-06
6.27191e-05
3.05178e-05
-0.000137481
7.08012e-05
-1.51171e-05
8.45689e-05
-0.000130297
0.000123606
-3.12553e-05
-3.0538e-05
-2.0551e-05
8.23443e-05
-6.77763e-06
-4.01962e-05
1.57185e-05
-3.3181e-05
-4.13466e-06
4.97505e-05
1.7885e-05
-0.000100817
5.90915e-05
-1.34757e-05
5.75302e-05
-7.98414e-05
9.60707e-05
4.54177e-06
-2.90993e-06
6.19958e-06
-7.83142e-06
-7.52314e-06
5.98703e-06
6.07789e-06
1.19997e-05
-2.24328e-05
-5.26976e-07
-4.12746e-06
1.06415e-05
-1.11267e-05
1.66776e-05
-3.66688e-07
-2.36235e-06
-1.39842e-06
-5.4061e-06
-6.08732e-06
5.12079e-07
6.0815e-06
4.3493e-06
1.6971e-05
1.01179e-05
8.84967e-06
-3.59386e-05
2.61868e-06
1.86067e-05
-4.25436e-06
8.06384e-06
4.67275e-06
-9.00555e-06
-1.06582e-05
2.77276e-05
-2.46795e-05
2.03467e-05
-2.54511e-05
3.33996e-05
-4.12809e-05
7.59224e-06
-2.72634e-06
1.01288e-05
-1.49947e-05
-7.23427e-06
4.90345e-06
9.92306e-06
1.03914e-05
-2.0352e-05
8.01868e-06
-1.15096e-05
8.39435e-06
-9.87348e-06
2.78152e-05
1.04879e-06
-4.48212e-06
-8.07625e-06
-5.3563e-06
-3.46839e-06
6.83745e-07
4.35132e-06
6.33037e-06
4.48405e-05
3.20716e-06
-4.52846e-05
-2.76309e-06
-4.2489e-05
-5.0966e-05
0.000138296
-4.7672e-05
8.39019e-06
4.35476e-05
5.03831e-05
-0.000139215
4.86594e-05
-7.87488e-06
5.56949e-06
-7.87612e-06
8.28053e-06
1.21896e-06
-3.9196e-05
-1.43747e-06
3.94145e-05
-4.08541e-05
3.85739e-05
3.49922e-06
3.65714e-05
-0.000116622
4.14087e-05
-3.81033e-05
-4.74286e-06
-3.77465e-05
0.00011857
-2.97371e-06
3.80109e-06
-4.50565e-06
-2.7593e-05
1.48474e-05
-2.03144e-05
3.306e-05
4.57722e-05
5.89655e-06
-7.92617e-05
2.15786e-05
3.9041e-05
6.60859e-05
-1.93531e-05
-6.70471e-05
8.43642e-07
9.83022e-05
3.71218e-05
-5.05784e-05
5.9544e-05
2.58374e-06
2.88888e-05
5.54099e-05
-8.68824e-05
3.95167e-05
6.62884e-05
-0.000103221
4.13875e-05
2.7018e-05
-6.57609e-05
5.07618e-05
8.12875e-05
8.98576e-05
-0.000100209
1.46675e-05
0.000116578
9.24473e-05
-3.08276e-05
4.71624e-05
3.01805e-05
-4.65153e-05
9.53648e-05
-2.8192e-05
-9.80004e-05
1.02675e-05
0.00013226
-9.81586e-05
4.18191e-05
8.652e-05
-8.57751e-06
-0.000136096
9.04229e-05
-0.000127192
0.00014251
0.00014315
2.69897e-05
-9.12586e-05
-7.88817e-05
-8.48732e-05
1.33908e-05
0.000214633
2.04472e-05
-7.83307e-05
4.16913e-05
-1.68728e-05
-0.000116077
-1.96174e-05
7.46995e-05
-0.000134975
9.80336e-05
5.73883e-05
-1.75202e-05
-0.000195785
-4.22489e-05
0.000120665
-7.66419e-05
0.000139662
8.64859e-06
-0.000103233
-4.50778e-05
-6.87875e-05
-2.34361e-05
0.000231886
9.38927e-07
-6.10778e-05
-9.14571e-05
8.39923e-05
8.40376e-06
2.16042e-05
-0.000174139
-0.000148118
0.000208674
-0.000229747
-1.29037e-05
-6.88024e-07
-4.13099e-07
1.40048e-05
2.19031e-05
2.08019e-05
-5.56087e-05
2.23421e-05
-1.12702e-06
7.05717e-06
-5.86088e-06
-1.60939e-06
-3.73319e-06
2.47952e-05
4.3547e-06
1.05863e-05
2.29636e-05
-1.9617e-06
1.99553e-05
1.41949e-06
-1.94131e-05
2.26662e-05
-2.43028e-05
-3.25099e-07
-1.50575e-05
5.7679e-05
-1.79636e-05
1.82561e-05
1.93805e-05
-5.67573e-05
-1.04374e-06
-3.87854e-06
2.15485e-06
-2.39783e-06
-1.44781e-05
1.48597e-06
1.53899e-05
-2.33911e-05
2.48874e-05
-3.89413e-06
1.9837e-05
-5.77062e-05
6.10472e-06
-5.03034e-06
4.11592e-07
-5.24929e-06
2.67439e-05
-3.69088e-06
2.33289e-05
1.11158e-05
7.01594e-06
1.57469e-05
4.64484e-06
-2.74077e-05
2.90225e-07
6.65791e-06
6.78033e-08
1.47833e-05
1.25385e-06
4.03418e-06
2.33086e-05
-2.26979e-05
2.03004e-05
-9.60827e-06
-2.26225e-05
1.93995e-06
-1.15707e-05
-2.73326e-05
6.56473e-05
-4.33103e-08
-4.04699e-06
3.32194e-08
-2.19756e-05
-7.55593e-07
-9.50725e-06
-5.88905e-05
-5.3596e-05
-8.67379e-05
-2.81664e-05
0.0001685
-1.01634e-05
-7.79723e-05
3.45397e-05
-8.76195e-06
-8.81393e-05
9.84291e-05
-0.000127023
-4.93789e-05
-0.000179607
0.000249869
-0.000140949
-4.74194e-05
-0.000356111
1.42338e-05
7.72644e-05
-7.61486e-05
-1.53497e-05
2.4818e-05
-3.70302e-05
2.6446e-05
-5.41221e-05
0.000156205
0.000105984
0.000146147
-0.000328279
0.000133629
-4.29951e-05
-3.01282e-05
0.000139245
8.38462e-05
-0.000107661
5.02606e-05
6.61239e-05
-0.000110838
1.10778e-05
0.000109166
-9.40511e-06
0.000184602
6.75637e-05
-0.000363004
0.000148217
4.74629e-05
-4.80202e-05
-6.01224e-08
0.000157246
-4.19462e-05
-1.54791e-05
-2.03307e-05
-4.18554e-05
6.21259e-05
-6.80844e-05
5.80751e-06
8.19723e-05
-8.24929e-05
0.000188334
-0.000196487
-0.000186141
-0.000143565
2.08549e-05
-0.000155216
-5.46376e-05
-0.000110648
-0.000118444
-4.05995e-05
-0.000167275
-0.000109062
-1.5887e-05
1.43011e-05
0.00013211
-0.000323666
-5.10513e-05
-7.1706e-06
9.64504e-05
-3.77509e-05
-5.15289e-05
0.000146657
-5.9379e-05
-9.44482e-05
-0.000152635
-0.000102008
-3.52322e-05
-5.74061e-06
3.22194e-06
5.82126e-06
-0.000100432
8.62341e-05
-0.000233047
-2.15142e-05
3.92349e-05
-3.30937e-05
-3.6192e-05
3.00507e-05
-0.000103079
2.71987e-05
0.000115116
-5.33854e-05
-8.27876e-05
6.256e-05
-7.56305e-06
-9.11889e-05
3.83503e-05
5.42605e-05
2.06153e-05
1.03823e-05
-3.85607e-05
5.9516e-06
5.3014e-05
-2.61729e-05
5.93233e-05
-6.9176e-05
-5.43045e-05
-3.03072e-05
-1.18264e-05
9.64381e-05
4.31385e-06
-4.76645e-05
-1.09538e-05
-3.00067e-05
4.01339e-06
4.40128e-05
1.8252e-05
-9.22714e-05
4.47318e-05
3.29438e-06
6.38161e-05
-9.32287e-05
9.67215e-05
-9.85888e-06
3.05531e-05
7.92802e-06
-2.86222e-05
4.17433e-05
-2.0907e-05
-3.06952e-05
-1.99751e-05
-4.30118e-05
1.97613e-05
3.11785e-05
1.52687e-06
-7.31609e-05
1.53231e-05
-3.47032e-05
1.51094e-05
-1.53659e-06
3.60301e-05
-2.65629e-05
-7.93063e-06
2.63426e-05
-2.25107e-05
-5.36852e-06
-2.64618e-05
8.88345e-05
1.34965e-05
2.94499e-05
-6.54571e-05
2.58966e-05
-1.77686e-05
1.96862e-06
-2.53382e-06
4.85558e-06
-8.80001e-06
-1.27943e-05
7.2981e-06
1.42962e-05
-7.17274e-06
-2.04939e-05
-3.0587e-05
1.01863e-05
2.05431e-05
4.54173e-05
-4.66198e-06
-7.21624e-06
-9.61936e-06
2.14976e-05
-4.79944e-06
-1.78243e-05
1.79618e-05
-7.35668e-06
-4.65901e-06
3.3919e-06
1.29487e-05
-2.36973e-05
2.29113e-05
-2.41784e-05
1.60431e-05
-2.09187e-05
2.9335e-05
1.20026e-05
-5.45631e-06
-2.45773e-05
1.80311e-05
-1.45214e-05
-1.28105e-05
3.93345e-05
-1.61729e-05
-3.80485e-06
2.07351e-05
1.40165e-05
-5.09245e-05
3.30026e-05
-1.60723e-05
-2.91916e-05
4.93837e-05
-3.97525e-05
1.39597e-05
4.61758e-06
-2.45105e-05
5.93324e-06
-8.31349e-06
-6.49282e-06
2.8766e-05
-1.01623e-05
6.46643e-06
2.06935e-05
3.20746e-06
-3.40633e-05
1.72652e-05
9.89479e-06
-2.66994e-05
3.74717e-05
-4.80025e-05
3.89794e-06
3.35132e-06
-2.80177e-06
-4.44749e-06
2.48646e-06
-5.06934e-06
6.48083e-06
1.5504e-06
4.28737e-06
1.6887e-05
-2.05545e-06
-1.99008e-05
1.54218e-06
2.18256e-05
-2.74137e-06
5.83395e-06
-7.59859e-06
4.83791e-06
-1.31545e-05
-6.2954e-06
1.4612e-05
-2.73944e-05
2.2066e-05
1.01664e-05
-5.01012e-06
-3.55388e-05
1.81903e-05
-1.12822e-05
-1.32034e-05
2.418e-06
3.03843e-05
5.25994e-06
-3.04893e-08
-1.65117e-05
-2.64096e-06
1.03189e-05
-7.7564e-06
2.71814e-05
-1.2797e-05
-1.28378e-05
8.26101e-07
1.22437e-05
-2.31982e-07
6.75636e-06
6.09061e-06
-2.56848e-05
2.25052e-06
5.33194e-06
1.55654e-05
8.43038e-06
-1.79052e-05
3.85871e-06
2.39505e-05
4.34221e-06
6.33869e-06
1.35329e-05
-1.21482e-05
1.38779e-05
4.1043e-05
-4.27727e-05
2.03617e-05
2.24761e-05
-5.4986e-05
1.99909e-05
1.42487e-05
-1.19969e-05
-2.07625e-05
5.27504e-05
-3.5651e-05
3.79028e-05
2.98511e-05
-4.3026e-05
5.01316e-05
3.04077e-05
1.1533e-05
-9.26002e-06
-3.26808e-05
-1.43532e-05
2.99857e-06
4.17624e-05
-1.66706e-05
1.38504e-05
2.52214e-05
6.10934e-06
-4.05908e-05
-9.55638e-06
3.77764e-05
4.31227e-05
-5.36839e-05
4.74168e-05
-8.09022e-06
1.25761e-05
3.18079e-05
-3.62938e-05
1.12244e-05
1.54753e-05
-3.47899e-05
1.206e-05
1.17404e-05
4.00543e-06
-2.2376e-05
3.04306e-05
-1.65163e-05
3.22621e-05
-2.12905e-05
3.65821e-05
-2.81912e-05
3.51227e-05
1.16601e-05
-1.19269e-05
-3.4856e-05
-1.6495e-05
5.70032e-06
4.59174e-05
-1.95387e-05
1.47039e-05
2.64499e-05
-2.28949e-06
-3.60873e-05
-1.08659e-05
4.30161e-05
4.68604e-05
-6.86886e-05
5.06984e-05
-5.87126e-05
-5.91446e-06
4.10041e-05
2.3623e-05
1.85178e-05
1.74579e-05
-9.46883e-05
-5.07438e-06
1.76777e-05
4.97016e-05
-4.02706e-05
-1.45054e-05
-1.50535e-05
8.24329e-05
7.12505e-05
3.75993e-05
-9.13919e-05
2.26082e-05
8.96464e-05
8.82675e-06
-1.14981e-05
1.63814e-05
-4.86102e-05
-3.60345e-05
-1.3433e-05
9.80777e-05
-2.45357e-06
-6.0662e-05
-3.91053e-05
6.17185e-07
1.35341e-05
-5.34718e-06
-4.72921e-05
1.40476e-05
1.03681e-07
1.46494e-05
2.1501e-05
-4.14976e-05
4.35836e-05
-1.48866e-05
6.65945e-05
-0.000105756
9.67451e-05
-5.2551e-05
3.11942e-07
4.86289e-05
3.61012e-06
2.00968e-05
4.02996e-05
-0.000112947
2.07452e-07
2.02013e-05
2.98087e-05
-2.64539e-05
-3.14735e-06
-8.09274e-06
5.81027e-05
-3.99054e-06
4.70345e-05
5.58497e-06
3.75902e-05
-1.28108e-06
-5.03816e-05
8.93233e-05
-3.92453e-05
-1.78425e-05
-3.18626e-05
0.000107808
-2.02626e-05
-7.27184e-07
1.93659e-05
8.83837e-06
-4.84669e-05
1.88732e-05
-2.34494e-07
1.43406e-05
-4.47475e-05
5.55578e-05
-2.2344e-05
0.000113019
-4.10561e-05
-1.34712e-07
3.95849e-05
1.60593e-06
3.38041e-05
4.2269e-05
7.67701e-07
3.29017e-05
4.2213e-05
8.23702e-07
-4.19593e-05
0.000117074
-1.55074e-06
2.41051e-05
2.92507e-05
5.83997e-06
-5.91958e-05
-2.81733e-06
2.42997e-05
2.62266e-06
-3.14363e-05
1.85328e-05
-7.48564e-05
4.27509e-05
3.03288e-05
2.30387e-05
-9.61184e-05
5.60469e-06
5.20859e-05
4.69553e-06
3.12379e-05
6.16244e-05
4.88833e-05
1.86974e-05
9.50129e-05
4.43883e-05
9.19058e-06
9.43236e-05
3.96111e-05
1.67457e-05
4.14494e-05
7.84389e-07
-5.84119e-05
-4.8437e-05
-0.000106548
-2.13905e-05
-3.24402e-06
3.51041e-05
-1.19263e-05
-3.22088e-05
-3.35119e-05
-5.98614e-05
-1.38612e-05
-4.24653e-05
2.41177e-05
-2.99135e-05
-1.74596e-05
1.82718e-05
-4.36084e-05
-3.45248e-05
-6.01871e-05
-6.62954e-06
-8.34711e-05
-6.76975e-05
-5.44855e-05
-3.93107e-06
2.42339e-05
3.20846e-05
-7.98002e-05
-5.76822e-07
2.87304e-05
6.47718e-05
-2.0574e-05
1.60715e-05
4.81182e-05
2.5166e-05
3.30245e-05
-7.87646e-05
2.02304e-05
2.10072e-05
2.33546e-06
-3.07432e-05
4.86381e-05
-5.64576e-05
3.12145e-05
-5.46476e-05
4.85895e-05
8.52334e-06
2.28237e-05
2.06996e-05
3.87901e-05
6.53165e-05
2.75222e-07
-6.75742e-05
1.98243e-06
-3.61737e-05
-3.97331e-05
0.000141223
1.35909e-06
-3.72575e-05
-3.47432e-05
3.33325e-05
2.76977e-06
5.03602e-06
-7.70367e-05
-5.63706e-05
4.99699e-05
-0.000118909
-1.55398e-05
-4.47153e-05
7.82064e-06
5.24344e-05
1.80207e-06
-1.74999e-05
1.57959e-07
-4.63971e-05
3.4839e-06
-2.04587e-05
-2.70861e-05
5.53655e-05
-6.21114e-05
2.41528e-05
7.72409e-05
1.56086e-05
-0.000139247
7.50781e-05
5.64668e-06
9.07248e-05
-0.000137228
0.000138717
-2.25903e-05
-5.04603e-05
1.72046e-06
6.62567e-06
1.61666e-05
9.39536e-07
-1.6161e-05
-9.45094e-07
-3.79349e-05
-1.50222e-06
5.56037e-05
7.0685e-07
-3.77022e-05
1.61352e-05
-6.0192e-05
2.78957e-05
-4.23616e-05
5.69946e-05
-3.57714e-05
3.52232e-05
1.25508e-06
1.47545e-06
-7.49491e-05
5.29178e-05
-0.000111634
4.57794e-05
-2.1707e-05
-2.15215e-05
-9.70778e-06
5.29364e-05
-1.11268e-06
-2.04475e-05
-1.46879e-07
-1.98645e-05
1.71735e-05
-6.5498e-05
2.78771e-05
5.74356e-05
4.26169e-05
-0.000139518
-0.00014179
-2.78831e-05
-5.64081e-05
-1.52906e-07
8.74578e-07
1.44271e-05
4.58358e-07
-1.43656e-05
-5.19831e-07
-3.26458e-05
-9.64685e-06
5.67197e-05
-5.12149e-07
-3.16753e-05
8.94433e-06
-5.0911e-05
2.76011e-05
-5.54552e-05
5.47527e-05
-5.31792e-05
-2.78817e-06
-0.000135765
-6.5131e-05
-3.07988e-05
-4.586e-05
-1.01213e-06
-6.57958e-05
1.67698e-06
-3.05559e-05
3.49767e-05
-0.000140482
6.58641e-05
-0.000142522
4.97327e-08
1.85279e-08
-3.08869e-08
5.10435e-05
7.44131e-05
2.53029e-05
-0.00015076
-7.06385e-07
5.60946e-08
5.16938e-05
7.57942e-05
-2.08744e-06
7.72857e-05
-7.55526e-05
-2.48144e-05
0.000153794
-0.000102279
0.000153258
-0.000152529
-7.54004e-05
-5.08574e-05
-2.51771e-05
0.000151435
-6.88837e-08
-7.55594e-05
2.27855e-07
-5.08537e-05
-7.25534e-08
7.56844e-05
2.54346e-05
-0.000151973
7.59904e-05
-3.78581e-07
0.000102053
-0.000152178
0.000152866
1.72328e-05
-6.44011e-06
-2.605e-05
1.52572e-05
-1.03883e-05
-1.30379e-05
4.06591e-05
-7.99732e-06
-8.83112e-06
2.43432e-05
-8.46821e-06
-4.19249e-05
-1.76921e-05
2.89974e-05
2.60747e-06
-1.9073e-05
-2.39158e-05
5.87088e-06
-5.63747e-06
1.50699e-05
-1.53033e-05
-1.25368e-05
1.1594e-05
6.81367e-06
2.14319e-05
-3.96062e-05
-1.89187e-06
-1.87734e-05
3.22593e-05
-1.56987e-05
2.06205e-05
-1.03525e-05
1.60857e-05
-1.4056e-05
-2.05798e-05
-1.66818e-06
1.2389e-05
9.85895e-06
8.70383e-06
3.36442e-06
-3.2648e-05
6.91353e-06
1.22118e-07
1.83875e-05
7.26679e-06
-2.22898e-05
2.16438e-06
2.86121e-05
-1.02576e-05
1.93355e-05
-2.8687e-06
-5.10184e-06
1.01137e-05
-1.07068e-05
5.69485e-06
1.0317e-05
-6.95996e-06
-8.45891e-06
-4.45718e-07
2.08765e-05
-5.36227e-06
5.63229e-06
-7.22997e-06
6.97033e-06
-2.07915e-05
2.5753e-07
3.65901e-06
1.71575e-06
3.21333e-06
4.01453e-06
-2.53871e-06
5.30632e-06
-9.58646e-06
7.58649e-06
-2.18917e-07
-2.25714e-06
-5.11043e-06
7.17367e-07
-7.92095e-07
7.66122e-06
-2.10323e-06
2.60168e-06
1.0755e-05
-7.16336e-06
1.45591e-06
1.19007e-05
1.54673e-06
-1.48206e-06
-7.22803e-06
-9.73328e-07
3.97597e-06
-7.45012e-07
-1.52914e-06
-3.97548e-06
1.496e-05
-3.12895e-06
-1.97319e-05
7.90083e-06
-1.82063e-05
-2.21336e-05
5.52999e-05
-1.77595e-05
-3.57571e-06
-3.55265e-06
-2.22967e-05
6.11746e-06
-1.9649e-05
-6.03724e-06
1.36192e-05
-5.36754e-05
-9.60554e-06
-2.31677e-06
-1.50957e-05
1.2333e-06
1.61792e-05
-4.57726e-06
3.91298e-06
-1.65248e-06
-8.88925e-06
-1.07837e-05
-1.17367e-05
-3.34358e-06
1.89933e-05
-1.87995e-06
-1.15092e-05
1.39312e-05
1.18209e-05
5.96042e-06
-5.29451e-07
2.59975e-06
-8.03072e-06
-4.5219e-07
-3.53622e-06
9.94883e-06
-5.27683e-07
-4.53962e-07
8.10442e-06
2.61974e-06
-8.12441e-06
-1.82115e-06
6.38934e-06
-3.25548e-06
9.06645e-07
-1.08971e-06
2.0957e-05
3.41276e-06
-2.09723e-05
-1.1784e-05
2.74504e-05
-9.1473e-06
7.76052e-07
7.79773e-06
-4.18721e-06
-1.60339e-05
3.38809e-05
2.02878e-05
-3.81347e-05
8.28144e-05
-4.00901e-05
-5.87583e-05
-1.13645e-05
0.00012806
-4.74676e-05
2.45892e-05
4.31662e-05
-6.11566e-06
-7.94867e-05
5.64431e-05
-0.000102649
6.96678e-05
-6.32198e-05
-0.000123566
2.64786e-06
0.000184138
-3.10365e-05
3.13256e-05
-6.35088e-05
-6.02747e-05
-9.43278e-05
-0.000127888
6.56367e-05
9.35766e-05
-4.13423e-06
-0.000187262
0.00013435
-0.000198759
0.000202635
-1.76113e-05
-2.42885e-06
1.59185e-05
4.12162e-06
1.57882e-05
7.54742e-06
-4.09469e-05
1.75966e-05
-4.23731e-06
6.22085e-07
1.25086e-05
-5.58329e-06
1.66315e-05
-9.08397e-08
-2.17828e-05
5.60109e-05
-1.35114e-05
-7.87335e-06
-3.35025e-08
-1.46191e-07
8.05305e-06
1.59977e-05
1.57464e-05
-3.96174e-05
1.57701e-05
1.94093e-07
4.60476e-06
-4.57469e-06
-1.76262e-07
-2.45954e-06
1.51173e-05
3.07888e-06
8.09282e-06
1.63894e-05
-1.763e-06
1.62962e-05
-1.4587e-05
5.37983e-08
1.88096e-05
-1.48308e-05
-5.74176e-06
-1.25288e-05
4.76346e-05
1.26811e-05
1.1461e-05
-3.87291e-05
1.2929e-05
8.14339e-07
-4.18418e-06
1.21454e-06
-6.06321e-06
-2.08924e-05
-1.59948e-05
4.29503e-05
-3.28311e-07
1.09784e-06
-6.83274e-06
-2.05551e-05
-6.65564e-07
-9.74262e-06
1.07903e-05
5.01577e-08
4.44521e-06
-2.10206e-05
1.47887e-05
-3.08986e-05
1.81715e-05
7.40746e-06
1.51122e-06
1.39594e-05
5.65788e-06
-4.06379e-05
1.61692e-05
-2.15958e-06
-2.95872e-05
5.31638e-05
-2.23939e-05
-9.35293e-06
1.96373e-05
-8.09661e-07
-1.67164e-06
-1.7156e-05
-1.69429e-05
-1.90284e-05
-1.8307e-06
-1.59218e-05
-3.22921e-05
3.323e-05
-2.76867e-06
1.00293e-05
-5.82432e-05
-1.88585e-05
-1.84156e-06
3.58235e-05
5.01951e-05
2.20765e-06
2.29108e-05
1.11846e-05
-1.26637e-05
-0.000108348
7.93932e-05
4.16189e-05
-9.31521e-05
9.79558e-05
-1.74674e-05
5.38142e-05
-0.000255315
-0.000126007
-7.42976e-05
0.00029826
-8.19752e-05
-6.14993e-05
3.64818e-05
-6.46428e-05
4.15774e-05
-0.000146673
-0.000120957
-9.53744e-05
1.98998e-05
-0.000106003
-6.057e-05
1.67249e-05
-0.000117782
-0.000142816
0.000109846
4.96949e-05
7.98063e-05
-0.000340404
3.96095e-05
-6.58061e-05
5.40809e-05
2.41845e-05
9.82262e-05
-2.67846e-05
-9.56261e-05
6.31388e-05
-0.000106888
6.79333e-05
-0.000126498
0.000287863
-4.73391e-05
0.000104416
-8.38615e-05
0.000134233
-0.000277198
-4.93765e-05
7.67222e-05
-7.14585e-05
5.23856e-06
-5.35455e-05
-0.000129809
-0.000283787
-2.44437e-05
-0.000109515
5.09121e-05
8.30468e-05
-6.60364e-05
6.31995e-05
-2.16068e-05
1.43113e-05
-0.000189863
-8.65562e-05
-3.13272e-05
0.000181083
-4.50845e-05
-6.30785e-05
5.24147e-05
-8.31879e-05
7.19996e-05
-2.71555e-07
4.58877e-05
-5.31744e-05
7.55824e-06
7.03792e-05
-9.2165e-05
-4.24683e-05
-7.04511e-05
2.01884e-05
-0.000165528
-4.88047e-05
1.38947e-05
-9.90674e-05
-1.64912e-05
9.85706e-06
9.52485e-06
-2.8907e-06
-7.56625e-06
2.52335e-05
1.85027e-06
1.61855e-05
-1.80572e-05
4.90972e-06
3.8381e-05
-2.14275e-08
1.44131e-05
4.91966e-07
-1.76024e-05
6.55163e-06
1.05588e-05
-2.73965e-05
1.26032e-05
1.52854e-05
3.69928e-05
2.61481e-05
3.50888e-06
8.10117e-06
-5.05843e-06
8.03212e-06
8.07992e-06
-1.41365e-05
5.91615e-05
2.01128e-05
1.01337e-05
1.46919e-05
2.20257e-06
-2.70282e-05
9.11702e-06
1.52109e-05
-1.41942e-05
1.80583e-05
5.75063e-06
1.6392e-05
2.15169e-05
-3.57063e-05
2.26766e-05
8.92633e-06
-2.94645e-05
7.01994e-05
-2.19696e-06
3.51832e-05
1.09047e-06
-3.10887e-05
-5.18496e-06
-2.78827e-05
-1.63692e-05
7.9435e-05
-1.27402e-06
-2.55182e-05
-5.98661e-05
2.87958e-05
2.97962e-05
-9.73512e-07
-8.44107e-05
1.27583e-05
-1.02892e-05
-3.35578e-05
-1.09671e-05
7.35624e-06
-6.39744e-05
8.1803e-05
-7.52371e-05
1.86423e-05
3.48269e-05
-5.42858e-06
-4.80407e-05
1.01439e-05
-1.69397e-05
2.54381e-05
2.26341e-05
2.23367e-05
5.32611e-05
-5.21002e-06
-6.49908e-05
5.53833e-06
-3.90707e-05
6.72431e-05
-4.97093e-05
-1.83842e-05
-1.46018e-05
-1.72717e-05
6.65251e-06
-4.47812e-06
-2.05586e-05
-3.32649e-05
2.53156e-05
-2.72157e-05
4.03057e-05
1.68464e-05
-6.46206e-05
-3.60604e-05
7.5971e-06
2.21127e-05
-2.25015e-05
-7.20831e-06
2.34274e-05
2.19219e-05
6.66479e-05
3.06068e-05
-7.63162e-05
-1.53746e-05
3.11318e-05
3.22133e-06
-4.97277e-05
-2.08578e-05
-1.48818e-05
6.68715e-05
7.65851e-06
-2.5295e-05
-4.38765e-05
3.81817e-05
1.33533e-05
1.45652e-05
-8.37368e-05
-5.63057e-05
7.96055e-05
1.56772e-05
5.91204e-07
-1.92046e-05
2.93616e-06
-1.3161e-05
-5.22517e-06
-2.77734e-05
1.52037e-05
3.14498e-05
9.81875e-06
-6.04731e-05
2.48002e-05
9.58573e-06
1.03971e-05
8.44943e-06
-9.02779e-06
6.733e-06
2.84643e-05
-7.83385e-06
9.34168e-06
-2.71579e-05
1.5049e-06
7.5698e-06