/*--------------------------------*- C++ -*----------------------------------*\
| =========                 |                                                 |
| \\      /  F ield         | OpenFOAM: The Open Source CFD Toolbox           |
|  \\    /   O peration     | Version:  v2012                                 |
|   \\  /    A nd           | Website:  www.openfoam.com                      |
|    \\/     M anipulation  |                                                 |
\*---------------------------------------------------------------------------*/
FoamFile
{
    version     2.0;
    format      ascii;
    class       volVectorField;
    location    "0.4";
    object      U;
}
// * * * * * * * * * * * * * * * * * * * * * * * * * * * * * * * * * * * * * //

dimensions      [0 1 -1 0 0 0 0];


internalField   nonuniform List<vector> 
6576
(
(0.0332511 -1.48237 -0.0667914)
(-0.0926287 -1.53604 0.0776875)
(-0.0331963 -1.56782 0.0114885)
(0.0440231 -1.45175 -0.0628717)
(-0.00475076 -1.50758 0.0044444)
(-0.0807972 -1.59906 0.0790096)
(-0.0174532 -1.54783 0.0312417)
(0.0154384 -1.49685 0.00183849)
(0.0177306 -1.2483 -0.00991182)
(0.0177625 -1.45817 0.000327503)
(-0.0116298 -1.51283 -0.016352)
(-0.0174114 -1.55499 -0.0108237)
(-0.00220513 -1.55053 0.0056129)
(0.00736175 -1.48753 -0.000715984)
(0.0616917 -1.45393 0.0238036)
(0.00780801 -1.82197 -0.0336643)
(0.0691394 -0.857211 0.0339549)
(0.0169625 -1.71951 -0.0177414)
(0.0575138 -1.56158 0.0649196)
(0.0177887 -1.47892 0.00273758)
(0.0498193 -1.37505 0.0506103)
(0.00186211 -1.52733 0.0131399)
(0.0102657 -1.46674 0.00797768)
(-0.00494245 -1.49951 -0.0124932)
(0.00182447 -1.59484 0.0191218)
(0.0548602 -1.52827 0.0563812)
(0.0647059 -1.49168 0.0675267)
(0.000603121 -1.45735 0.0139746)
(-0.00580751 -1.58066 -0.031468)
(0.00571926 -0.964244 -0.00816332)
(-0.055103 -1.57764 0.064099)
(-0.0278222 -1.4572 -0.0102354)
(-0.0121212 -1.55602 -0.000401844)
(0.0127911 -1.45972 0.0312563)
(0.0166047 -1.46865 0.0342425)
(-0.0196239 -1.25806 0.00976305)
(0.00194111 -1.64001 0.0122582)
(-0.0142933 -1.56767 0.0102164)
(0.0180411 -1.48205 0.0237754)
(0.0105411 -1.47844 0.01822)
(0.0023936 -1.31727 0.0295268)
(-0.0173521 -1.47764 0.00568588)
(-0.0010694 -1.40879 0.00514433)
(0.674512 2.75862 1.11803)
(0.427212 2.28482 0.466548)
(-0.225237 1.07404 -0.274449)
(-0.0817572 2.14129 0.964441)
(0.276788 2.25029 1.2641)
(-0.0491839 0.992128 0.210511)
(-0.637155 1.46622 -0.0206325)
(-0.552734 1.68175 0.256277)
(0.202143 1.6631 0.756358)
(-0.0388534 0.501795 -0.814778)
(0.145697 0.334183 -0.739941)
(-0.0358669 0.700399 -0.635612)
(-0.00074366 1.22078 -1.10937)
(0.0926253 1.23098 -1.26642)
(-0.0496462 0.887078 -1.14598)
(-0.24863 1.28679 -0.685365)
(0.107367 -0.271553 -0.0294714)
(-0.0217238 -0.201918 -0.236744)
(-0.00858023 -0.270603 -0.118129)
(-0.0464944 -0.129252 -0.0852514)
(0.0553993 -0.575129 -0.181103)
(0.242835 -0.0207395 -0.00526169)
(0.158662 0.287638 -0.0725407)
(0.0269895 -0.351442 0.738272)
(0.0942937 -0.300387 0.70968)
(0.0085338 0.0680755 0.337143)
(0.0393031 -0.741624 0.544759)
(0.0739236 -0.537878 0.452604)
(-0.0115207 -0.747782 0.282205)
(-0.0121634 -1.08753 0.24165)
(0.0191868 -0.758942 0.500438)
(0.323853 -0.73055 0.717861)
(-0.0880732 -1.13376 0.200964)
(0.175882 -0.961828 0.636735)
(0.106388 -0.942678 0.279593)
(0.0575931 -1.23311 -0.105392)
(-0.0406053 -1.36576 0.0919668)
(0.10317 -0.537436 -0.220533)
(0.294164 -0.719607 0.790972)
(0.734246 -1.38385 1.3313)
(-0.0447446 -0.678125 0.374607)
(-0.502048 0.15206 -0.167551)
(0.493706 -1.39905 0.626059)
(0.507679 -1.60013 1.58485)
(0.0815256 -0.384106 0.835437)
(0.260172 -0.351739 1.03832)
(-0.0116655 -0.742461 0.298869)
(0.0532764 -0.638875 0.546426)
(-0.0622627 -0.646061 0.356091)
(0.298968 -0.179098 1.22404)
(0.0758558 -0.267575 0.886859)
(-0.0966208 0.048853 3.91197)
(-0.022085 0.321545 4.83258)
(0.026735 0.0232158 3.56109)
(-0.183889 0.745062 4.89009)
(-0.0264912 0.372654 5.00219)
(-0.0666959 0.095457 3.97802)
(-0.219698 0.277561 4.12521)
(-0.0140418 -0.0379541 3.14688)
(0.0439124 0.0634758 2.79772)
(0.0175639 0.126519 2.43974)
(0.0379019 0.136964 2.89042)
(-0.0752419 0.0273931 3.06602)
(0.0259876 0.105626 2.71008)
(-0.0559988 0.016512 2.8222)
(0.129917 0.267094 1.94245)
(0.0323888 0.545619 0.963575)
(0.114084 -0.132348 0.972315)
(0.0117671 0.835384 1.97072)
(0.512905 0.154772 0.725179)
(0.134782 0.410564 0.544386)
(0.0707538 -2.26828 0.072649)
(-0.00342142 -2.638 0.0241557)
(0.0835456 -2.60961 0.0418331)
(-0.0321518 -2.69463 0.0304913)
(-0.0406748 -2.7753 0.0609597)
(0.0463345 -2.76639 0.0459514)
(0.0465347 -2.66559 0.103684)
(-0.0139939 -1.53858 -0.00407544)
(0.0561387 -1.61317 0.0544688)
(-0.0134361 -1.52325 -0.018944)
(0.0212365 -1.57866 -0.0310067)
(-0.0587186 -1.57491 -0.0248603)
(0.114906 -1.70957 0.119268)
(0.00856736 -1.56187 0.0291894)
(0.0127936 -7.10821 -0.0315507)
(0.00197118 -6.99035 -0.0335129)
(0.0105378 -6.95723 -0.0169855)
(0.0291314 -6.94412 -0.0453578)
(0.0452123 -7.06817 -0.0505815)
(0.0291893 -6.59974 -0.03447)
(0.0253294 -6.90507 -0.0274203)
(-0.0146489 3.69148 1.71921)
(-0.0105724 3.79653 2.08545)
(0.0312008 3.66265 1.80357)
(0.0313224 3.63682 1.83381)
(-0.0221826 3.9504 2.19443)
(-0.0373571 3.82794 2.18432)
(0.0575447 3.76835 1.93436)
(0.0974561 0.8092 0.196065)
(-0.000815904 0.522985 -0.310289)
(0.217326 1.25435 0.434139)
(0.0401967 0.595109 -0.612767)
(0.100333 1.06084 -0.425359)
(0.163713 1.64247 0.54572)
(0.357951 1.4854 -0.0286118)
(0.129931 0.580856 -0.074416)
(-0.00346735 0.687569 0.130958)
(0.0625472 0.81044 -0.0252284)
(0.100089 0.235782 -0.174702)
(-0.0248005 0.703903 -0.211957)
(0.272721 0.832978 -0.339675)
(0.487366 0.304222 -0.484361)
(0.0253397 0.618026 0.101105)
(0.0718975 0.57311 0.255502)
(0.0108866 0.427369 0.281791)
(0.0340676 0.427899 -0.0280277)
(0.0635244 0.442592 0.251555)
(-0.0565982 0.113425 0.210214)
(0.0677887 0.216077 0.0114484)
(-0.0374606 0.177053 0.240989)
(0.0363191 0.265511 0.045237)
(-0.00879903 0.6052 0.578754)
(-0.105496 0.57714 0.610048)
(-0.0392639 0.480137 0.427031)
(0.148956 0.653954 0.223905)
(0.0210136 0.698592 0.390151)
(0.012183 0.688884 0.42943)
(0.168588 0.58293 0.248287)
(0.0395882 0.110526 0.379643)
(0.205963 0.265533 0.324797)
(-0.00208866 -0.316556 0.467097)
(0.115538 0.156823 0.273011)
(0.308628 0.125055 0.142695)
(-0.0220944 -0.394551 0.465929)
(0.17085 -0.381656 0.387815)
(0.449465 0.306444 0.122211)
(0.0560459 0.0468115 0.462186)
(-0.0124056 -1.34615 0.496187)
(-0.000927624 -1.40186 0.389212)
(0.00640365 -1.19229 0.472188)
(0.081069 -1.40241 0.396754)
(0.156325 -1.42179 0.229282)
(-0.032286 -1.26618 0.247103)
(0.0181587 -1.2214 0.342125)
(-0.000942072 -1.378 0.338429)
(-0.0381773 -1.43564 0.262418)
(-0.0140027 -1.61608 0.268641)
(-0.0094592 -1.52002 0.303399)
(-0.00164526 -1.57263 0.287203)
(0.0806768 -1.4452 0.391572)
(-0.0271396 -1.41962 0.417293)
(0.0301299 -1.48287 0.338898)
(-0.0436862 -1.44246 0.360989)
(0.0358933 -1.84047 0.154642)
(0.0459412 -2.00335 0.195591)
(0.0657095 -2.0254 0.122215)
(-0.147626 -1.762 0.213524)
(-0.152722 -1.77464 0.224388)
(-0.0762038 -1.81262 0.16493)
(-0.040308 -1.92881 0.0752284)
(-0.0277345 -2.27778 -0.199951)
(-0.0414814 -2.26704 -0.055178)
(0.0914803 -2.33548 -0.222045)
(0.100917 -2.07428 0.0940285)
(0.102667 -1.98098 0.274937)
(0.0103591 -2.12142 0.226886)
(0.0568245 -2.08806 0.0480897)
(-0.0348642 -6.95665 -0.100276)
(0.0115666 -6.8669 -0.109049)
(0.0258531 -6.85569 -0.16269)
(-0.0359546 -7.04171 -0.222467)
(-0.108674 -7.14639 -0.267619)
(-0.123277 -7.14644 -0.185188)
(-0.0362537 -6.80573 -0.142868)
(-0.0194318 -1.25925 0.207333)
(-0.00892391 -1.28787 0.2027)
(-0.00483141 -1.34115 0.207663)
(0.0179004 -1.19505 0.305061)
(0.0912792 -1.16449 0.367925)
(0.0324992 -1.21618 0.316203)
(-0.0206912 -1.23681 0.286521)
(0.0191041 -1.15237 0.41396)
(-0.00196586 -1.16093 0.32368)
(-0.000955882 -1.05278 0.480915)
(-0.0613917 -1.02007 0.312838)
(-0.111292 -0.95588 0.383023)
(-0.0581435 -0.98344 0.445845)
(-0.0133622 -1.07374 0.353167)
(-0.0182666 -0.982712 0.405426)
(-0.0363768 -0.891181 0.469415)
(0.0219649 -0.829723 0.558058)
(0.0125853 -1.08084 0.496034)
(0.0406215 -1.24367 0.445707)
(0.0175544 -1.01324 0.477756)
(0.0299909 -0.897181 0.546528)
(0.0162449 -0.102634 0.64279)
(0.00253252 -0.179808 0.526988)
(-0.00836975 -0.166805 0.684766)
(-0.0329095 -0.391493 0.575487)
(-0.00382256 -0.317384 0.603023)
(0.0136353 -0.346114 0.609008)
(0.0337463 -0.24644 0.645669)
(-0.00751944 0.279754 0.836489)
(-0.0768104 0.579456 0.692416)
(-0.0587614 0.53991 0.792695)
(0.00104874 0.233247 0.82568)
(-0.00997323 0.128206 0.708079)
(-0.0249829 0.308129 0.713816)
(-0.0472266 0.283135 0.55273)
(-0.0161507 0.454212 0.567237)
(-0.0474399 0.492598 0.683022)
(-0.01276 0.943626 0.399523)
(0.0455089 0.914341 0.00993404)
(-0.0565791 0.967927 0.225266)
(0.00684617 0.731325 0.320227)
(-0.0158771 0.886389 0.447606)
(0.0871688 0.763652 0.0902575)
(-0.0528364 0.793101 0.133865)
(0.0857097 1.09024 0.150827)
(-0.0565281 1.8478 0.776954)
(-0.180611 2.0266 0.886823)
(0.127226 0.972887 0.0145962)
(0.0361247 1.05207 -0.00614676)
(0.1352 1.40904 0.405362)
(0.155733 1.30882 0.432908)
(0.271303 0.0598779 -1.12698)
(-0.380832 0.344846 -1.86808)
(-0.0203656 0.490474 -1.21827)
(0.155709 0.0499612 -1.2293)
(-0.251962 0.446629 -1.70762)
(-0.00622583 0.797704 -1.38723)
(0.20847 0.786191 -1.26554)
(-0.120927 0.713453 -1.61703)
(0.194143 0.39527 -1.05133)
(-0.124331 1.38831 0.226941)
(0.253774 0.684131 -0.110824)
(0.0862315 1.44048 -0.0563406)
(0.241483 0.896283 -0.0542254)
(0.266281 1.69098 0.152987)
(-0.185392 1.38481 -0.601659)
(0.000460544 1.75535 -0.169502)
(-0.012606 2.19347 -0.04279)
(-0.0115044 2.14166 -0.0303917)
(-0.017497 2.1544 -0.115714)
(-0.0279623 2.03592 -0.228929)
(0.026142 1.95937 -0.140725)
(-0.087239 2.15656 -0.0512767)
(-0.055466 2.20524 -0.0275915)
(-0.045794 2.20596 -0.0782983)
(-0.00160343 2.22336 -0.0102131)
(0.306712 0.910428 -0.190447)
(0.388429 1.39134 -0.123005)
(0.23945 0.910176 -0.159759)
(0.0362073 2.03618 -0.0934004)
(-0.0771378 1.76954 -0.00279079)
(-0.0257093 2.17422 -0.077143)
(0.00133159 1.79961 -0.0554084)
(-0.0520775 2.0341 0.120457)
(-0.0267404 2.1914 -0.113705)
(-0.0373157 1.85963 -0.179102)
(-0.00828391 0.507792 1.04576)
(-0.0395709 0.489463 1.02495)
(0.00728633 0.584235 0.966388)
(-0.0356019 0.496859 1.05439)
(-0.0145077 0.561449 0.986182)
(0.025196 0.637319 0.949188)
(0.0157772 0.620601 0.987539)
(-0.0457314 -2.06483 -0.0675209)
(-0.0450632 -2.04673 -0.056881)
(0.0240149 -2.01735 0.0216683)
(-0.036569 -2.01427 -0.0660722)
(-0.022141 -2.0031 -0.0395676)
(0.02622 -1.93508 0.0168675)
(0.00778397 -1.87261 0.0469795)
(0.0389495 -1.93859 0.011709)
(0.065588 -1.93937 -0.062953)
(-0.0575024 0.545141 0.967076)
(0.112276 0.65044 1.06527)
(0.112826 0.568892 1.37042)
(-0.110858 0.469594 0.844043)
(-0.121974 0.3459 0.965625)
(-0.174198 0.645497 1.07209)
(-0.12592 0.43716 1.18427)
(0.00959478 1.51958 -0.581205)
(0.0814046 1.79799 -0.00935881)
(0.064613 1.19088 -0.627203)
(-0.621015 1.04891 0.567502)
(-0.438011 0.639438 0.720823)
(-0.193596 0.361353 -0.177002)
(-0.602265 0.982768 -0.0435645)
(-0.293473 2.09909 -0.570292)
(-0.153301 2.14438 -1.00194)
(-0.117226 1.66545 -0.625244)
(0.634304 2.28648 -0.190122)
(0.328473 2.35209 -0.305813)
(0.397245 2.41319 -0.133595)
(-0.0905528 2.3729 -0.00418771)
(-0.0119578 2.30399 -0.0453902)
(0.223018 2.41495 -0.0684709)
(0.102507 1.76937 -0.545498)
(-0.207832 1.70333 -0.921883)
(0.0122913 1.80369 -0.356326)
(0.221228 1.51186 -0.640479)
(-0.230337 1.58138 -0.993032)
(0.00791013 1.60537 -0.39518)
(-0.0882607 1.55183 -0.458068)
(-0.0339862 1.46787 -0.551684)
(0.0417146 1.54463 -0.450087)
(0.0971027 0.0900529 -2.84039)
(-0.207927 -0.103678 -1.90032)
(-0.352401 -0.075098 -0.748094)
(-0.324454 -0.107206 -2.5924)
(-0.0124008 0.16633 -2.93584)
(-0.248085 -0.100686 -2.02463)
(-0.0205633 0.094357 -2.28177)
(0.174361 -0.0659913 -0.245034)
(-0.0538738 0.0975261 -1.04449)
(0.27368 0.0154264 -0.187335)
(-0.257624 0.122574 -1.26416)
(-0.254121 0.32847 -1.51361)
(-0.0137947 0.788587 -1.58576)
(-0.116051 0.509216 -1.68542)
(-0.010894 0.892702 -1.04307)
(0.223332 0.539247 -0.760169)
(-0.0462945 0.690042 -2.22756)
(-0.0924969 0.803633 -2.20223)
(0.00587957 0.481844 -2.38688)
(0.0408367 0.254327 -2.59605)
(-0.0197488 0.334888 -2.43017)
(0.0032705 0.642011 -2.39824)
(-0.0395543 0.509069 -2.32592)
(0.0179808 0.299576 -1.5464)
(0.00594706 0.361969 -1.13983)
(0.0174526 0.304859 -1.86384)
(-0.0185659 0.168681 -1.81958)
(0.0423827 0.311006 -2.24387)
(-0.0809626 0.271844 -1.3483)
(-0.0286287 0.322917 -1.82611)
(-0.0622357 -0.204688 0.257609)
(-0.00477378 -0.175421 0.357879)
(0.030006 -0.254368 0.401031)
(0.0576001 -0.192788 0.182693)
(0.0406372 -0.329364 0.38054)
(-0.00245355 -0.123319 0.127977)
(0.0929454 -0.342869 0.424055)
(0.0995239 -0.258073 0.408736)
(0.0234342 -0.184547 0.17249)
(0.0611873 0.0335329 0.65264)
(-0.0137844 -0.03676 0.57206)
(-0.00276645 -0.243447 0.493988)
(-0.0667188 -0.329146 0.603119)
(-0.0569422 -0.363039 0.699385)
(-0.0349432 -0.180121 0.694332)
(0.00812043 -0.23799 0.748004)
(-0.00805702 -0.298575 0.326343)
(-0.00684369 -0.452655 0.366383)
(0.0404904 -0.204974 0.36329)
(-0.0181614 -0.500575 0.184332)
(0.0063073 -0.50905 0.23322)
(-0.00949221 -0.347692 0.19562)
(0.0382583 -0.443674 0.311401)
(0.0369261 -0.261464 0.396884)
(-0.0086955 -0.283255 0.332369)
(-0.0149601 -2.46113 -0.144872)
(0.00414212 -2.60899 -0.124056)
(0.0318652 -2.65012 -0.135666)
(-0.0251874 -2.59879 -0.163492)
(-0.0285786 -2.72511 -0.140243)
(-0.0142246 -2.70519 -0.148254)
(0.00294124 -2.61405 -0.162524)
(0.00125251 -2.24018 -0.0686141)
(0.0024246 -2.21357 -0.0626545)
(0.00052177 -2.20423 -0.0704425)
(-0.000607233 -2.20013 -0.0823917)
(-0.0121492 -2.23335 -0.0825539)
(-0.0218128 -2.24366 -0.0922173)
(-0.00317959 -2.18808 -0.0818009)
(0.0158057 1.04638 1.69999)
(0.0234241 0.687391 1.5167)
(-0.017875 0.76674 1.52025)
(0.0691849 1.33404 1.77774)
(0.0657184 1.33849 1.82742)
(0.0985239 1.06247 1.66327)
(0.0997755 1.11711 1.68829)
(0.120813 1.67968 2.02868)
(-0.126444 1.01854 1.92666)
(-0.0773072 1.52911 2.27067)
(-0.14477 1.70898 1.75528)
(0.233148 1.9226 1.99987)
(0.15057 2.00673 2.20469)
(-0.148166 1.92062 1.9564)
(0.0126466 2.75444 1.7283)
(0.0806423 2.15945 1.86488)
(0.0778845 2.47734 1.81834)
(0.0229625 2.76209 1.63688)
(-0.0659251 2.503 1.59522)
(0.0182186 2.45899 1.78521)
(0.0245343 2.65619 1.74572)
(0.0318389 3.77542 1.53724)
(0.0235748 4.03295 1.32349)
(0.0119818 4.18976 1.02023)
(0.0553183 3.90348 1.57748)
(0.0523736 4.0458 1.43947)
(-0.0360327 3.91294 1.14845)
(0.0330639 3.7342 1.43595)
(0.035505 4.00891 1.41668)
(0.167421 3.90076 1.76636)
(0.324888 5.18431 0.996413)
(0.0817416 4.30439 0.722849)
(-0.104769 3.14878 0.229832)
(-0.100368 3.04881 0.186971)
(-0.136653 3.27887 0.226388)
(-0.18478 3.84267 0.806807)
(-0.0181163 4.37185 1.01881)
(-0.026922 0.867833 0.0335639)
(-0.0450809 1.0592 0.0632837)
(0.00356597 1.00751 0.0248581)
(-0.0954301 1.18665 -0.0495522)
(-0.0709935 1.17785 -0.0203938)
(-0.0563608 1.14545 0.0148157)
(-0.0399406 1.11362 0.0249192)
(-0.0225561 1.05433 0.150052)
(-0.0663835 1.43421 0.0177209)
(0.0874535 1.10053 -0.0195864)
(0.0359736 0.980739 -0.0291728)
(-0.0403419 1.08892 0.0383705)
(-0.0219303 1.18848 0.0106653)
(0.193143 0.85052 -0.166414)
(0.00756702 1.29774 0.211364)
(0.0204858 1.19532 0.0544932)
(-0.0605669 1.06319 0.0570999)
(-0.0735469 1.07424 -0.0171526)
(0.0227227 1.30072 0.083999)
(0.0719495 1.19551 -0.018817)
(-0.0469521 0.967822 0.0244034)
(0.00402396 1.32785 -0.044964)
(0.0205626 1.36422 -0.00721677)
(0.00261175 1.16885 0.0286783)
(-0.04759 1.15421 0.0446426)
(-0.0374871 1.0987 0.0253369)
(-0.0746761 1.10352 0.0655834)
(-0.0988574 1.14595 0.0303605)
(0.0531386 1.22336 0.0124817)
(0.00313603 0.968802 0.00678737)
(0.142393 1.14308 -0.0581427)
(-0.0173209 0.945997 0.0112333)
(-0.0828141 0.680192 0.026329)
(0.0196996 1.09739 -0.0206954)
(-0.161426 6.51883 1.60204)
(-0.649154 5.89072 1.92044)
(0.250942 7.26782 1.09099)
(-0.310028 6.15827 1.33352)
(-0.066941 6.53935 1.15575)
(0.176138 7.05341 0.865656)
(0.17753 6.9199 1.05816)
(-0.0557705 5.74183 1.21786)
(-0.136692 5.86918 0.758407)
(-0.0498947 5.73177 1.0633)
(-0.167667 6.34718 0.540124)
(0.157037 6.41961 0.601564)
(-0.144938 6.326 0.646373)
(-0.16952 6.17074 0.983264)
(-0.526132 5.77688 0.906643)
(-0.123558 6.17402 1.24747)
(-0.509443 6.04059 1.40422)
(0.0108186 6.91538 0.642965)
(0.0113154 6.87744 0.897999)
(0.0881098 7.02012 0.892149)
(-0.0336279 6.732 0.600036)
(-0.0689293 6.34358 0.70667)
(0.00390929 6.74182 0.86096)
(-0.103918 6.50324 0.971875)
(-0.0543197 6.50544 0.996735)
(0.0596826 6.8623 0.946562)
(-0.0255318 6.4342 0.63322)
(0.0080766 6.79098 0.90529)
(-0.0335236 6.28827 0.723724)
(-0.00285321 5.69414 0.730312)
(-0.0685394 6.15104 0.87976)
(-0.0148119 6.17774 0.718992)
(-0.026781 6.13902 1.07264)
(-0.0369725 5.86703 0.925467)
(0.0358275 6.74761 0.913252)
(0.0634359 5.06855 0.239439)
(0.0489014 5.30688 0.749519)
(-0.0232881 4.6722 0.38467)
(-0.0271392 5.21434 0.312709)
(-0.0910498 5.46764 0.687597)
(-0.080589 4.49978 0.595586)
(0.0698145 3.80871 0.338137)
(-0.0441397 1.90206 1.59516)
(0.0708048 1.83784 2.11649)
(0.0324994 1.45366 2.32512)
(-0.200632 0.393381 1.72668)
(-0.010472 1.07333 1.50624)
(-0.247287 0.517132 2.10344)
(-0.125772 0.907332 1.80233)
(-0.00943705 1.44474 2.12583)
(-0.0480264 1.0881 2.1942)
(0.0248013 0.361857 1.75222)
(0.0796016 0.123069 1.82568)
(-0.00751385 0.454874 1.51362)
(-0.0584957 -0.308626 1.76504)
(-0.0523822 0.0603077 1.7512)
(-0.00823927 -0.0725324 1.76831)
(-0.0544421 0.128504 1.83263)
(-0.0209702 -0.409208 1.85378)
(-0.0323514 -0.547265 1.46567)
(-0.101094 -0.451649 1.65296)
(-0.00746917 -0.591743 1.42198)
(-0.0633749 -1.022 1.39847)
(-0.228637 -0.627146 1.19174)
(-0.189269 -0.475996 1.42885)
(0.215756 0.35126 1.85377)
(-0.0408997 -0.19003 1.24015)
(0.0359493 0.185746 1.62611)
(-0.019113 -0.287635 1.25714)
(0.00209058 -0.300269 1.21634)
(-0.0101381 -0.0185986 1.48466)
(0.0970817 -0.0405809 1.47586)
(-0.0197134 0.50044 0.845755)
(-0.0127518 0.410898 0.58486)
(-0.00444169 0.213104 0.601251)
(-0.0213085 0.418832 0.84139)
(-0.0400076 0.515403 0.822664)
(0.0379976 -0.270098 0.33803)
(0.000383862 -0.300167 0.325172)
(0.00446527 -0.222293 0.374958)
(-0.0193679 -0.576149 0.43072)
(0.0620061 -0.426079 0.5368)
(-0.0246796 -0.537549 0.39914)
(0.0470008 -0.453976 0.478312)
(-0.0109423 -0.588582 0.316187)
(0.0381555 -0.703025 0.320545)
(0.0163971 -0.864764 0.256268)
(-0.00183247 -0.952556 0.36682)
(0.0518375 -1.0872 0.300625)
(0.0361417 -0.893828 0.369747)
(-0.0174311 -0.748069 0.378042)
(-0.195885 -0.847508 0.0886674)
(-0.0616697 -0.607666 0.0359479)
(-0.0139055 -0.511009 -0.310541)
(0.00806179 -0.5947 -0.297372)
(0.129915 -0.5834 -0.173405)
(0.00979007 -0.698791 0.0131141)
(-0.132704 -0.880325 0.0513069)
(-0.0815663 0.0610605 -0.0870117)
(-0.0353155 0.204893 -0.259744)
(0.0319085 0.073205 -0.0711976)
(0.0281757 0.331825 -0.395073)
(0.0519392 0.283837 -0.35132)
(0.0378844 0.0593037 -0.0617441)
(-0.107714 0.173187 -0.134649)
(0.0246375 0.131884 -0.806774)
(0.0763504 0.209287 -0.83746)
(0.059291 0.381293 -0.658704)
(-0.165004 0.257356 -0.30573)
(-0.00228564 0.207978 -0.571483)
(-0.241196 0.334941 -0.255033)
(-0.0616662 0.27686 -0.506116)
(0.123696 0.300962 -0.745003)
(0.123675 0.454379 -0.532603)
(-0.0621448 0.433878 0.000415386)
(0.0737238 0.488543 -0.00464191)
(0.00553101 0.292992 0.00446137)
(0.213433 0.354112 0.0624865)
(0.186334 0.297281 -0.0668622)
(0.106208 0.235289 -0.0967696)
(0.0581665 0.211018 -0.258493)
(0.0497392 0.81226 1.0837)
(-0.14227 0.976089 1.04513)
(0.000679597 0.803158 1.09843)
(0.0928742 0.759887 0.887992)
(0.0391654 0.734374 0.830725)
(-0.0200905 0.795206 0.817356)
(0.0635606 0.786997 0.84464)
(-0.0189782 0.800559 0.618019)
(-0.0025219 0.802686 0.608119)
(0.00426726 0.845324 0.677654)
(-0.0426573 0.883228 0.756431)
(0.0271273 0.870718 0.674989)
(-0.000102094 1.03419 1.00487)
(-0.0443729 1.02873 0.923747)
(0.0051112 0.696829 0.824392)
(0.0395509 0.584598 0.649973)
(0.00364543 0.729588 0.668524)
(0.0340688 0.590517 0.488177)
(0.038455 0.683374 0.566482)
(0.0442459 0.630439 0.642206)
(0.0320872 0.471513 0.521349)
(0.0396401 1.02508 0.665225)
(0.0461227 0.889729 0.692466)
(0.0191952 0.910261 0.733135)
(0.0933081 1.16597 0.685837)
(0.132949 0.889732 0.679944)
(0.0844301 1.33424 0.828901)
(-0.060256 1.1236 0.952092)
(0.0778667 1.65678 0.405621)
(0.0381278 1.79108 0.305936)
(-0.00408284 1.50714 0.409643)
(-0.102726 1.80477 0.306251)
(0.0262984 1.57461 0.255412)
(0.0268101 1.70004 0.257191)
(-0.0327084 1.73774 0.428879)
(0.0287489 1.75415 0.213953)
(0.263808 1.35837 0.0487749)
(-0.0500279 1.86633 0.176599)
(-0.147472 1.85767 0.257762)
(0.113633 2.13084 0.0137733)
(0.0451255 2.31627 0.0943221)
(0.0225806 2.32622 0.0310547)
(0.110508 2.09395 -0.0738157)
(0.148902 1.90406 -0.107425)
(-0.0625315 1.92626 0.113963)
(0.0117046 1.85984 -0.0325887)
(0.0567727 2.1149 0.0494307)
(0.0799153 2.11486 0.047902)
(-0.0112037 2.09939 -0.151567)
(0.0312552 2.12819 0.185286)
(0.0300364 2.09663 0.0898897)
(-0.0522301 2.03928 0.0530259)
(0.140801 2.00814 0.173822)
(0.019519 2.10072 0.149792)
(0.110775 2.14082 0.176628)
(-0.0307273 2.08194 0.105548)
(-0.135085 1.82589 -0.0255993)
(-0.00760117 2.30329 -0.0177676)
(-0.00833338 2.31745 -0.00391024)
(0.0171264 2.23504 0.0601799)
(0.0147694 2.2263 -0.00281511)
(0.0110193 2.14306 0.115758)
(-0.0735807 2.22714 -0.0314922)
(-0.0458831 2.22723 -0.0200097)
(0.00620483 1.50779 -0.00311012)
(0.0235834 2.52174 0.0460173)
(-0.017103 2.24105 -0.0383143)
(-0.082987 2.40604 -0.104106)
(0.0274842 2.24218 -0.0217462)
(0.0184547 2.43951 0.122585)
(-0.0181712 1.89885 0.0290262)
(-0.0433712 2.25087 -0.0300655)
(-0.0183152 2.11064 -0.198959)
(-0.0681993 1.82113 -0.420152)
(0.0830783 1.95084 -0.395741)
(-0.0331176 1.75175 -0.223815)
(-0.0464338 1.68205 -0.321235)
(0.0442158 1.81837 -0.225142)
(-0.0816788 1.69142 -0.118461)
(-0.0154011 1.7255 -0.10079)
(0.00478507 2.21389 -0.0396565)
(-0.00746375 2.32631 0.142438)
(-0.0917961 2.11725 -0.0288071)
(-0.100324 1.89581 -0.22507)
(-0.0560724 2.0464 -0.24061)
(0.0116413 2.2099 -0.291638)
(0.00498482 1.88452 -0.106166)
(-0.0246445 1.86693 -0.222836)
(0.312753 2.3974 -0.0807846)
(-0.160743 2.11579 -0.505627)
(-0.0481525 1.63298 -1.01337)
(0.588613 2.82113 0.0284294)
(0.128042 2.12695 -0.752024)
(0.176555 1.58721 -1.39876)
(-0.0989823 1.66767 -1.29731)
(0.191459 1.48138 -0.457099)
(0.218552 1.53483 -0.667336)
(0.171345 1.53786 -0.588697)
(-0.65374 2.41004 -0.270605)
(-0.0672198 1.7865 -0.453585)
(-0.00291424 0.865511 -1.35145)
(-0.000209397 1.07281 -1.47579)
(-0.0412624 1.02845 -1.35427)
(-0.0603816 1.31764 -0.957077)
(0.253346 1.55133 -0.720355)
(0.348626 1.74499 -0.652986)
(0.0138629 1.22207 -0.947454)
(0.0343712 0.236193 -2.28536)
(-0.341946 0.394362 -1.67359)
(-0.337147 0.0517017 -1.65012)
(0.0347334 0.0215969 -2.61515)
(0.0167652 0.0166752 -2.63786)
(-0.0209457 -0.0281643 -2.71516)
(-0.015846 -0.100843 -2.72851)
(-0.0154468 -0.064056 -2.80925)
(0.000718395 0.0124736 -2.68806)
(0.0341944 0.01358 -2.68419)
(0.0447124 0.0895379 -2.51571)
(0.151556 -0.110127 -2.70492)
(-0.0214982 0.179456 -2.42833)
(0.0339141 0.0916659 -2.64017)
(0.00923095 0.0159796 -2.57212)
(-0.00474607 0.0380539 -2.59064)
(-0.0181761 0.104924 -2.61723)
(-0.00881209 0.000307648 -2.5452)
(-0.0146477 0.0396579 -2.58762)
(0.026578 0.0891282 -2.41571)
(0.0285786 0.0198854 -1.76285)
(-0.0288023 0.0893866 -2.50288)
(-0.0247222 -0.036043 -2.52398)
(-0.0106648 -0.0238182 -2.66435)
(-0.0172405 0.00749007 -2.17911)
(-0.01534 -0.0015476 -2.65737)
(-0.0421916 -0.0439827 -2.71983)
(-0.0520058 0.00433466 -2.65664)
(-0.0828664 0.0335904 -2.66395)
(-0.0258452 0.00216955 -2.66372)
(-0.0337898 -0.0171826 -2.69253)
(-0.0172659 0.0521101 -2.43074)
(0.0624885 0.0994305 -2.52632)
(-0.114208 -0.0429904 -1.78616)
(0.00289769 0.0367392 -2.55142)
(0.0115696 0.000473609 -2.65144)
(-0.0280053 -0.0679353 -2.5519)
(0.0168577 0.018077 -2.62175)
(0.0135707 -0.0125807 -2.57679)
(-0.0123622 -0.00642735 -2.62264)
(0.00451222 0.00452031 -2.70581)
(-0.0242466 0.0166523 -2.69506)
(-0.0194049 0.00962439 -2.67657)
(0.00643707 -0.0151178 -2.5698)
(0.00319517 -0.0418741 -2.56775)
(-0.0249029 -0.00880576 -2.58672)
(-0.0146714 -0.0349922 -2.55863)
(0.011634 -0.0641682 -2.52019)
(0.0252611 0.0355157 -2.65222)
(0.0206872 0.0110041 -2.65465)
(-0.00434535 0.0923783 -2.63162)
(-0.0566881 0.0580825 -2.64101)
(-0.00805883 -0.00521403 -2.65459)
(-0.0133518 -0.01067 -2.6355)
(-0.0222801 -0.0161657 -2.63419)
(0.00197333 -0.0102106 -2.84253)
(-0.00430438 -0.0328108 -2.88028)
(0.00674765 -0.060423 -2.74396)
(0.0188398 0.0547543 -2.85509)
(0.0262655 0.00924255 -2.88014)
(0.0236161 0.0155601 -2.85979)
(0.0288036 0.0482357 -2.88303)
(0.000434331 -0.00708262 -2.85168)
(-0.00280218 -0.008069 -2.76439)
(0.00658635 0.00550671 -2.85829)
(0.00892707 0.00124134 -2.85271)
(0.00854954 0.0307731 -2.81708)
(0.012899 -0.0224228 -2.86679)
(0.00175799 -0.012632 -2.84746)
(0.111616 -0.24886 -0.994593)
(0.0337167 -0.411861 -0.76588)
(-0.0590312 -0.424758 -0.284334)
(0.0516351 -0.211877 -0.844759)
(0.00601303 -0.413011 -0.550637)
(-0.0835636 -0.199565 -0.289456)
(-0.0244694 -0.456189 -0.13941)
(-0.0197043 -0.787466 -0.269801)
(0.00674376 -0.66618 -0.384669)
(-0.0048248 -0.760191 -0.308137)
(0.0241089 -0.620319 -0.318645)
(-0.0134522 -0.664854 -0.374325)
(-0.0164866 -0.742044 -0.29738)
(-0.0139427 -0.664108 -0.261504)
(-0.0279701 -0.619355 -0.171917)
(0.099158 -0.618924 -0.24809)
(-0.00467011 -0.415614 -0.0745137)
(0.16824 -0.430466 -0.205116)
(0.0329545 -0.520859 -0.139418)
(0.0326711 -0.335553 -0.00174383)
(0.0900402 -0.304001 -0.0508257)
(0.0841004 0.119988 -0.552096)
(-0.0694187 0.394096 -0.377358)
(0.142608 0.177141 -0.461842)
(-0.0502033 0.275199 -0.157418)
(0.0410609 0.400953 -0.0959166)
(-0.0209914 0.168715 -0.260356)
(0.0679551 0.19029 -0.163435)
(0.188537 0.0944391 -0.372842)
(0.0698425 0.0629525 -0.445113)
(0.0454825 -0.0939503 0.187148)
(-0.121068 -0.172745 0.0840245)
(-0.0172901 0.089433 0.0331088)
(0.000122686 0.0854579 -0.301879)
(0.0316774 0.186844 -0.235726)
(-0.0909143 -0.017732 -0.164493)
(-0.0254067 0.0960621 -0.169607)
(-0.1935 -0.157559 -0.0417673)
(-0.16114 -0.145994 -0.050199)
(0.029366 -1.09334 0.160452)
(0.00209829 -1.05262 0.149987)
(-0.00548175 -1.01869 0.170501)
(0.059979 -1.08741 0.126794)
(-0.00143699 -1.06801 0.108486)
(0.024458 -1.02736 0.154409)
(-0.0187596 -1.02065 0.156036)
(-0.0946319 0.285087 -0.412304)
(-0.0205882 0.276463 -0.058577)
(0.00668654 0.172239 -0.499692)
(-0.116147 0.399834 -0.127394)
(0.0826917 0.438762 -0.202546)
(0.0643278 0.213761 -0.420444)
(-0.13001 0.381407 -0.372387)
(0.113471 -0.0512387 -0.116795)
(-0.157782 -0.198315 -0.181684)
(-0.00283298 -0.10333 0.079069)
(0.0964289 -0.026726 -0.153987)
(-0.249783 -0.385566 -0.388752)
(-0.0174417 -0.18672 -0.0485189)
(0.0292271 0.00677683 -0.0447932)
(0.0713802 0.299828 0.37728)
(0.129839 0.528735 0.352636)
(0.00603935 0.534144 0.14329)
(-0.141429 0.327067 -0.12005)
(-0.00807485 0.457932 -0.0604251)
(-0.00383365 2.72942 1.36679)
(0.017515 2.3927 1.10091)
(0.00594007 2.48349 1.14203)
(-0.00153557 2.86375 1.59852)
(0.034841 2.94836 1.62148)
(0.0683229 2.64202 1.20843)
(0.0232788 2.53268 1.23553)
(0.0630924 3.50146 1.77519)
(-0.00530271 3.53261 1.68984)
(0.00388804 3.35448 1.84932)
(0.030049 3.64257 1.79046)
(-0.0730873 3.48458 1.8734)
(0.00433375 3.77211 2.13239)
(0.0490482 3.80355 2.00133)
(0.0333046 0.89486 0.106728)
(-0.0308471 0.766686 0.0811159)
(-0.00684873 0.987779 0.142321)
(-0.212272 0.473647 -0.135962)
(-0.0937051 0.996152 -0.000129684)
(-0.0524832 1.0283 0.124924)
(-0.0530577 0.812332 0.15273)
(-0.0454452 0.427003 0.0267096)
(-0.0484504 0.745934 0.0506298)
(-0.0236185 0.704433 0.00254797)
(-0.0131383 0.893681 -0.0169241)
(-0.038029 0.714856 -0.0088279)
(-0.0247487 0.864486 0.0176206)
(-0.0249652 0.789534 0.00731654)
(-0.00722172 0.920857 -0.0163802)
(-0.0554957 0.936656 0.0953422)
(0.0235345 0.893401 0.0570726)
(-0.00276771 0.721231 0.00934294)
(0.0167291 0.709124 -0.00742218)
(-0.0634169 0.717964 0.0594193)
(0.0185584 0.716187 0.00468124)
(0.00486716 0.847132 -0.0199253)
(0.0836198 0.514118 -0.00885417)
(-0.0329179 0.990808 0.00735691)
(0.0101716 0.84777 -0.0241488)
(-0.00580257 0.782257 0.0167122)
(-0.0202209 0.837605 0.0271973)
(-0.0760813 0.816698 -0.0881125)
(-0.0596739 0.863291 -0.124907)
(-0.000948076 0.779382 0.063896)
(0.00759788 0.79018 0.0896107)
(-0.0468829 0.896711 0.0895958)
(-0.0443048 1.04638 0.188012)
(0.0169467 0.897931 0.12116)
(0.0776011 0.526703 -0.0291717)
(-0.0214898 1.06257 0.0937658)
(0.0152018 1.62671 0.24843)
(-0.0698817 1.43526 0.0709669)
(0.0646826 1.04574 0.0722883)
(-0.0597853 1.00621 0.0875487)
(0.144669 0.785845 0.0167308)
(0.122188 1.05756 0.0292459)
(0.0670235 1.01072 -0.032231)
(0.00797889 1.07684 0.182273)
(0.0133414 1.12171 -0.00242839)
(0.0628466 4.9775 0.789478)
(0.0510977 5.48194 0.7107)
(0.226254 4.86918 0.853712)
(0.0723935 5.56874 0.924181)
(-0.0760461 5.3085 1.22842)
(0.299472 4.90863 0.903864)
(0.383416 5.31593 0.788653)
(0.0495444 6.80853 0.938906)
(0.0805963 6.48429 1.05711)
(0.0187372 6.8572 0.87762)
(-0.0178159 6.5826 0.971044)
(0.0593445 6.43902 1.12811)
(0.14186 6.42973 1.10165)
(0.0214764 6.86053 1.01482)
(0.0295102 5.53497 1.35063)
(-0.0853606 5.51493 1.28992)
(-0.0606491 5.43544 1.25924)
(-0.0436142 5.09216 1.60823)
(0.0445556 5.26283 1.63028)
(-0.0272584 5.30475 1.46011)
(-0.0463811 5.11335 1.35943)
(-0.00999028 4.80445 0.403692)
(0.0848588 5.06963 0.776346)
(-0.0900613 5.44746 0.883082)
(0.0508733 3.78671 1.53078)
(0.0149731 3.83228 1.138)
(0.0511334 3.57488 1.79105)
(0.0958214 3.4447 0.986215)
(0.104616 2.95747 1.08626)
(0.100049 3.28378 1.48182)
(0.113006 3.63644 1.33687)
(-0.0103452 3.00218 -0.317134)
(0.0947216 3.28856 0.418621)
(-0.100625 2.15529 -0.26144)
(-0.107412 3.17441 0.402475)
(-0.00169439 1.60631 -0.399688)
(-0.174073 2.04381 0.106117)
(0.763577 -0.894344 0.205361)
(-0.139654 -0.336919 -0.527018)
(0.432483 0.509801 -0.15726)
(-0.116451 -0.519359 -0.898082)
(0.117974 0.070428 -0.950504)