/*--------------------------------*- C++ -*----------------------------------*\
| =========                 |                                                 |
| \\      /  F ield         | OpenFOAM: The Open Source CFD Toolbox           |
|  \\    /   O peration     | Version:  v2012                                 |
|   \\  /    A nd           | Website:  www.openfoam.com                      |
|    \\/     M anipulation  |                                                 |
\*---------------------------------------------------------------------------*/
FoamFile
{
    version     2.0;
    format      ascii;
    class       volScalarField;
    location    "0.1";
    object      alpha.water;
}
// * * * * * * * * * * * * * * * * * * * * * * * * * * * * * * * * * * * * * //

dimensions      [0 0 0 0 0 0 0];


internalField   nonuniform List<scalar> 
24700
(
1
1
1
1
1
1
1
1
1
1
1
1
1
1
1
1
1
1
1
1
1
1
1
1
1
1
1
1
1
8.50038e-13
5.5372e-13
3.25431e-14
1.06975e-12
4.02881e-12
1.49929e-13
3.03052e-12
3.49518e-05
2.88161e-05
2.87761e-05
2.88161e-05
3.05319e-05
2.87763e-05
6.46499e-05
0.000162208
0.000280437
0.00067406
0.000184098
0.00016385
0.000199705
0.000493466
3.63553e-06
1.87202e-06
4.14766e-06
1.88032e-06
1.8436e-06
3.46778e-06
4.24435e-06
0.00150492
0.00125672
0.000965352
0.00456699
0.00496657
0.00121362
0.00270648
2.13131e-09
3.8856e-09
1.0005e-09
3.02569e-09
3.82224e-09
7.69003e-09
1.39886e-09
8.36768e-06
5.72506e-06
4.60124e-06
1.02036e-05
5.77893e-06
8.58625e-06
2.05872e-05
0.532256
0.0872602
0.969642
0.51822
0.0551109
0.759138
0.935294
4.51297e-06
4.2377e-06
9.26255e-06
1.64246e-05
8.29669e-06
3.87977e-06
1.04186e-05
2.94641e-15
1.74735e-15
9.13398e-16
3.42408e-16
1.02593e-15
5.82645e-16
2.27479e-15
3.69406e-25
9.04833e-25
2.47173e-24
2.16086e-24
6.16043e-25
1.52184e-24
4.92578e-24
2.24496e-28
2.22977e-29
9.66831e-30
3.95379e-30
3.56962e-29
8.66656e-30
8.92663e-29
3.91319e-59
2.40522e-59
8.27682e-59
1.47441e-58
9.51828e-58
2.81747e-58
6.32669e-59
1.68494e-59
8.85e-60
4.60859e-60
3.0996e-56
4.89583e-55
2.28791e-55
1.57669e-53
8.28928e-55
4.08688e-54
1.62056e-55
4.83254e-54
1.72124e-52
2.0287e-53
2.65285e-57
1.35538e-56
2.27375e-40
9.65438e-41
6.81139e-41
3.39016e-39
1.29478e-38
4.60305e-39
1.10783e-39
5.49711e-17
3.14866e-17
3.36686e-17
1.93748e-16
9.91798e-17
6.33062e-17
7.88353e-17
0.000555845
0.000201013
0.000121193
0.000109351
0.000136044
0.00014416
0.00038351
3.17342e-05
4.20483e-05
2.62125e-05
2.6122e-05
2.96808e-05
7.64517e-05
2.67175e-05
3.20021e-05
3.17182e-05
6.15575e-05
7.53732e-05
3.35708e-05
3.0371e-05
4.81045e-05
5.08254e-05
0.00034969
0.000148532
3.55031e-05
4.61496e-05
0.00012897
6.19071e-05
9.88727e-06
1.62896e-05
3.73994e-05
3.73897e-05
3.74429e-05
1.34001e-05
8.82838e-06
1.06952e-05
1.44585e-05
2.12362e-05
1.32583e-05
1.06734e-05
2.50835e-05
1.05403e-05
8.80847e-09
2.98054e-11
7.46604e-10
1.02109e-11
1.39916e-09
2.64311e-12
5.18223e-09
1.06572e-07
7.0398e-08
4.46463e-08
1.52216e-07
4.72305e-07
2.0047e-07
7.36935e-08
0.824966
0.758921
0.955183
0.748615
0.931114
0.958078
0.941465
0.000726651
0.00192928
0.00147797
0.000727207
0.00066104
0.00198372
0.00217249
6.21541e-13
3.58575e-14
2.12299e-19
3.4047e-15
3.16177e-14
3.66498e-15
1.86673e-13
2.79449e-06
5.42973e-06
2.16907e-06
3.49288e-06
2.15893e-06
5.49278e-06
2.80933e-06
7.79044e-05
6.26224e-05
6.64388e-05
5.04513e-05
2.29093e-05
4.76791e-05
4.74961e-05
6.43831e-07
6.47291e-07
1.03514e-06
2.13102e-06
7.37514e-07
7.64072e-07
2.37295e-06
0.0095318
0.00892938
0.00960931
0.0102374
0.010222
0.00698649
0.999835
0.999178
0.996064
0.99997
0.99951
0.999716
0.941211
0.171761
0.35477
0.0966631
0.0502545
0.0501692
0.100735
0.0231486
0.0914877
0.122919
0.122856
0.0879446
0.122919
0.0551391
0.000172126
0.00179415
0.000260644
0.00721225
0.000619231
8.65117e-05
0.000148758
0.000442388
0.000442047
0.000889696
0.000450992
0.000595733
0.000152994
0.000702035
0.000217847
0.000238715
9.35299e-05
9.34277e-05
9.35299e-05
0.000210775
0.000105637
0.000255727
0.000260481
0.00042136
0.000292143
0.000365283
0.000267056
0.000547034
0.000109042
0.000554345
0.000379349
0.000403226
0.000562909
0.000357748
0.000193341
3.0444e-08
1.21217e-08
3.92324e-08
3.4636e-07
8.19297e-08
3.65625e-08
1.42431e-07
0.00703306
0.0112985
0.00236344
0.00435636
0.00221613
0.00570213
0.00438132
1.30864e-05
7.67064e-06
7.87933e-06
2.95322e-05
1.25561e-05
1.84671e-05
1.83794e-05
9.47871e-24
6.84984e-24
1.62708e-23
5.22697e-23
4.35551e-23
1.66287e-23
2.45356e-23
3.05044e-40
1.50457e-40
7.92615e-41
3.59717e-39
5.86311e-39
9.32719e-40
7.13012e-40
2.88648e-45
2.19309e-44
1.61757e-45
4.26129e-44
6.17742e-43
5.99092e-45
4.2442e-44
2.47874e-51
5.95592e-52
3.43439e-52
4.12241e-51
1.87938e-50
1.33458e-50
8.36992e-50
2.09229e-52
1.62445e-52
5.86588e-52
1.44502e-51
4.7081e-51
4.91773e-52
9.81025e-52
7.98136e-52
6.62504e-54
1.53153e-52
5.98791e-53
1.21356e-53
4.36421e-52
4.1564e-51
8.76678e-45
5.1993e-45
2.73866e-44
1.88839e-43
4.76978e-44
4.04846e-44
2.65216e-43
6.32561e-41
1.31277e-40
4.40566e-41
6.37698e-39
1.67451e-39
2.33033e-39
6.03261e-40
9.80995e-25
1.22484e-24
1.68642e-23
2.32389e-24
2.3848e-25
5.67057e-25
9.36331e-24
8.10301e-15
1.74307e-14
2.58406e-14
9.03538e-15
2.69551e-15
5.09641e-15
1.99144e-14
1.04172e-10
9.09482e-11
1.6009e-10
3.0541e-10
1.83706e-10
1.61627e-10
3.61354e-10
0.979131
0.824327
0.550766
0.979131
0.979131
0.955137
0.839483
2.41337e-07
2.22791e-06
6.05897e-06
1.30105e-05
1.05431e-05
1.02934e-05
3.85815e-07
0.000147271
0.000225626
0.00022909
9.43592e-05
4.43052e-05
9.85864e-05
6.49299e-05
1.47698e-06
4.705e-06
3.35099e-07
9.95166e-08
4.00188e-08
5.64643e-07
1.65815e-07
3.50768e-05
7.22332e-06
1.47857e-05
4.65212e-06
2.92433e-06
1.94472e-05
1.10447e-05
2.00577e-05
5.58432e-05
2.0205e-06
9.14325e-07
2.94833e-06
0.000214798
0.000277242
0.000211047
0.000740726
0.000398474
0.000295255
0.000560069
0.000295286
0.000570198
0.000148346
0.000133809
0.000136781
0.00141357
0.00184865
0.0018465
0.00041587
0.000858437
0.000415088
0.000791787
0.00133124
0.000827523
0.00130349
0.00124219
0.000400921
0.000282493
0.00131163
1.52635e-05
4.32833e-05
3.8988e-05
1.53474e-05
2.39205e-05
5.21057e-05
2.15753e-05
7.98349e-08
1.55269e-06
4.01537e-07
6.63655e-08
6.54754e-08
7.69091e-07
4.57405e-07
2.22373e-05
0.000123317
4.55055e-05
1.63152e-05
1.79575e-05
4.88912e-05
2.69097e-05
5.55537e-10
2.6191e-10
7.09965e-11
7.03134e-11
1.74836e-10
9.14528e-11
3.07612e-10
1.37569e-18
1.29339e-18
9.87008e-19
5.11543e-18
4.45448e-18
3.28299e-18
2.70832e-18
7.36828e-35
1.11544e-34
8.68208e-34
2.0674e-32
1.64266e-33
1.32478e-33
2.68789e-34
3.56259e-45
1.40504e-44
3.45883e-44
1.29488e-42
8.74736e-44
1.99588e-44
2.13752e-43
1.70273e-50
2.09596e-53
4.7757e-51
3.37649e-52
3.67599e-53
6.68542e-51
1.52503e-51
1.25178e-16
5.29489e-17
1.00554e-16
2.8054e-16
6.67246e-16
1.14843e-16
3.9772e-16
5.65158e-14
3.22994e-14
5.28483e-14
1.12195e-13
1.72243e-13
5.42401e-14
1.25702e-13
9.16744e-05
0.000164711
8.36537e-05
9.33702e-05
9.24685e-05
0.000153887
4.61066e-05
0.000131323
9.90194e-05
9.81009e-05
0.000148417
0.000188927
0.000240529
0.000130042
0.000139709
0.000139831
0.000120186
0.00014034
0.00013985
0.000140495
0.000122366
0.000133851
0.000113923
0.000132562
0.000100607
5.67041e-05
0.000115758
0.000118344
6.25133e-08
1.79188e-07
2.57274e-08
6.38242e-06
1.97604e-06
1.73535e-07
5.75031e-07
4.16461e-06
1.10592e-05
3.51103e-06
1.19559e-05
2.63463e-05
2.92688e-05
9.2795e-06
0.000345943
0.00034519
0.000550457
0.00114806
0.000730626
0.000372222
0.000952801
0.543551
0.950016
0.586092
0.176378
0.50323
0.950006
0.458051
0.000145642
0.000523742
0.000276079
0.000143156
0.000262948
0.000798201
0.000267064
6.87542e-12
3.59597e-12
8.73726e-12
6.06908e-13
4.86362e-12
1.05342e-12
4.27406e-12
3.36221e-09
8.49926e-10
1.26221e-08
1.7288e-10
4.05103e-10
6.77225e-10
2.77328e-09
1.37076e-05
3.21203e-06
1.80319e-06
7.42914e-07
8.46148e-07
1.23952e-06
3.38815e-06
1.7591e-14
6.31803e-14
4.63449e-15
8.02885e-16
3.96428e-15
2.00434e-14
3.33133e-15
8.84799e-23
2.57103e-24
4.40763e-23
5.07927e-24
8.13548e-22
1.59938e-24
3.9715e-22
7.88516e-37
2.63807e-35
1.88162e-36
5.49262e-38
2.55197e-37
4.05002e-36
3.60015e-37
6.47299e-36
1.8292e-36
5.22078e-37
1.65874e-34
2.28252e-35
2.13816e-42
3.22321e-43
9.08018e-43
7.18344e-41
5.07328e-42
1.97859e-42
1.31448e-41
2.17351e-40
9.24051e-42
4.31664e-40
5.76738e-39
1.93682e-41
6.66841e-46
3.85726e-45
7.79669e-45
2.86984e-44
3.60976e-45
4.8946e-12
8.33849e-12
1.38155e-11
6.53824e-12
2.81155e-12
4.26015e-12
1.2864e-11
3.79391e-05
8.4069e-05
8.76741e-05
3.94889e-05
7.33705e-05
5.03428e-05
0.000119955
1.27602e-05
3.07132e-05
1.2998e-05
2.68669e-05
6.50766e-05
9.3159e-05
1.34496e-05
1.06542e-05
4.85438e-06
4.92448e-06
4.81908e-06
8.67931e-06
8.65274e-06
1.27622e-05
1.49901e-11
2.36693e-12
7.18736e-12
6.14034e-13
7.35384e-13
6.5123e-13
1.48682e-12
5.46788e-14
3.20807e-13
5.61412e-14
3.02231e-12
1.15621e-12
1.09164e-13
4.0419e-14
3.59055e-05
2.07492e-05
2.02202e-05
3.53507e-05
1.83998e-05
2.46522e-05
2.26842e-05
0.00012599
0.000266887
7.51878e-05
6.75434e-05
0.000119379
8.2696e-05
0.000120395
3.24811e-10
1.81504e-09
5.87865e-10
4.88794e-10
1.67034e-09
4.32515e-09
9.82772e-10
4.82149e-10
3.73227e-09
7.14683e-10
3.56129e-09
1.3515e-08
9.62906e-07
5.97572e-07
5.94062e-07
2.32682e-06
7.94971e-07
7.18739e-07
2.13819e-06
1.74787e-06
3.74745e-07
1.59562e-06
8.78352e-07
1.99943e-06
3.00401e-07
2.21579e-06
0.000116293
0.000195977
0.000116286
0.000200593
0.000402175
0.00016294
0.000298745
0.1496
0.0181112
0.0885024
0.0415122
0.442247
0.0280519
0.302675
9.71336e-07
2.559e-06
5.26865e-07
2.68781e-08
1.46829e-07
1.54891e-08
9.33751e-08
1.27087e-12
8.10583e-12
5.21066e-12
2.85223e-11
1.57261e-12
1.96808e-11
1.05561e-12
6.57435e-10
3.15581e-10
4.17633e-10
3.16388e-09
1.17709e-09
6.83192e-10
1.19591e-09
9.34409e-13
7.72592e-12
4.73165e-13
9.30919e-14
7.35965e-14
7.89883e-13
1.96094e-13
8.17986e-14
6.2596e-13
1.1633e-13
1.71836e-13
6.64243e-13
7.86195e-16
1.24584e-14
3.99329e-29
1.38948e-27
9.45559e-29
3.40691e-30
2.07969e-29
2.39226e-28
2.00296e-29
3.47473e-28
1.32234e-28
2.97032e-29
9.35746e-27
1.44087e-27
7.8943e-36
9.55001e-37
6.13541e-37
1.41525e-35
2.03722e-34
1.22082e-35
2.22317e-36
9.74223e-32
4.17822e-31
1.57558e-31
9.53393e-31
3.12301e-30
6.90878e-30
1.17539e-30
3.51294e-26
6.01022e-26
2.18565e-26
3.15689e-25
6.42706e-25
3.81341e-26
1.70114e-26
3.81725e-12
2.59464e-12
1.56582e-11
4.2277e-12
3.68207e-11
2.12692e-11
3.44766e-10
8.13643e-10
1.53122e-10
3.92908e-10
2.08471e-10
1.41695e-10
1.98794e-10
1.01626e-09
2.27494e-09
1.7014e-09
0.984975
0.991543
0.969033
0.991505
0.967282
0.991524
0.977427
3.3151e-05
3.31144e-05
5.29825e-05
3.35583e-05
5.30183e-05
4.5534e-05
3.36695e-05
6.08496e-08
1.62473e-07
1.67513e-07
5.28057e-08
7.47097e-08
1.17512e-07
9.05197e-08
3.22672e-09
3.08407e-09
5.02139e-09
9.12996e-09
4.77661e-09
7.09461e-09
3.61352e-09
1.05562e-12
7.87282e-14
3.25526e-13
1.62226e-13
3.09308e-13
7.98909e-14
5.02373e-13
2.12927e-07
1.09692e-07
4.23135e-09
1.83723e-07
2.12766e-07
1.07738e-07
1.03656e-08
6.15542e-05
9.30791e-05
4.23352e-05
5.76696e-05
4.18783e-05
9.55116e-05
4.11924e-05
1.57458e-05
1.10545e-05
7.5109e-06
7.63565e-06
9.34369e-06
7.89865e-06
2.55869e-05
1.75885e-06
5.83744e-07
2.24447e-07
7.85437e-08
1.93704e-07
1.91092e-07
7.97563e-07
0.201241
0.0775451
0.681237
0.101288
0.0470353
0.041629
0.302141
0.999634
0.998794
0.999448
0.992988
0.965233
0.996723
0.985257
0.998693
0.998269
0.996048
0.999099
0.993756
0.997169
0.976412
0.999832
0.999688
0.997418
1.92941e-06
1.92663e-06
5.30253e-06
4.5054e-05
1.60841e-05
1.34932e-05
6.64986e-05
3.61075e-20
6.36685e-25
1.82657e-24
4.43391e-23
5.46468e-24
5.51766e-24
2.74034e-17
3.63066e-16
2.54176e-17
5.06079e-17
1.55099e-17
7.16949e-17
3.96362e-16
5.94596e-17
3.54166e-12
4.95517e-13
7.44737e-13
3.31236e-13
1.67248e-13
3.87971e-13
1.21065e-12
1.01662e-11
2.26427e-11
5.50703e-12
2.69309e-11
1.20522e-10
5.0044e-11
1.25489e-11
6.90117e-25
1.29132e-24
4.42768e-24
2.03643e-24
1.74019e-23
1.00372e-22
7.86704e-24
5.83886e-25
7.36815e-26
1.43739e-25
1.15516e-27
2.54273e-27
8.53415e-28
3.05909e-27
1.38901e-27
1.66789e-27
9.06255e-28
1.14909e-06
2.57309e-06
1.97187e-06
1.0085e-06
1.04096e-06
4.21222e-06
3.30231e-06
4.15713e-06
4.21433e-06
1.99214e-08
1.67263e-06
3.14789e-07
6.78618e-07
1.85004e-06
1.89699e-06
1.2245e-05
5.4721e-06
4.0658e-06
8.00406e-28
2.2689e-11
1.70829e-10
2.09383e-09
3.96412e-08
1.88296e-08
1.74906e-09
5.68629e-10
3.48513e-08
6.93715e-08
1.37957e-06
6.34648e-07
6.96957e-09
3.28045e-09
1.60081e-09
1.14724e-09
1.98388e-09
1.86414e-09
4.02108e-09
1.39128e-12
1.2714e-12
1.09788e-12
1.3369e-12
2.55391e-12
8.99412e-13
1.34152e-12
4.05441e-07
4.00132e-07
2.076e-07
2.17322e-07
2.09598e-07
3.91202e-07
2.76029e-07
1.61004e-10
9.05623e-10
8.28567e-11
1.96103e-11
1.41464e-11
1.39499e-10
4.42754e-11
0.000132262
0.000136983
0.000177017
0.000199057
0.000146581
0.00013448
0.000177507
0.000318943
0.000384961
9.24954e-05
9.1056e-05
9.2192e-05
0.000158062
0.000225447
0.000561058
0.000553257
0.000352282
0.000357171
0.000560233
0.000560781
0.000562032
0.000554214
0.000907657
0.000248414
0.000470559
0.000244333
0.00101346
0.000363345
0.999859
0.999173
0.999934
0.999274
0.999076
0.999072
0.997596
0.998918
0.995549
0.997087
0.998158
0.993054
0.999378
0.999216
0.991463
3.72374e-08
9.59907e-07
1.46047e-07
2.27593e-07
6.93822e-08
7.58333e-07
6.2972e-08
0.000167761
0.000343635
0.000344211
0.000282544
0.0001674
0.000346649
0.000346649
0.000131399
0.000128734
0.000149017
0.000143392
0.000134856
8.41297e-05
0.000251788
0.000442651
0.000246122
0.000247048
0.00032936
0.000714022
0.00029443
0.000526136
5.66141e-06
8.36178e-06
6.40045e-06
3.56571e-05
2.17076e-05
2.30432e-05
1.03734e-05
1.0289e-11
7.06279e-12
2.24421e-11
1.59009e-10
1.93845e-10
3.46099e-11
4.96e-11
1.67187e-17
1.10637e-16
1.87592e-15
4.78907e-15
4.59184e-14
3.45938e-16
5.29034e-16
5.30967e-15
1.27275e-14
5.68886e-14
1.09326e-12
7.55472e-14
1.15942e-13
1.32678e-14
3.5742e-16
3.04973e-17
5.5858e-17
7.69581e-15
8.2686e-16
1.11504e-16
5.95247e-16
1.31324e-11
3.73483e-12
3.1465e-11
2.97905e-11
4.687e-10
6.88305e-12
9.52287e-11
1.2719e-12
1.73687e-11
3.67393e-12
3.55873e-13
1.27951e-12
3.44232e-12
9.6246e-13
2.83485e-17
1.92169e-16
2.03371e-16
3.06118e-15
5.51102e-16
9.76e-16
1.02516e-16
4.51898e-06
2.15443e-05
1.7027e-05
2.79071e-06
2.77638e-06
8.32892e-06
6.6835e-06
0.000361817
0.00113171
0.00166716
0.000355734
0.00026916
0.000564953
0.000832364
1.49589e-07
7.10806e-07
6.33679e-07
6.72977e-07
5.1963e-08
9.84736e-07
1.65025e-06
4.7053e-07
5.13736e-09
3.37495e-07
3.30937e-10
3.29483e-11
1.10916e-10
1.42432e-11
1.17952e-11
3.64385e-11
7.95669e-11
3.21796e-06
1.78393e-06
9.36275e-06
5.18086e-06
2.37468e-06
1.43366e-06
1.49611e-05
1.54514e-10
2.03765e-10
8.48465e-10
9.47468e-09
1.6188e-09
1.43635e-09
4.7609e-10
0.000136153
8.03327e-05
0.000296751
0.000263391
0.000297718
0.000233748
0.000171047
1.91672e-06
1.88205e-06
1.97978e-06
6.08907e-06
2.39066e-06
1.83422e-06
5.17261e-06
1.43298e-10
1.53883e-11
1.15095e-09
2.56353e-10
1.59087e-11
5.04164e-12
7.23055e-10
4.70699e-09
8.71305e-09
1.37869e-08
2.04804e-09
3.31256e-09
3.92507e-09
6.95458e-09
2.60996e-05
3.99603e-05
6.59394e-06
0.000136138
0.000124758
8.38295e-05
2.54994e-05
3.0912e-08
6.28197e-08
1.58186e-08
7.44454e-08
7.25022e-07
2.53813e-08
1.59129e-07
5.15759e-14
1.00749e-14
5.31454e-13
9.34659e-12
1.38221e-12
2.09234e-14
7.95181e-14
0.000469369
0.00167534
7.94038e-05
7.89493e-05
7.94038e-05
0.00105963
0.000215589
7.20231e-05
3.04143e-05
4.79673e-05
0.000130256
3.71787e-05
8.74215e-05
5.19748e-05
3.53046e-13
1.65889e-12
3.63536e-13
3.07577e-13
7.19747e-13
5.91276e-14
1.54776e-13
3.07728e-14
1.22118e-13
9.98263e-13
7.27837e-14
6.3677e-15
9.2806e-15
5.12793e-13
1.01374e-06
2.19119e-07
3.4771e-07
7.5382e-07
2.50233e-07
3.18378e-07
1.06657e-06
5.93889e-12
1.56715e-12
1.01068e-12
2.86037e-12
1.29459e-11
7.66433e-12
1.46393e-12
0.000155043
0.000257856
0.000257587
0.000179025
0.00018754
0.000200099
0.00025805
4.91487e-05
3.37233e-05
4.92857e-05
3.35694e-05
3.33276e-05
3.38495e-05
4.96628e-05
3.63917e-06
7.61674e-06
1.31791e-06
2.02817e-06
1.06408e-06
2.40185e-06
1.44778e-06
5.35392e-05
8.50713e-05
6.08476e-05
5.37819e-05
5.35447e-05
0.000115882
4.8673e-05
7.07901e-05
8.15827e-05
7.17453e-05
7.4202e-05
9.37664e-05
0.000144096
0.000189076
0.000120506
7.15509e-05
7.64118e-05
0.000245046
0.000304209
5.37992e-05
0.000179159
0.000275759
0.000302174
0.000671255
0.000336782
0.000335896
0.000270572
0.000736629
2.85477e-06
1.18769e-05
3.6068e-05
1.26494e-05
2.85055e-06
1.47727e-05
7.43836e-05
0.957867
0.972997
0.909086
0.994002
0.992966
0.998126
0.998655
0.978884
0.984392
0.999862
0.999875
0.999941
0.998055
0.999289
0.996831
0.993196
0.998997
0.99631
0.00103553
0.0010233
0.00103394
0.00415134
0.00286202
0.00176032
0.00180847
0.000444029
0.000473568
0.00106626
0.000939569
0.00038135
0.000419677
0.00107993
1.60923e-05
3.54764e-05
1.60923e-05
4.28285e-05
1.61237e-05
6.34347e-05
2.19706e-05
0.000238981
0.00023921
0.00023866
0.00034226
0.000390631
0.00029871
0.000195705
3.7265e-05
4.06689e-05
4.09553e-05
0.000188755
0.000106338
0.000130514
6.91299e-05
2.56442e-12
5.03515e-11
2.45135e-11
8.04084e-10
3.42401e-11
1.18618e-10
4.20438e-09
5.03418e-11
1.16686e-10
1.17583e-09
1.17253e-11
2.76503e-13
1.03414e-10
3.35503e-10
1.00234e-09
8.33702e-13
1.89602e-11
0.980622
0.981003
0.976174
0.644957
0.904886
0.967513
0.829098
0.00150554
0.00365864
0.000652365
0.000968459
0.000645107
0.00467367
0.00228981
0.000427533
0.000311368
0.000406997
0.000407975
5.19671e-05
4.69392e-05
0.00019782
7.0121e-08
4.15128e-08
2.26349e-08
2.26795e-08
2.73409e-08
2.88234e-08
7.73525e-08
7.66666e-10
1.42014e-09
4.32129e-10
4.65527e-10
1.81961e-10
8.0874e-10
3.58999e-10
2.85811e-13
1.20446e-12
3.30793e-12
9.01602e-16
1.25066e-14
5.84145e-15
2.8379e-15
3.85575e-14
9.45113e-15
3.92561e-11
4.36464e-12
1.29711e-11
1.86538e-11
9.88606e-11
3.44724e-12
1.51167e-10
1.73118e-11
2.3104e-13
2.15621e-11
2.26698e-10
5.08282e-10
1.12946e-08
1.5033e-08
3.81099e-08
1.80084e-07
1.80496e-08
7.58517e-09
1.5387e-08
3.64023e-08
2.6493e-05
2.61405e-05
5.46309e-05
2.61742e-05
5.43271e-05
2.59232e-05
3.53113e-05
1.72749e-06
2.82272e-06
1.1143e-06
2.26458e-07
6.01388e-07
6.59834e-07
9.47795e-07
1.68082e-13
4.89163e-13
3.49866e-13
2.16782e-13
5.58552e-13
2.23242e-12
5.47366e-13
1.91491e-13
1.03456e-12
1.02079e-11
1.506e-11
1.71813e-12
2.86183e-05
2.36975e-05
1.54314e-05
1.45068e-05
6.49857e-05
1.63205e-05
6.76072e-05
0.000298187
0.000223703
0.000139112
0.000328503
0.000328091
0.000328556
0.000327804
0.000309106
0.000412571
0.000413035
0.000395635
0.000222187
0.000396779
9.63075e-05
2.21003e-11
2.44643e-11
4.61702e-12
6.24831e-12
1.32052e-10
7.43739e-11
3.80825e-12
0.999912
0.99988
0.999703
0.997075
0.998881
0.990841
2.02929e-05
5.63079e-06
1.54547e-06
8.1807e-07
2.1865e-06
2.68716e-06
8.68894e-06
1.57335e-05
1.21562e-05
2.04664e-05
2.04931e-05
1.33589e-05
1.1553e-05
1.9104e-05
1.39405e-11
6.09386e-12
3.87835e-10
8.81896e-10
7.47737e-11
2.2499e-09
1.35531e-08
1.7894e-11
2.33703e-09
2.41618e-11
4.40209e-05
4.92831e-05
0.000134932
7.11848e-05
4.37063e-05
4.47664e-05
9.4607e-05
1.0325e-05
2.82135e-05
5.09493e-06
3.54321e-06
3.41599e-06
8.94725e-06
5.08271e-06
0.0016174
0.00311239
0.00116519
0.00113836
0.0010987
0.00157971
0.00113836
0.752138
0.929705
0.742407
0.841368
0.958496
0.961805
0.942626
2.01947e-05
6.70296e-05
5.18588e-05
3.50495e-05
2.01229e-05
3.168e-05
3.77008e-05
2.61729e-05
3.88644e-05
2.16599e-05
7.05136e-05
3.65726e-05
3.96798e-05
5.08501e-05
1.98332e-06
6.46465e-06
3.1203e-06
1.23171e-06
1.82484e-06
2.90324e-06
2.54986e-06
2.37222e-08
2.50943e-08
1.81455e-08
5.68149e-08
6.18213e-08
4.05824e-08
2.78611e-08
3.22319e-10
5.3107e-10
1.42725e-10
1.58614e-10
1.40146e-10
3.37941e-10
2.6275e-10
2.69033e-10
4.02843e-10
3.44104e-09
5.29998e-11
1.8874e-11
4.5809e-11
4.07091e-10
8.97707e-05
0.000111468
8.77347e-05
0.000240903
9.6664e-05
0.000177712
8.31623e-05
2.29185e-06
1.31771e-06
1.86956e-06
2.89355e-06
4.09427e-06
1.9317e-06
4.09454e-06
9.12675e-15
7.87005e-15
8.2919e-15
1.41817e-14
2.09805e-14
1.75303e-14
1.44772e-14
7.42166e-15
6.20311e-15
1.21885e-14
1.16222e-14
1.83458e-14
1.60128e-14
1.92322e-14
2.59298e-13
1.38315e-13
1.22042e-12
4.95453e-12
1.94873e-12
2.12141e-12
2.35244e-13
7.52899e-12
1.0548e-12
3.40178e-12
4.97506e-06
3.99721e-06
3.10961e-05
5.13903e-06
2.03821e-06
1.64983e-06
1.53792e-05
3.54939e-05
2.09603e-05
2.0673e-05
5.40384e-05
1.29172e-05
5.86039e-05
1.82795e-05
8.11835e-05
6.05667e-05
6.20939e-05
2.33492e-05
7.36673e-05
9.54753e-05
3.55448e-05
2.72827e-05
2.66209e-05
4.62798e-05
4.60862e-05
4.25239e-05
7.22766e-05
4.58378e-05
1.48869e-07
4.57575e-07
3.58572e-08
1.0461e-06
8.45953e-07
7.06333e-07
5.71712e-07
7.27117e-10
3.03959e-09
2.02904e-10
2.26946e-12
1.71698e-11
6.47632e-11
2.16836e-11
1.85774e-11
3.42291e-12
2.04754e-11
2.29897e-11
7.77039e-13
1.30268e-12
2.35185e-11
3.7996e-18
6.49474e-17
7.60391e-18
1.04857e-17
2.07178e-18
6.31581e-17
8.44321e-18
0.999827
0.999279
0.999983
0.999997
0.999998
0.999996
0.99996
0.999997
0.99999
0.99997
0.999952
0.999575
0.998155
0.999548
0.995458
0.999008
0.999835
0.997553
0.999948
0.999974
0.999367
0.98831
0.986936
0.937998
0.998011
0.98971
0.865857
0.75372
0.20552
0.0500948
0.0271688
0.129404
0.788389
0.000106635
0.000107944
0.000104811
0.000135013
0.000315841
0.00025542
0.00014992
4.40628e-05
3.38452e-05
4.41814e-05
9.641e-06
2.16744e-05
1.35562e-05
8.86016e-06
2.7343e-05
3.62011e-05
5.10547e-05
5.50327e-06
9.83288e-06
1.01224e-05
9.74018e-06
1.87032e-05
0.000106765
1.93576e-05
2.98812e-05
1.24964e-05
7.38998e-05
2.69157e-05
2.10399e-05
2.53501e-05
4.52604e-05
1.27156e-05
7.478e-05
0.000125198
8.96191e-06
3.3329e-05
2.91447e-06
3.51805e-05
9.87924e-06
1.37587e-05
1.69344e-06
1.46442e-05
2.46317e-11
1.49239e-10
1.10291e-11
2.21686e-12
1.39437e-12
1.66751e-11
4.88238e-12
1.09994e-07
9.55771e-08
2.51978e-07
4.42077e-07
2.03266e-06
1.63291e-07
4.63044e-07
0.026597
0.0136723
0.014538
0.133636
0.286231
0.0295384
0.0921373
3.54699e-05
0.000118925
3.6426e-05
6.20646e-05
6.2568e-05
0.000114691
3.6865e-05
1.80189e-11
7.39342e-14
3.7296e-12
2.33379e-11
5.60071e-12
6.76984e-13
7.75191e-12
0.000250279
0.000102706
0.000212427
0.000136265
0.000236215
6.82215e-05
0.000124587
8.31996e-14
4.88318e-14
3.41895e-14
2.64679e-14
2.4067e-14
6.86378e-17
1.01062e-17
1.35676e-16
3.85731e-17
2.78131e-15
8.0018e-18
5.13864e-16
3.07867e-20
1.28795e-17
3.40853e-16
9.59315e-19
1.58938e-17
2.07429e-18
1.31105e-16
1.04912e-11
1.03959e-10
1.87898e-13
1.21093e-12
9.28356e-12
4.15957e-11
6.89349e-14
5.9442e-16
4.4981e-16
1.26938e-14
8.98474e-14
2.75184e-13
8.19933e-16
3.26538e-15
0.999957
0.998818
0.999993
8.53261e-11
4.36995e-11
4.60791e-11
1.03357e-10
2.22097e-10
1.6648e-10
8.55155e-11
1.36493e-09
6.68407e-10
3.55171e-10
9.45943e-10
5.77836e-10
3.34998e-10
4.77696e-10
5.71385e-11
3.86632e-11
2.94151e-11
2.15707e-09
1.28079e-09
7.37607e-10
4.07729e-16
7.94271e-17
3.79016e-17
7.89975e-18
1.70487e-18
6.09001e-17
1.91723e-17
5.10166e-18
1.11889e-17
2.2628e-10
3.98595e-11
2.77435e-09
1.30055e-12
1.84598e-11
1.10867e-08
4.7046e-08
8.03817e-12
2.2406e-13
5.06431e-07
2.3716e-06
5.44141e-07
2.15831e-06
1.82125e-16
0.999949
0.999923
0.999994
0.998554
0.978468
0.997119
0.99995
0.991501
0.999499
0.999839
0.999931
0.997531
0.99995
0.974382
0.998252
0.999998
0.99987
0.996992
0.999903
0.999944
0.998345
0.999976
0.999951
0.998784
0.0468551
0.0175862
0.0305427
0.00976969
0.0294543
0.0170999
0.0258091
2.2523e-07
1.67918e-07
4.22842e-07
1.91776e-06
5.48554e-07
1.6425e-07
6.58983e-07
6.19557e-05
5.02612e-05
5.02612e-05
7.31252e-05
7.21023e-05
5.99471e-05
0.000124791
9.4306e-05
9.4871e-05
0.00015394
0.000130758
9.30726e-05
9.38388e-05
9.29565e-05
1.9459e-05
1.19769e-05
9.38366e-06
9.72226e-06
9.38366e-06
1.63395e-05
2.50804e-05
3.46117e-05
4.37981e-05
2.97197e-05
2.97696e-05
2.97197e-05
2.97197e-05
3.06182e-05
2.9928e-08
2.32786e-07
1.71226e-08
5.35731e-09
3.20694e-09
3.68939e-08
7.68071e-09
1.1385e-05
4.3007e-06
4.93539e-06
1.50807e-05
2.57717e-05
8.6915e-06
2.77162e-05
9.79805e-05
6.20643e-05
9.79805e-05
9.79805e-05
9.79805e-05
5.83723e-05
6.93052e-05
1.50837e-10
8.04221e-11
3.63942e-14
4.28985e-14
2.07883e-13
1.41595e-12
5.2158e-12
4.79688e-13
4.61685e-14
5.28318e-13
2.51536e-12
1.03603e-11
5.74589e-13
1.55913e-13
3.15924e-14
2.18988e-13
3.78665e-13
3.77646e-12
1.879e-12
2.18385e-12
2.29962e-12
1.4455e-11
1.78e-12
3.82774e-11
1.93491e-10
1.76159e-11
7.42499e-12
5.67259e-12
4.11877e-13
1.02092e-12
9.14498e-13
1.8636e-13
2.00845e-12
4.03882e-13
1.44615e-11
8.42378e-11
3.81559e-11
1.23829e-09
2.96436e-10
5.93054e-11
2.54267e-10
3.88717e-09
1.96871e-09
6.43649e-09
1.46769e-09
8.09436e-10
1.37502e-09
4.01613e-09
7.78421e-10
6.44664e-10
2.74543e-09
1.0264e-08
2.4221e-08
5.32739e-10
8.59196e-10
3.41924e-12
5.308e-13
5.42382e-12
3.697e-11
2.92107e-12
1.19643e-12
1.84757e-11
0.999996
0.999976
0.999981
0.999982
0.999592
0.999895
0.99782
0.999839
0.999783
0.999011
0.99841
0.999925
0.997504
0.988746
0.999954
0.99997
0.998977
0.00136021
0.000634722
0.000888288
0.00281432
0.0013668
0.00327739
0.00641042
0.0010299
0.000412993
0.000524945
0.000554168
0.00103148
0.000272913
0.000193572
1.68779e-13
3.45935e-14
6.70765e-14
1.11832e-12
1.89976e-13
4.36188e-14
3.1468e-13
4.98127e-14
5.03026e-13
2.1893e-12
2.42404e-16
6.57719e-16
9.71253e-16
3.15238e-19
1.0091e-18
1.11372e-18
1.06076e-14
8.04035e-16
2.00345e-16
7.6592e-16
3.96787e-15
1.90342e-05
5.11844e-05
0.00015806
0.136768
0.0271312
0.0415968
0.838959
0.338361
0.0622739
0.39564
0.994898
0.998311
0.999448
0.977338
0.998095
0.988772
0.999881
0.999559
0.999995
0.999939
0.99989
0.999583
0.999721
0.998447
0.991876
0.997742
0.99945
0.999379
0.999989
0.999694
0.999992
0.000470619
0.00200065
0.00110748
0.000651356
0.000474694
0.00380734
0.00176236
8.35486e-05
0.000178932
8.35486e-05
8.35486e-05
0.000114808
0.000173279
9.26221e-05
7.2242e-07
3.37948e-07
1.43142e-06
3.32688e-07
3.30605e-07
4.87051e-06
1.89316e-06
7.84249e-07
3.86328e-06
2.02101e-06
1.84539e-05
1.02873e-05
1.10748e-06
1.90342e-06
6.42807e-05
0.000127135
5.19617e-05
5.20502e-05
6.43859e-05
0.000187942
8.07688e-05
2.11766e-07
3.01193e-08
4.9233e-08
1.62179e-07
3.4585e-08
1.80195e-07
3.69227e-08
6.78215e-09
5.80441e-08
2.20577e-08
1.31318e-09
1.3174e-09
2.92956e-09
2.01124e-09
4.16021e-10
5.19992e-10
6.79922e-11
2.05456e-10
4.97781e-10
6.79586e-10
6.12247e-11
1.8403e-06
1.22349e-06
4.79598e-06
1.65257e-06
1.78024e-06
9.91086e-07
3.03953e-06
3.58805e-05
4.37416e-05
0.00010462
8.71855e-05
0.000184928
0.000112289
0.000186567
1.82897e-06
7.08641e-06
1.02418e-05
1.85929e-06
3.7116e-06
1.78834e-05
7.48395e-06
1.703e-09
6.53502e-09
4.95329e-09
3.99521e-10
7.93877e-10
2.56319e-09
2.0553e-09
2.03951e-11
1.10986e-09
3.1341e-09
1.0915e-14
3.17026e-17
1.59729e-15
4.20322e-16
7.15011e-16
2.13148e-15
1.68267e-17
2.98041e-17
1.10797e-15
4.37571e-15
1.02337e-15
4.8401e-17
4.42413e-15
2.62023e-15
1.19531e-12
7.54148e-13
9.08598e-12
3.48097e-11
6.63841e-15
3.29151e-18
2.20925e-14
6.7246e-15
1
0.999999
0.999999
1
1
1
0.999999
1
1
0.000371753
0.000199512
0.00023401
0.0292033
0.0098991
6.5153e-05
0.000245041
0.00151991
2.14704e-05
1.31376e-43
2.57146e-05
0.000298203
0.999999
1
1
1
1
1
1
1
1
1
1
1
1
1
1
1
1
1
1
1
1
1
1
1
1
1
1
1
1
1
1
1
1
1
1
1
1
1
1
1
1
0.537844
0.236806
0.97678
0.994115
0.994604
0.9282
0.952037
3.97426e-61
5.06897e-62
3.02116e-62
1.09212e-61
7.73648e-61
2.21958e-60
1.74606e-61
9.027e-61
6.16384e-60
0.999351
0.999351
0.999351
0.996953
0.996652
0.994047
0.997094
0.993628
0.985762
0.969882
0.996376
0.992766
0.978749
0.998096
0.996899
9.41448e-62
1.2346e-60
7.04531e-60
5.19492e-59
6.19939e-59
3.41268e-58
0.000168438
9.52642e-05
9.86491e-05
6.07813e-09
9.90862e-08
1.08416e-10
2.15552e-07
7.06529e-09
1.10656e-08
7.12151e-09
3.93422e-05
2.48458e-05
0.000268364
9.28438e-10
2.45712e-09
1.37459e-09
8.34383e-11
1.40221e-13
1.62577e-09
0.000642138
0.00122691
0.000694433
0.000231761
7.48172e-05
1.68765e-05
1.69616e-05
4.64853e-05
5.68172e-05
1.82867e-05
1.60537e-09
1.12158e-09
3.18208e-09
1.77214e-09
6.92135e-05
0.000177541
0.000177692
0.000172275
3.54952e-12
1.05459e-11
9.21497e-10
1.53515e-10
3.71742e-09
7.06264e-09
1.05774e-09
1.36393e-09
5.73537e-10
7.07068e-10
1.02933e-10
1.34781e-10
1.73141e-09
1.95206e-10
1.03977e-09
1.82711e-10
8.04476e-09
4.32235e-08
9.69421e-05
0.000147957
7.97804e-05
7.95457e-05
7.94953e-05
6.73724e-05
6.73724e-05
6.73724e-05
6.74072e-05
9.63833e-05
1.32966e-08
1.77384e-08
1.18873e-09
6.44546e-10
2.72672e-09
6.55733e-09
1.70839e-08
1.12444e-08
4.70081e-07
5.33699e-08
1.38868e-07
1.61678e-07
9.90605e-08
4.57285e-07
4.1163e-06
9.06204e-06
2.2992e-06
4.28411e-06
0.0437238
0.0240728
0.0315162
0.0234224
7.23037e-12
3.80796e-11
2.85138e-11
1.08244e-32
2.68936e-33
8.13632e-34
1.95845e-34
0.0664394
0.327293
0.093846
0.225053
7.1195e-05
7.1195e-05
0.000169006
0.000300636
8.02901e-52
3.15402e-51
1.19226e-50
0.000537285
0.00164872
0.000103353
9.19363e-05
0.000159147
9.23603e-05
1.39919e-19
3.03431e-19
2.45828e-18
1.10288e-18
8.6488e-07
7.17749e-06
2.0172e-48
3.84482e-47
1.20199e-49
4.23016e-47
0.999767
0.997588
0.999352
0.997718
8.94284e-14
1.76723e-13
8.23361e-13
2.28848e-12
7.74379e-06
1.9501e-05
2.35871e-05
3.4693e-05
3.59562e-05
6.61864e-05
2.75729e-05
2.10624e-05
3.57134e-05
1.80998e-05
3.21756e-05
1.33756e-05
0.000200674
0.000205284
0.000177521
0.000441068
0.000126315
0.000622034
0.000271363
0.000280992
0.000303418
0.000299921
5.99197e-06
7.95913e-06
1.77632e-05
6.14998e-05
0.000177643
0.000177769
0.999981
0.999999
2.44675e-11
1.65501e-11
2.58728e-10
5.83211e-10
0.000264101
0.000131913
0.00056212
0.000242581
0.000145157
0.000291196
0.000355054
0.000562216
3.14222e-05
4.0414e-05
8.69817e-20
5.10856e-20
3.13958e-19
1.65048e-19
0.000247458
0.00013125
0.000356505
0.000302464
1.60505e-08
1.95295e-09
8.49076e-09
2.50032e-09
1.29968e-13
4.86212e-13
6.68904e-24
3.77408e-23
3.78562e-25
9.40365e-24
0.650794
0.780406
0.929629
0.927073
0.865875
0.994893
0.967547
1.68885e-11
6.15354e-12
3.19241e-13
7.48539e-14
5.60567e-07
4.12747e-05
0.0003609
0.993442
0.993346
0.874995
0.417494
0.987735
0.925856
0.000114644