/*--------------------------------*- C++ -*----------------------------------*\
| =========                 |                                                 |
| \\      /  F ield         | OpenFOAM: The Open Source CFD Toolbox           |
|  \\    /   O peration     | Version:  v2012                                 |
|   \\  /    A nd           | Website:  www.openfoam.com                      |
|    \\/     M anipulation  |                                                 |
\*---------------------------------------------------------------------------*/
FoamFile
{
    version     2.0;
    format      ascii;
    class       volScalarField;
    location    "0.1";
    object      p;
}
// * * * * * * * * * * * * * * * * * * * * * * * * * * * * * * * * * * * * * //

dimensions      [1 -1 -2 0 0 0 0];


internalField   nonuniform List<scalar> 
24700
(
-391.111
-431.949
-345.785
-406.72
-424.631
-307.443
-357.365
-417.185
-443.08
-451.942
-418.686
-444.952
-436.623
-374.169
-401.333
-425.119
-408.564
-215.316
-246.087
-251.646
-200.377
-181.422
-241.666
-231.089
-165.7
-205.446
-195.576
-203.756
-190.742
-2.93985
-2.95753
-2.94236
-2.93389
-2.93621
-2.93306
-2.93161
-2.80637
-2.98333
-3.07132
-3.39983
-3.10671
-3.25877
-2.94093
-2.06395
-1.68103
-2.35598
-2.24636
-1.99551
-1.8725
-2.35519
0.838977
0.846207
0.869218
0.75944
0.859513
0.814555
0.867762
-3.98868
-2.70807
-3.76773
-3.78078
2.46997
-3.37732
-4.03808
-2.23516
-2.24601
-2.24062
-2.23014
-2.22619
-2.24378
-2.23696
-3.83266
-3.63456
-3.93168
-3.29365
-3.47964
-3.79695
-3.59646
-41.137
-13.2621
-35.0281
-23.6761
-8.28074
10.9284
-52.6486
-3.19022
-3.31401
-3.21183
-3.12194
-3.13475
-3.23088
-3.16253
-2.41485
-2.38887
-2.41339
-2.41273
-2.4404
-2.40123
-2.42812
-2.05388
-2.07952
-2.06346
-2.02477
-2.04147
-2.05854
-2.04135
-1.37916
-1.40765
-1.42496
-1.4585
-1.43121
-1.42754
-1.39955
-2.80982
-2.83131
-2.80508
-2.79349
-2.77
-2.78125
-2.8077
-2.81041
-2.82175
-2.84529
-2.90117
-2.9226
-2.89752
-2.8828
-2.86008
-2.89682
-2.87516
-2.91001
-2.90952
-2.93521
-2.91345
-2.8884
-2.78778
-2.81383
-2.80933
-2.83817
-2.81675
-2.80105
-2.82292
-2.39467
-2.42205
-2.39544
-2.36996
-2.39597
-2.41044
-2.38401
-2.4458
-1.65281
-2.08798
-1.95606
-2.19694
-1.80554
-2.34364
0.261579
0.294659
0.268387
0.263522
0.238596
0.259188
0.270472
0.300258
0.274206
0.310337
0.319108
0.335338
0.29839
0.311913
0.317976
0.305382
0.275698
0.374196
0.350007
0.334797
0.326466
0.693847
0.750352
0.732355
0.764003
0.718234
0.759866
0.703401
0.591709
0.544865
0.612263
0.591557
0.667286
0.555807
0.612901
0.316644
0.296021
0.335149
0.365628
0.376168
0.338221
0.353181
-0.0292387
0.07169
-0.00399419
0.148724
0.172269
0.0749539
0.0740382
-14.285
9.41059
11.3416
6.79054
-0.999848
5.96567
-8.72244
-3.31101
-3.29808
-3.43545
-3.47063
-3.19768
-3.20368
-3.42607
-0.3789
-0.429773
-0.414675
-0.483197
-0.440287
-0.452329
-0.410542
-0.16205
-0.132138
-0.131807
-0.0949075
-0.144934
-0.110247
-0.153088
0.1769
0.196644
0.202583
0.142855
0.200244
0.20063
0.157543
0.376336
0.383669
0.389519
0.367381
0.356297
0.369394
0.3769
1.28394
1.18047
1.22085
1.18686
0.804787
1.01099
89.6632
72.3046
72.5612
61.8814
67.0594
51.5854
18.4214
1.50562
5.33658
1.55608
2.17962
1.29362
2.48399
0.672607
1.91905
5.16165
3.95727
2.23007
3.80727
1.17686
1.05655
1.1501
1.0354
1.18528
0.987851
1.04497
1.07191
1.2599
1.29212
1.24482
1.18165
1.277
1.27445
1.2361
1.21393
1.15729
1.19051
1.20307
1.139
1.15611
1.20483
1.20406
1.24844
1.21572
1.12424
1.2681
1.28043
1.17301
0.0626306
0.0108417
-0.0273507
0.0729415
-0.0628819
-0.0333827
0.134816
0.526639
0.493664
0.499399
0.560481
0.569516
0.535105
0.532527
-1.07026
-2.37732
-1.28262
-1.38543
-1.59918
-1.69023
-1.40011
-2.8558
-2.90581
-3.08053
-3.13988
-3.30804
-2.97537
-3.00896
-2.27095
-2.24264
-2.24299
-2.22025
-2.24905
-2.23423
-2.26272
-2.16548
-2.19462
-2.16741
-2.16175
-2.13395
-2.17737
-2.14992
-2.26511
-2.2585
-2.29172
-2.25487
-2.22852
-2.27498
-2.24868
-2.51395
-2.53593
-2.53897
-2.56992
-2.5476
-2.55627
-2.53363
-2.64172
-2.66534
-2.63091
-2.63086
-2.60692
-2.65413
-2.63071
-2.72409
-2.71846
-2.74645
-2.6849
-2.70829
-2.72455
-2.70266
-2.72064
-2.72465
-2.69895
-2.73419
-2.75631
-2.74151
-2.71968
-2.81379
-2.78778
-2.80917
-2.81674
-2.83817
-2.80107
-2.82287
-2.67145
-2.65044
-2.67382
-2.6937
-2.67039
-2.66056
-2.68391
-2.41338
-2.38887
-2.41481
-2.44048
-2.41292
-2.40131
-2.42816
-2.33608
-2.33573
-2.31487
-2.33313
-2.36164
-2.34923
-2.32424
6.03291
-8.94999
2.72779
-11.7946
5.07877
-0.384292
9.83815
-0.492362
-0.469029
-0.509839
-0.543792
-0.534814
-0.495651
-0.516605
-0.537046
-0.536957
-0.587947
-0.600096
-0.441495
-0.634147
-0.501739
0.326846
0.358136
0.32455
0.321166
0.304126
0.346164
0.322344
0.435438
0.403679
0.396351
0.394671
0.387369
0.423458
0.402158
0.407986
0.438919
0.399064
0.376412
0.390563
0.454804
0.485725
0.453881
0.465744
0.445977
0.455043
0.462884
0.459731
0.483859
0.468946
0.468164
0.460737
0.796476
0.815526
0.713548
0.574685
0.501679
0.71072
0.642733
1.69578
1.69163
1.7149
1.64478
1.71204
1.69387
1.66337
0.765196
0.783956
0.693892
0.784479
0.800864
0.79152
0.76845
0.868839
0.893575
0.840563
0.859049
0.892424
0.895399
0.851474
-1.42155
-1.47919
-1.62549
-1.35051
-1.23817
-1.31811
-1.48911
-2.08726
-2.06604
-2.03462
-1.98256
-1.98778
-2.02248
-2.04072
-2.11874
-2.13578
-2.10701
-2.09275
-2.12506
-2.12778
-2.09617
-1.992
-1.96304
-1.96305
-1.93173
-1.96103
-1.94566
-1.97477
-2.08047
-2.05436
-2.05213
-2.00695
-2.03766
-2.05358
-2.02982
-2.44639
-2.44372
-2.46917
-2.4191
-2.4414
-2.43271
-2.45527
-2.87482
-2.85766
-2.85341
-2.83374
-2.85259
-2.84678
-2.86496
-2.82771
-2.80833
-2.81124
-2.79065
-2.81367
-2.79881
-2.82008
-2.67442
-2.722
-2.65807
-2.62178
-2.73545
-2.73645
-2.66082
-0.704675
-0.702072
-0.586379
-0.824435
-0.722032
-0.79907
-0.652109
-0.436455
-0.435333
-0.445828
-0.437567
-0.464242
-0.443577
-0.453326
-0.409138
-0.417125
-0.406304
-0.368551
-0.415255
-0.408049
-0.372351
0.319836
0.320365
0.30249
0.354819
0.326752
0.321259
0.342638
0.354173
0.365555
0.362913
0.365871
0.378284
0.371603
0.363414
1.30251
1.18062
1.48906
1.322
1.32212
1.30109
1.25906
10.287
29.3513
7.11211
3.0877
5.88978
17.6597
4.02462
1.72172
1.74553
1.73516
1.71496
1.69646
1.70029
1.71394
1.03372
1.05137
1.06627
1.0942
1.09129
1.07416
1.06417
1.32002
1.25869
1.28023
1.24531
1.19988
1.27857
1.23447
0.310424
0.215018
0.262792
0.217167
0.314964
0.212288
0.311241
-1.44928
-1.51106
-1.49988
-1.48946
-1.54788
-1.53067
-1.46877
-1.88451
-1.849
-1.85511
-1.83054
-1.8664
-1.84142
-1.87745
-1.73232
-1.70034
-1.73459
-1.77808
-1.74813
-1.7351
-1.76455
-1.73073
-1.7455
-1.77499
-1.68572
-1.71809
-1.9461
-1.97444
-1.94265
-1.91512
-1.94658
-1.95934
-1.92866
-1.94308
-1.9846
-1.94521
-1.9171
-1.97112
-2.09126
-2.06767
-2.05732
-2.06492
-2.09193
-2.8399
-2.82218
-2.84503
-2.85113
-2.83349
-2.82613
-2.84674
-3.55663
-3.3477
-3.18539
-3.89268
-3.78772
-3.81333
-3.51828
-2.30846
-2.31392
-2.31588
-2.29432
-2.30863
-2.30964
-2.30392
-2.31037
-2.30416
-2.32434
-2.29908
-2.29428
-2.30616
-2.30339
-1.83721
-1.8053
-1.8361
-1.78099
-1.77504
-1.81113
-1.81085
-1.55735
-1.5944
-1.54509
-1.62117
-1.62863
-1.57969
-1.58977
-1.05167
-1.07665
-1.05488
-1.02855
-1.03493
-1.06337
-1.03932
-1.10889
-1.04767
-1.02222
-0.97004
-0.919996
-0.973351
-1.00692
-0.0983551
-0.0962188
-0.074507
-0.0949032
-0.109518
-0.0986636
-0.0802479
-0.0955215
-0.111225
-0.0726213
-0.0869592
-0.102311
0.388432
0.382963
0.374727
0.366571
0.356162
0.368983
0.375919
0.578001
0.616137
0.620096
0.677112
0.62714
0.647732
0.603465
1.23147
1.31158
1.25649
1.27219
1.21369
1.28478
1.22636
3.27538
2.73764
3.51511
3.87127
5.62136
2.43093
6.25527
1.39975
1.35252
1.40395
1.40472
1.43977
1.37825
1.41617
1.3489
1.31846
1.32106
1.29525
1.32232
1.30571
1.33447
1.22716
1.23553
1.2326
1.23142
1.2162
1.2245
1.23378
0.0956442
0.0800633
0.0337326
-0.0219855
0.00542859
0.0322784
0.0546246
-0.733885
-0.73667
-0.807175
-0.723064
-0.664824
-0.696969
-0.763078
-1.39101
-1.35865
-1.39302
-1.4401
-1.40781
-1.39454
-1.42537
-1.38955
-1.40434
-1.43624
-1.34248
-1.37648
-1.96297
-1.96298
-1.99186
-1.96095
-1.93168
-1.94561
-1.97465
-2.20294
-2.17106
-2.19133
-2.23091
-2.21037
-2.18913
-2.20917
-2.4189
-2.39014
-2.40765
-2.44328
-2.42507
-2.40549
-2.42311
-2.92132
-2.92909
-2.93985
-2.91664
-2.92977
-2.93095
-2.93928
-2.93259
-2.92584
-2.93142
-2.93748
-2.93067
-2.9221
-2.94146
-2.93846
-2.93766
-8.50987
0.248244
2.24158
-4.20278
7.4327
-1.63151
-0.0165721
-2.60315
-2.5987
-2.61072
-2.62364
-2.62895
-2.6138
-2.62001
-2.35209
-2.35084
-2.33417
-2.35715
-2.37345
-2.36388
-2.34788
-2.12944
-2.14936
-2.13231
-2.16816
-2.1631
-2.15143
-2.14461
-1.83829
-1.79424
-1.81508
-1.80043
-1.835
-1.7997
-1.83676
-1.45805
-1.4894
-1.47918
-1.42474
-1.44904
-1.47185
-1.45562
-1.15582
-1.14632
-1.15246
-1.20048
-1.15063
-1.19699
-1.1443
-0.588933
-0.631978
-0.653143
-0.699248
-0.694381
-0.657913
-0.640416
-0.308047
-0.28718
-0.31464
-0.317822
-0.351192
-0.30001
-0.327375
4.54622
4.67015
11.658
3.11175
2.77608
2.13328
6.95458
84.2159
65.4161
59.6422
68.8028
49.9078
83.5252
65.1603
83.2062
83.0904
90.0872
64.8273
64.9174
71.5291
71.1619
72.8096
91.0666
73.8507
1.49431
1.46904
1.4864
1.52181
1.50174
1.48426
1.50311
1.44995
1.43298
1.42541
1.40795
1.42279
1.42254
1.43817
1.30283
1.31517
1.31074
1.3322
1.3181
1.31122
1.32212
1.26189
1.26996
1.26781
1.26436
1.28177
1.27442
1.26217
-0.932731
-0.942651
-0.982861
-0.918338
-0.880088
-0.910022
-0.948848
-1.297
-1.26632
-1.2624
-1.26599
-1.23311
-1.21558
-1.24694
-1.26767
-1.31687
-1.28451
-2.24614
-2.22666
-2.21954
-2.18696
-2.20539
-2.20362
-2.22227
-2.95661
-2.96478
-2.96487
-2.93984
-2.98082
-2.94639
-2.96738
-2.96947
-2.95738
-2.94303
-2.93715
-2.96709
-3.01242
-2.98419
-2.95865
-2.96389
-2.99633
-2.95326
-2.92567
-3.00005
-2.95016
-2.93657
-2.93669
-2.9512
-2.91449
-2.92531
-2.85993
-2.90159
-2.97659
-2.92817
-2.50225
-2.4778
-2.50009
-2.49641
-2.52079
-2.48687
-2.51049
-1.95583
-1.96631
-1.97911
-2.00505
-2.00356
-1.98922
-1.98506
-1.39388
-1.41871
-1.4244
-1.45333
-1.44614
-1.43933
-1.42482
-0.684044
-0.648792
-0.686626
-0.692119
-0.724271
-0.671932
-0.706365
-0.299898
-0.186244
-0.259141
-0.357903
-0.475673
-0.279426
-0.345607
0.27349
0.26799
0.337404
0.333179
0.339723
0.285933
0.298676
-0.460947
-0.544694
-0.396613
-0.340213
-0.298863
-0.540903
-0.427409
1.74359
1.76091
1.73366
1.70326
1.71998
1.70288
1.71751
60.3599
51.9338
69.3166
55.4164
58.1934
75.994
43.9429
28.3529
38.8762
56.2077
68.4681
66.7769
87.926
69.051
48.5686
1.16762
1.14015
1.15745
1.14159
1.1793
1.14007
1.17377
0.807143
0.760656
0.718355
0.901274
0.879696
0.821113
0.814389
0.244436
0.224948
0.237515
0.189853
0.141017
0.219352
0.189474
-0.31299
-0.346182
-0.301078
-0.308286
-0.259268
-0.334022
-0.283499
-0.501987
-0.468605
-0.462219
-0.423834
-0.453774
-0.444166
-0.47666
-0.820581
-0.78184
-0.774884
-0.730081
-0.766979
-0.75498
-0.794556
-0.906762
-0.937379
-0.906709
-0.899064
-0.868457
-0.914524
-0.882739
-1.06197
-1.0288
-1.02516
-0.984252
-1.01667
-1.00391
-1.03651
-1.02215
-1.05837
-1.02636
-0.98083
-1.01316
-1.03232
-0.999971
-0.908105
-0.941104
-0.902576
-0.89405
-0.86131
-0.915622
-0.883119
-0.933023
-0.880197
-0.918595
-0.982876
-0.942791
-0.910058
-0.948872
-1.49002
-1.54822
-1.50118
-1.51536
-1.45189
-1.53242
-1.47036
-1.97443
-2.0012
-1.91246
-1.95812
-2.00961
-2.03162
-1.95666
-2.71572
-2.77421
-1.84529
-2.6188
-2.95879
-3.09783
-2.61604
-2.92734
-2.90573
-2.89762
-2.90262
-2.92677
-2.88251
-2.90577
-2.91466
-2.93768
-2.91056
-2.78269
-2.78
-2.80668
-2.74185
-2.76683
-2.78113
-2.75618
-1.77923
-1.79198
-1.75277
-1.76565
-1.80512
-1.8011
-1.75865
-0.723907
-0.69187
-0.686065
-0.648172
-0.684112
-0.671909
-0.7063
-0.315364
-0.300297
-0.301716
-0.302477
-0.273248
-0.305723
-0.294678
-0.448187
-0.521854
-0.476016
-0.385515
-0.44454
-0.491277
-0.442594
1.26082
1.2704
1.24475
1.2565
1.28344
1.28063
1.25296
1.15128
1.16197
1.13203
1.17799
1.15389
1.17652
1.14821
0.75812
0.842155
0.878189
0.879558
0.882995
0.814779
0.881921
-0.790363
-0.780767
-0.823021
-0.779846
-0.74793
-0.806176
-0.773336
-0.682311
-0.647665
-0.65142
-0.623052
-0.650673
-0.636361
-0.666758
-2.39018
-2.19182
-2.26743
-2.32319
-2.27683
-2.24231
-2.28731
-2.66546
-2.65027
-2.6498
-2.62615
-2.6701
-2.63714
-2.66932
-2.92331
-2.92452
-2.93629
-2.89839
-2.89795
-2.90764
-2.90648
-2.6509
-2.61759
-2.64056
-2.68593
-2.66189
-2.64079
-2.6641
-1.43222
-1.43614
-1.47109
-1.42465
-1.4242
-1.44957
-1.42639
-1.25941
-1.27875
-1.28224
-1.31832
-1.29068
-1.28101
-1.30801
-0.663613
-0.615252
-0.610392
-0.711808
-0.69674
-0.655156
-0.652423
-0.576217
-0.685771
-0.694526
-0.842072
-0.709946
-0.796285
-0.651393
-0.146204
-0.0966458
-0.134932
-0.133197
-0.16125
-0.110279
-0.151404
0.257343
0.288227
0.257407
0.252574
0.237825
0.257772
0.263586
0.25877
0.19743
0.243944
0.309025
0.2613
0.25099
0.231438
0.125349
0.108176
0.0960303
0.173383
0.0640974
0.0590551
0.162897
-0.805993
-0.842954
-0.804643
-0.704377
-0.725552
-0.778497
-0.754943
1.49013
1.49883
1.51461
1.48414
1.46679
1.4819
1.4999
48.6852
58.1958
28.0298
79.2408
60.8043
70.4256
51.8391
37.0197
56.892
89.0531
80.2875
79.8345
70.3229
60.9009
28.3854
46.8241
57.056
66.8602
1.58875
1.74882
1.61351
1.65336
1.66932
1.65399
1.62421
1.15524
1.16875
1.14835
1.13334
1.15515
1.16077
1.15057
0.865721
0.863413
0.872572
0.851662
0.896001
0.84542
0.882878
0.489571
0.497268
0.396928
0.46254
0.571066
0.540995
0.425916
0.0518733
0.0452776
0.0963508
0.149502
0.150582
0.104442
0.092801
-0.415373
-0.388598
-0.418959
-0.415478
-0.443658
-0.46258
-0.432889
-0.41281
-0.370595
-0.397682
-0.811775
-0.750585
-0.748324
-0.737168
-0.686089
-0.713032
-0.769185
-8.09683
2.07348
-13.2077
0.684072
-12.1949
-3.80429
0.901877
-2.5207
-2.40354
-2.40572
-2.46542
-2.37726
-2.33291
-2.42247
-2.25706
-2.33695
-2.28446
-2.1805
-2.24657
-2.30474
-2.2203
-2.39943
-2.42044
-2.42296
-2.44527
-2.42469
-2.43253
-2.41201
-2.47774
-2.5022
-2.50003
-2.52074
-2.49646
-2.51042
-2.48692
-2.89299
-2.87912
-2.90332
-2.8905
-2.90439
-2.93265
-2.87711
-2.90153
-2.90121
-2.83526
-2.86748
-2.87946
-2.9137
-2.88545
-2.88496
-2.85579
-2.93296
-2.90073
-2.89739
-2.89936
-2.87076
-2.87072
-2.83599
-2.88662
-2.92031
-2.93029
-2.89582
-2.86979
-2.90331
-2.66793
-2.21131
-2.27059
-2.48082
-2.49857
-2.38184
-2.64096
-1.73678
-1.74066
-1.74891
-1.75885
-1.78214
-1.74956
-1.77341
-1.59506
-1.56176
-1.55619
-1.59596
-1.56522
-1.52977
-1.54916
-1.58025
-1.55144
-1.24731
-1.26974
-1.28183
-1.19875
-1.1544
-1.15373
-1.14956
-1.14848
-1.15402
-1.16293
-1.12983
-0.995294
-1.04169
-0.937862
-0.955045
-1.0057
-1.01285
0.677278
0.700474
0.725629
0.785036
0.732087
0.755276
0.713577
1.32113
1.31859
1.34886
1.32235
1.29526
1.3057
1.33447
57.2745
65.6163
85.7928
45.9071
68.5167
68.3365
0.828032
0.821526
0.850913
0.885262
0.881105
0.859159
0.858747
0.190342
0.225126
0.226103
0.292618
0.256561
0.255407
0.209985
-0.329856
-0.29998
-0.29854
-0.302607
-0.276085
-0.258702
-0.284422
-0.347261
-0.318648
-0.303538
0.0177806
-0.049305
0.0167522
0.0495097
0.0189276
-0.0177443
0.0374347
-1.61981
-1.41754
-1.41179
-1.2388
-1.34058
-1.32277
-1.48013
-5.30094
-4.31391
-5.64287
-4.80848
-6.14014
-4.41233
-5.30333
7.91377
-1.26247
7.0132
-11.5845
13.0807
2.03774
-6.73579
-2.48615
-2.54856
-2.53456
-2.42948
-2.45333
-2.4938
-2.4687
-2.3017
-2.27917
-2.30835
-2.31514
-2.30918
-2.28183
-2.30599
-2.33943
-2.3438
-2.36383
-2.31879
-2.31957
-2.32908
-2.33307
-2.35215
-2.3727
-2.35697
-2.33396
-2.35127
-2.364
-2.34776
-2.30324
-2.32937
-2.32275
-2.34024
-2.3167
-2.3339
-2.30991
-2.75305
-2.77815
-2.74605
-2.71004
-2.74558
-2.75296
-2.71739
-3.0259
-2.9458
-2.80614
-3.0902
-3.38998
-3.21709
-2.94097
-1.95288
-2.00631
-2.01322
-2.08573
-2.03035
-2.04178
-1.98065
-1.79109
-1.80774
-1.7866
-1.79412
-1.76673
-1.7765
-1.80588
-1.82228
-1.78531
-1.82041
-1.79281
-1.73973
-1.81874
-1.77844
-1.53956
-1.54804
-1.51281
-1.52445
-1.54427
-1.50751
-1.53821
-1.51196
-1.55638
-1.5275
-1.33573
-1.30849
-1.33293
-1.36287
-1.31983
-1.31491
-1.35359
-1.31762
-1.31641
-1.32455
-1.30254
-1.33303
-1.30891
-1.32145
-1.14806
-1.11957
-1.15153
-1.11001
-1.17962
-1.16857
-1.11766
-1.00409
-1.00533
-0.999739
-1.04831
-0.960642
-0.962552
-1.03598
-0.642691
-0.601801
-0.623356
-0.67363
-0.668871
-0.631643
-0.645902
-0.286809
-0.237296
-0.284331
-0.291827
-0.342379
-0.272505
-0.321325
1.06632
1.05166
1.03417
1.09122
1.09304
1.07413
1.06436
1.31487
1.30268
1.31034
1.318
1.33206
1.31116
1.32195
41.2105
58.6978
61.8369
84.4514
65.6957
72.3359
54.0975
84.417
84.8564
91.9415
65.8538
66.0384
83.0885
82.6789
64.1754
63.741
81.1519
81.6335
93.4192
74.3926
63.1126
61.8778
51.1479
30.5848
69.4197
49.377
-4.0032
11.3987
2.11878
0.860121
2.23845
-0.194078
13.7966
1.21288
1.1946
1.17874
1.19805
1.23052
1.20154
1.17685
0.52446
0.454335
0.519286
0.552864
0.521371
0.466887
0.538018
0.293365
0.32781
0.271166
0.336748
0.390257
0.300991
0.33577
1.00962
0.972138
0.978818
0.942458
0.973673
0.956456
0.992244
0.210592
0.249391
0.213701
0.270496
0.278603
0.250443
0.239526
0.130352
0.202569
0.179639
0.244364
0.145461
0.217873
0.143033
-0.106918
-0.0109318
-0.0584751
-0.00250721
-0.0787505
-0.00250252
-0.0857609
0.320703
0.216274
0.260702
0.210278
0.307779
0.211408
0.31742
-3.86217
-3.66246
-3.43346
-2.62534
-9.86667
-4.8376
-4.85524
-2.70572
-2.59718
-2.62503
-2.76649
-2.81147
-2.71523
-2.69545
-2.31403
-2.32689
-2.34091
-2.30142
-2.28726
-2.30611
-2.32033
-5.15208
-5.16791
-5.07715
-5.10904
-5.19283
-5.21164
-5.07132
-1.72922
-1.76252
-1.78154
-1.75622
-1.7215
-0.877237
-0.814641
-0.814151
-0.76169
-0.815218
-0.791836
-0.852297
-0.415345
-0.429805
-0.379065
-0.482961
-0.440709
-0.451523
-0.410743
1.29484
1.27714
1.2997
1.31983
1.29492
1.28771
1.31231
1.36968
1.38107
1.35938
1.34234
1.33461
1.35863
1.34918
61.8141
52.7111
71.6328
0.25102
0.275976
0.245707
0.230753
0.207742
0.221822
0.247745
0.116158
0.136045
0.140399
0.138916
0.164172
0.182617
0.154364
0.251506
0.265547
0.294609
0.0975932
0.124758
0.137168
0.704665
0.728237
0.741891
0.764568
0.742668
0.704258
0.726257
0.743541
0.722301
0.82347
0.80327
0.825428
0.803192
0.822223
0.835059
0.81613
0.825391
0.794096
0.846991
0.827714
0.825672
0.805767
0.794033
57.5883
61.1676
79.8584
53.5132
34.9006
47.3603
66.415
75.0836
75.7575
88.9559
70.8001
56.4499
58.5471
36.057
53.5566
81.0591
62.4938
48.8838
67.0322
76.164
76.7495
90.2821
71.8997
59.0511
1.46248
1.19811
1.96112
1.22007
1.7065
1.36671
1.71776
0.849649
0.82118
0.850249
0.874882
0.851745
0.837673
0.864013
0.497262
0.608556
0.537229
0.610122
0.478094
0.623579
0.472364
0.401946
0.522446
0.517414
0.588153
0.48293
0.554704
0.422779
0.886431
0.859434
0.861212
0.879615
0.842829
0.858109
0.886222
0.656045
0.579463
0.611795
0.497685
0.592806
0.538113
0.612695
0.417177
0.509783
0.464655
0.516288
0.415212
0.519135
0.41898
-2.53456
-2.48165
-2.55613
-2.55176
-2.6537
-2.51299
-2.5941
-2.4955
-2.34176
-2.70074
-2.28662
-2.35479
-2.2594
-2.53339
-2.79775
-2.74528
-2.7761
-2.77826
-2.80928
-2.76237
-2.80577
-2.83039
-2.78212
-2.74191
-2.77674
-2.82031
-2.45245
-2.50038
-2.42847
-2.3427
-2.43173
-2.46198
-2.49971
-2.40774
-0.53717
-0.622889
-0.603886
-0.706111
-0.608239
-0.569255
-0.651344
0.32707
0.28612
0.331555
0.229264
0.24418
0.273534
0.285216
1.24248
1.25458
1.19711
1.27248
1.31239
1.27465
1.23054
1.162
1.15213
1.13227
1.15304
1.17745
1.17607
1.14769
1.20141
1.21076
1.18774
1.16727
1.15971
1.18738
1.17903
1.25941
1.28175
1.25565
1.24457
1.26937
1.28004
1.25298
84.7201
67.1513
60.6707
84.0699
66.221
68.8246
50.7204
86.5949
85.9069
93.9193
67.754
68.1069
75.3487
75.6346
74.383
91.569
73.7365
1.23032
1.09322
1.20102
1.09469
1.38286
1.16326
1.28165
1.01796
1.00617
0.979943
1.03818
0.983466
0.996562
0.977774
0.563999
0.600965
0.577091
0.537394
0.561671
0.585283
0.561219
0.559931
0.547364
0.524672
0.685292
0.663765
0.65817
0.746579
0.758006
0.778303
0.623887
0.657462
0.68625
0.663767
0.641161
0.829471
0.861342
0.836761
3.17006
2.58599
2.2061
5.11001
5.16543
2.93069
8.52114
73.17
63.8585
91.8735
55.9137
70.7772
72.249
71.9239
71.4721
92.9811
83.943
83.4574
62.2824
61.7817
62.1272
49.124
31.3669
69.8405
47.7682
63.1776
54.1125
71.4453
1.28288
1.21974
1.1936
1.25209
1.32384
1.18711
1.26042
1.22907
1.25565
1.23396
1.18797
1.21298
1.22559
1.20384
1.1173
1.13415
1.15202
1.10699
1.13996
1.14437
1.11568
0.985732
0.980555
0.925561
0.994088
0.965836
0.989207
0.955117
0.687201
0.723378
0.770277
0.838147
0.873591
0.796355
0.792933
0.176933
0.0709947
0.15211
-0.0280262
-0.00218445
0.0777262
0.0787224
-1.66541
-1.73418
-1.74992
-1.61107
-1.6051
-1.67764
-1.69028
-1.69745
-1.66748
-1.70816
-1.72114
-1.68947
-1.67809
-1.71506
-1.75355
-1.79488
-1.78396
-1.80953
-1.77198
-1.80334
-1.76109
-1.94271
-1.86224
-1.90023
-1.95936
-1.82064
-2.00115
-1.85191
-2.34081
-2.4265
-2.49439
-2.27165
-2.16941
-2.30047
-2.37969
-2.8464
-2.89043
-2.88098
-2.80339
-2.7934
-2.83607
-2.83641
-2.9362
-2.9302
-2.95989
-2.91964
-2.92832
-2.90817
-2.90062
-2.88485
-2.91183
-2.92606
-2.91659
-2.89957
-2.8974
-2.87077
-2.89351
-2.89067
-2.87418
-2.85769
-2.90519
-2.86063
-2.89123
-2.90936
-2.93814
-2.92977
-2.91949
-141.454
-131.383
-122.996
-95.9198
-124.598
-141.201
-168.801
-119.177
-114.246
-3.09847
-2.66916
-2.90647
-0.769078
-4.74841
-2.16027
-3.43039
-3.20932
-3.14583
-2.99858
-2.91912
-2.65763
-160.94
-135.693
-144.891
-473.825
-494.104
-474.239
-469.997
-454.983
-456.472
-463.993
-475.774
-490.587
-486.363
-501.08
-478.851
-474.84
-464.197
-476.328
-486.398
-463.401
-476.841
-466.033
-494.93
-474.186
-474.311
-442.456
-465.664
-472.304
-455.493
-481.243
-504.689
-491.382
-495.167
-484.617
-479.224
-490.661
-480.97
-471.602
-484.528
-479.254
-471.792
102.879
-13.9388
9.41497
-8.61623
-13.9386
-15.455
-30.0173
-2.87739
-2.89895
-2.90167
-2.92644
-2.90855
-2.90077
-2.92825
-2.93674
-2.90777
38.5525
60.1077
61.5287
84.1537
66.0799
58.2183
77.758
85.5183
64.919
74.4141
72.0229
93.6086
44.8226
57.1182
26.1235
-2.90052
-2.86148
-2.88953
-2.93833
-2.91718
-2.91623
0.502015
0.40026
0.479763
-0.0799626
-0.0340713
-0.0646551
-0.375771
-0.336595
-0.322855
-0.368447
0.473349
0.390788
0.486218
-2.14879
-2.16839
-2.16046
-0.0795411
-0.065018
-0.0333637
-2.14391
-2.2596
-2.08617
0.426476
0.491903
0.42562
0.443063
-2.3404
-2.21412
-2.28862
-2.14328
-2.12922
-2.14785
-2.12932
0.17006
0.137704
0.147404
0.186562
-0.102481
-0.131254
-0.0701299
-0.099961
1.14973
1.14372
1.18758
1.16787
1.20347
1.18502
1.2068
1.19401
1.18034
1.19224
-0.131236
-0.102625
-0.101047
-0.0702863
0.241098
0.251178
0.19179
0.218642
0.257903
0.259444
0.214668
0.246609
0.278122
0.221337
1.15104
1.14482
1.2072
1.1948
1.19266
1.18101
-0.378625
-0.369713
-0.424367
-0.399828
-0.404718
-0.464748
-0.423982
-0.458547
-2.29848
-2.31091
-2.30144
-2.3114
1.80054
1.52028
2.09464
1.46834
-2.67767
-2.66189
-2.63156
-1.99407
-2.02509
-1.99119
-2.02193
2.94737
5.45164
3.45928
6.67367
0.510239
0.617707
0.39772
0.589982
-2.62786
-2.60223
-2.59069
0.963923
1.00164
0.261273
0.283228
0.272517
0.296807
1.34859
1.34589
1.34597
1.34864
-2.2641
-2.33743
-2.91777
-2.89253
-2.88477
-2.87032
63.822
46.2047
74.714
49.2809
-2.67936
-2.60555
-2.68531
-2.60986
1.0393
1.05611
1.03945
1.07364
-0.356077
-0.394535
-0.241664
-0.333117
-3.89402
-4.02646
-3.3987
-3.67647
-2.46603
-2.56906
1.5217
1.56445
1.49949
1.56037
1.28973
1.13363
1.33437
1.08282
0.989381
0.967302
1.02303
0.996655
-0.40447
-0.519367
-93.14
-85.5107
-2.77589
-2.74783
-2.79001
-2.74385
-0.102851
-0.0409419
-0.28189
-0.0776179
-0.0402048
-0.113951
-0.0628952
-0.279775
-2.59588
-2.5943
-2.76169
-2.77496
-2.75635
-2.77975
0.257986
0.260499
0.295652
0.308118
-2.7339
-2.76852
-2.89192
-2.85931
1.32171
1.31003
-1.27689
-1.24576
-1.28157
-1.23574
7.1323
13.4442
49.8682
15.924
16.3512
43.1333
52.5417
0.54815
0.573907
0.551166
0.588272
0.82059
0.83784
0.853502
50.1395
41.094
16.4569
8.65289
40.6369
49.9132
-3.37664
-3.61958
-1.22972
-1.22979
-1.271
-1.33276
-1.33343
-1.30123
-2.98144
-2.96466
-2.92182
-2.86644
-2.89411
-2.8597
-2.47717
-2.49125
1.17818
1.18316
1.1444
1.16836
1.18322
1.17799
1.1678
1.14458
1.60562
1.60013
1.57301
1.57957
0.440601
0.421233
0.443741
0.457123
-0.4831
-0.566293
-0.473619
-0.467304
-0.565404
-0.489303
0.291118
0.336561
-2.61227
-2.55817
1.28133
1.22368
-0.164008
-0.22456
-0.0641996
-0.162506
1.22883
1.29389
-1.98435
-3.71159
35.8472
-41.6261
1.22126
1.21645
1.19897
1.18182
0.228175
0.255185
0.264208
0.27717
1.37597
1.35603
-2.23169
-2.2474
-2.23179
-2.25791
-2.31801
-2.30894
-171.546
-168.616
-131.288
-132.437
-1.92952
-1.91288
-1.88041
-1.87004
1.60296
1.63237
1.68262
1.67635
-6.65904
-2.62949
-7.77739
-7.18966
-0.27102
-0.268314
-0.0457169
0.0627189
-0.733135
-0.714435
-0.748537
-0.715709
1.66643
1.70281
1.37437
1.42583
-2.09919
-2.09599
-2.07711
-2.05805
-2.26132
-2.24437
-2.80117
-1.77019
-2.73326
-2.71837
2.208
1.51928
-383.237
0.135255
-0.150743
-0.333051
0.186223
-1.42413
-1.39626
-1.4287
-1.38417
-1.81635
-1.88508
0.305083
0.341909
-2.11675
-2.13167
-0.0060022
-0.00764686
-0.10431
-0.0741871
1.05186
1.03487
0.424533
0.471042
0.346264
0.369163
18.7473
22.1311
45.0985
-2.11938
-2.13708
-2.15569
-2.16625
-1.00122
-0.989176
-1.05305
-1.02456
-2.18082
-2.15819
-2.20686
-2.17926
-0.337228
-0.368493
-1.5623
-1.58228
-1.55017
-1.57241
0.770957
0.800959
0.72129
0.747954
-1.85301
-1.8244
-1.53818
-1.57121
-1.49965
-1.55821
-1.4513
-1.54349
1.52483
1.60205
-2.64141
-2.63389
-2.22659
-2.24642
-2.23578
-2.2636
-2.25535
-2.24119
1.35761
1.34328
1.36321
1.34151
-5.47108
-5.50833
-4.76469
-4.88977
-2.76307
-2.754
-2.79076
-2.78835
-2.15776
-2.18057
-2.17842
-2.20712
-0.368778
-0.33731
-1.07984
-1.061
0.393342
0.361004
0.329812
0.299239
0.334802
0.349805
0.264185
0.320914
0.208598
0.260178
0.0602879
0.167221
0.221317
0.173232
0.098437
0.031308
-2.87033
0.311165
0.358417
0.519855
0.498823
0.536258
0.504229
-2.18118
-2.16152
-2.12826
-2.11225
1.34329
1.35763
1.34152
1.36321
0.909618
0.895777
0.867248
0.864215
0.496596
0.517505
0.502313
0.535833
1.24319
1.39908
1.42715
1.28751
-2.12321
-2.13037
-0.50276
-0.464959
16.4165
21.969
-0.783434
-0.764067
-0.832808
-0.823343
-1.68214
-1.70465
-1.64166
-1.65934
1.34959
-6.83361
3.0145
3.56269
-72.3657
-77.3383
2.22216
1.63964
-2.40074
-3.18976
-9.38386
-1.10261
-0.787319
-0.769923
-2.1791
-2.17802
0.584752
0.625463
-0.0954191
-0.0924753
-0.144264
-0.161469
-65.8435
-56.1238
-0.0859391
-0.0932209
-0.159302
-0.142783
-0.771691
-0.714362
-2.97421
-2.98073
0.479382
0.503671
0.975965
-1.43136
-1.45014
-1.42078
-1.44092
-0.0327925
0.00896146
-0.129474
-0.0435437
-1.33559
-1.3378
-0.978989
-0.900333
-1.04656
-0.9244
-1.44612
-1.45207
-1.37688
-1.40707
-2.2192
-2.19897
-1.45228
-1.44623
-1.40673
-1.37677
-2.85437
-2.83905
-2.83908
-2.8544
-5.25454
-5.82041
-5.36696
-6.00946
-0.523854
-0.636101
-0.405631
-0.460299
-0.400097
-0.522176
-1.90944
-1.89583
1.69134
1.70577
2.7696
1.61278
0.940708
0.949283
1.75515
1.77508
1.7371
1.76529
1.76038
1.7526
1.75468
1.72631
0.964746
0.986725
-1.53184
-1.57831
-6.30739
-5.18876
-2.77034
-3.16006
-0.297567
-0.35998
-0.221404
-0.304216
0.931013
0.899968
-3.73837
-4.00497
1.00114
1.03049
0.953304
0.975508
1.27787
1.2526
4.36521
9.59242
6.04966
12.1305
0.24522
0.22705
0.243784
0.220629
0.128218
0.194727
-0.0255493
-0.0384487
-0.0803139
-0.0959139
-2.36329
-2.3873
-2.30211
-2.30833
0.221809
0.357412
0.226059
0.291909
-2.53695
-2.55666
-2.4169
-2.43964
0.747771
0.731673
0.703809
0.697833
-2.417
-2.43979
-0.429752
-0.41089
-0.377551
-0.370531
0.19268
0.125875
1.54824
1.54796
1.07924
1.15107
0.856699
0.765872
-1.90146
-1.94084
-44.1845
-32.0965
-70.7741
-64.7494
-2.33008
0.720108
0.729216
0.729056
-1.03449
-1.0074
-1.60455
-1.62794
-1.65702
-1.67467
0.219701
0.236195
0.205151
0.234623
-0.459991
-0.455543
-0.424935
-0.413472
-0.293875
-0.300516
-2.51344
-2.49083
-2.27265
-1.90834
1.05962
1.10037
0.999551
1.01775
1.08868
1.05426
1.02849
0.996669
-2.51354
-2.49091
-2.19688
-2.19793
1.34511
1.35784
-2.68863
-2.68845
-2.68912
1.30758
1.2565
0.656681
0.656407
0.613666
0.600015
0.168655
0.216207
0.592137
0.563116
0.57624
0.55318
-2.59193
-1.40152
-2.20513
-2.68069
-404.715
-393.053
0.905253
0.915292
0.210632
0.224469
0.460968
0.406063
0.457077
0.406706
-3.0806
-4.08005
-2.52476
-2.54786
1.48133
-0.350713
-1.32542
-2.69013
-0.842337
-0.828529
-0.828328
-0.842437
-0.769425
-0.732257
1.27542
1.26914
1.29305
1.25593
-2.00077
-2.05203
-2.0013
-2.05037
-333.562
-337.592
1.80138
1.69061
1.72448
1.63332
-2.51406
-2.54447
-2.0212
-2.03102
0.153143
0.194549
0.199041
0.24701
-1.00791
-1.01313
-0.402231
-0.454294
-0.340279
-0.419993
-1.77399
-1.79853
1.331
-0.481353
-0.473773
1.33109
1.20265
1.19255
-0.0936268
-0.142796
-0.144756
-0.200835
-2.03168
-2.01796
-2.56087
-2.54791
-2.57102
-2.54529
-2.02089
-2.03082
-2.09432
-2.08372
-378.184
2.96348
2.86228
7.26808
1.41424
1.39705
-1.01415
-0.981955
-0.775682
-0.801888
-2.28125
-2.27496
-2.34536
-2.34985
-2.31891
-2.28278
-2.27699
-2.48653
-2.48661
-2.41498
-2.39865
1.19503
1.17902
-0.380489
-0.405953
-0.860626
-0.865331
-0.819781
-0.829558
-2.00028
-2.01374
-3.24452
-3.11458
1.25521
1.25749
-0.469179
-0.437744
-3.98207
-4.04492
-3.47293
-4.00705
-0.12994
-0.0711396
-0.28373
-0.263129
-1.05218
-1.02706
-0.166236
-0.189788
-2.05265
-2.07547
-2.05284
-2.07543
-1.74941
-0.5326
-1.48029
-1.48107
-3.20003
-3.11509
-1.74538
-1.7814
-2.54252
-2.5619
-1.47956
-1.48021
-1.2186
-0.35682
-0.0744638
-0.1315
1.05589
1.43511
-0.297612
-0.317629
0.51648
0.631651
-0.440828
-0.519831
0.546628
0.6413
0.0599759
0.0811643
0.0737808
0.136789
1.41806
1.39981
0.0884319
0.0761133
0.109312
0.0772236
0.45471
0.462036
-3.541
-3.40121
-4.13914
-4.23021
0.299736
0.294029
-2.4115
-2.40699
-2.82804
-2.81447
-2.41151
-2.40708
-1.80131
-1.82786
-1.8028
-1.82884
0.395882
0.408506
0.420738
0.420311
1.5325
1.54104
-2.19133
-2.17204
1.52956
1.53806
-0.255913
-0.255253
-0.283443
-0.286218
0.535328
0.52053
-2.85249
-2.88261
-2.92337
-2.62086
-3.13397
-2.79198
0.184612
0.248523
-0.704924
-0.676687
-0.676603
-0.704877
1.44602
1.54518
1.08022
1.07421
1.08067
1.07383
0.895414
0.886764
-2.36582
-2.34808
0.53541
0.520492
0.452914
0.39738
0.1002
0.163932