/*--------------------------------*- C++ -*----------------------------------*\
| =========                 |                                                 |
| \\      /  F ield         | OpenFOAM: The Open Source CFD Toolbox           |
|  \\    /   O peration     | Version:  v2012                                 |
|   \\  /    A nd           | Website:  www.openfoam.com                      |
|    \\/     M anipulation  |                                                 |
\*---------------------------------------------------------------------------*/
FoamFile
{
    version     2.0;
    format      ascii;
    class       volScalarField;
    location    "0.1";
    object      p_rgh;
}
// * * * * * * * * * * * * * * * * * * * * * * * * * * * * * * * * * * * * * //

dimensions      [1 -1 -2 0 0 0 0];


internalField   nonuniform List<scalar> 
24700
(
2827.49
2806.22
2870.85
2792.3
2793.97
2879.83
2849.49
2832.08
2776.82
2777.75
2800.63
2803.74
2792.49
2824.06
2816.47
2812.26
2809.24
2857.1
2845.88
2811.01
2891.59
2890.99
2818.97
2809.98
2914.52
2855.21
2863.79
2826.26
2858.86
-0.00850305
-0.0261816
-0.00365122
-0.0209294
-0.0232506
-0.0127428
-0.0112948
-0.0497519
-0.224124
-0.308369
-0.612493
-0.333682
-0.484849
-0.0899588
-0.225796
0.315647
0.284806
-0.347951
-0.150944
0.0133535
0.0195104
1.53633
1.54639
1.54845
1.48147
1.56309
1.52444
1.55972
3.04662
3.68209
1.78884
12.1144
19.3963
2.9145
6.42695
-0.0649006
-0.0990284
-0.0752465
-0.0382173
-0.0526566
-0.0843279
-0.059129
-1.26659
-1.08127
-1.35671
-0.751852
-0.930464
-1.2253
-1.01301
1456.15
236.478
2708.28
1455.47
150.534
2152.75
2602.81
-0.418194
-0.563088
-0.428605
-0.294342
-0.34828
-0.467691
-0.362789
-0.0265576
-0.0189726
-0.0218448
-0.016158
-0.0254334
-0.0170995
-0.0256005
0.116064
0.108778
0.106447
0.123431
0.12513
0.117219
0.116011
0.395652
0.385563
0.376515
0.36271
0.37161
0.376208
0.385808
0.0234373
0.0203397
0.0263381
0.0287288
0.0338276
0.0336126
0.0255622
0.0240701
0.0219339
0.0167791
0.00614877
0.0031068
0.00717031
0.0100832
0.0144018
0.00788146
0.0111512
0.00541952
0.00590939
0.00122626
0.00459338
0.00864011
0.0224487
0.0185644
0.0192977
0.0148841
0.0179087
0.0206454
0.0171633
-0.00299531
-0.00590517
0.00231005
-0.000123245
-0.00774348
-0.00694311
0.00109389
0.00861057
0.220116
-0.314638
-0.197789
-0.375507
-0.00692714
-0.143663
1.20772
1.23108
1.21242
1.23075
1.19024
1.24102
1.22586
1.17308
1.1675
1.20992
1.20477
1.20561
1.17718
1.18653
1.053
1.24504
1.05429
1.105
1.10756
1.13836
1.06281
1.12639
1.16694
1.15268
1.1635
1.13684
1.16426
1.12453
1.08348
1.05712
1.10173
1.07621
1.13212
1.063
1.09432
1.3838
1.38156
1.40047
1.4199
1.41204
1.40351
1.40008
1.35444
1.43309
1.3612
1.4888
1.53118
1.44653
1.42704
1637.43
1545.58
1941.03
1525.26
1904.29
1954.32
1888.56
-0.0733817
2.25303
1.21515
-0.270653
-0.0896838
2.41116
2.48555
0.961535
0.931369
0.944155
0.898492
0.923008
0.91785
0.941242
1.00192
1.01639
1.01086
1.02718
0.994095
1.02547
0.998051
1.16902
1.15476
1.18375
1.13436
1.14696
1.16021
1.13623
1.00232
1.00564
0.993322
0.999418
1.00586
1.00576
0.99585
4.47749
4.46509
4.63288
4.90411
4.82629
3.72635
95.7936
96.81
96.9903
95.603
91.573
94.493
108.113
21.126
45.2644
13.5431
9.41243
8.11278
14.1723
5.06938
20.4575
27.7637
25.5733
16.1188
26.5323
10.4404
1.36257
1.86897
1.38769
3.11262
1.39783
1.33414
1.35651
1.63066
1.62751
1.71899
1.5867
1.69309
1.55755
1.68519
1.59101
1.5636
1.55312
1.57298
1.52907
1.57253
1.56478
1.71162
1.728
1.78258
1.67413
1.82398
1.77793
1.8088
0.762503
0.983167
0.868313
0.920645
0.909956
0.831575
0.873168
1.74133
1.71247
1.73663
1.77524
1.76556
1.74443
1.76037
11.4381
16.9979
4.03266
7.18559
3.48867
8.94174
7.03799
-0.856421
-0.93564
-1.11468
-1.15121
-1.3335
-0.993915
-1.00894
0.0711173
0.0810335
0.0753298
0.0783345
0.0679322
0.0788981
0.0688003
0.151817
0.144423
0.153239
0.150118
0.159523
0.147048
0.156102
0.133423
0.133194
0.125205
0.13283
0.140783
0.128753
0.136663
0.0788954
0.0753127
0.073851
0.0682141
0.0721425
0.0710845
0.0753382
0.05525
0.0500234
0.0561597
0.0557087
0.0612638
0.0515345
0.0565663
0.0387006
0.0399342
0.034736
0.0466116
0.0416104
0.0389416
0.0424417
0.0366592
0.0352582
0.0399579
0.0333058
0.0295817
0.0325727
0.0360112
0.0186005
0.0224471
0.0194517
0.0179215
0.0148824
0.020618
0.0172124
0.0142086
0.0154031
0.0104176
0.0126473
0.017568
0.0167765
0.0118154
-0.0218392
-0.0189743
-0.0265163
-0.0255084
-0.0163426
-0.0171872
-0.0256348
-0.0184826
-0.0211222
-0.0186519
-0.0130639
-0.0231746
-0.0229527
-0.0163497
2131.56
1762.08
1196.88
2137.49
2136.35
2065.74
1841.49
0.867548
0.875144
0.859402
0.853967
0.840956
0.869054
0.85313
0.947582
1.04129
1.02507
0.804683
0.879882
0.793051
0.862188
1.01371
1.02873
1.02238
1.02233
1.02364
1.02669
1.021
1.05297
1.0324
1.02046
1.02364
1.0337
1.04293
1.03512
1.03533
1.06883
1.02757
1.03184
1.02888
1.1226
1.21078
1.11912
1.37013
1.19836
1.16332
1.28717
1.15871
1.30221
1.10208
1.12457
1.09516
1.41921
1.49811
1.45106
0.958034
1.03894
1.07929
1.1423
2.46723
2.25461
2.46677
2.43829
2.1822
2.10673
2.44976
1.47479
1.48934
1.41549
1.51699
1.52072
1.51687
1.49156
1.64084
1.64182
1.60635
1.65217
1.66715
1.655
1.62925
0.195127
0.301591
0.0512778
0.250602
0.346804
0.328738
0.142142
-0.207979
-0.168372
-0.158616
-0.111071
-0.134685
-0.138516
-0.175152
0.0506645
0.0505557
0.0609298
0.0530812
0.0391612
0.0441785
0.0573968
0.199021
0.20959
0.207126
0.215684
0.20478
0.2134
0.202692
0.182251
0.189968
0.190667
0.208248
0.195941
0.190743
0.196108
0.093029
0.094579
0.0886415
0.0993061
0.0954017
0.0960112
0.0918508
-0.0153994
-0.0166323
-0.0202734
-0.0240493
-0.0245116
-0.0199978
-0.0197857
-0.0471351
-0.0461467
-0.0526138
-0.0568457
-0.0614741
-0.0522514
-0.0551237
-0.385126
-0.311543
-0.395284
-0.297246
-0.43293
-0.325547
-0.455675
0.749805
0.713342
0.805229
0.681052
0.814647
0.812914
0.795637
0.937446
0.917751
0.912807
0.946925
0.940621
0.922218
0.91142
0.997939
0.944756
0.969658
0.967053
0.847684
0.944219
1.00362
1.02097
1.01809
1.022
1.02653
1.01395
1.01992
1.02317
1.00456
1.0018
0.990536
0.995031
0.997504
1.00603
1.00409
1.55131
1.46379
1.78689
1.67621
1.63935
1.57524
1.61322
69.4727
105.02
64.6132
25.8636
61.3685
103.339
53.8177
2.0174
2.10888
2.06296
2.03654
2.02848
2.15426
2.05719
1.811
1.84705
1.83892
1.86282
1.84152
1.85662
1.82823
2.31885
2.25234
2.29746
2.21753
2.1905
2.26517
2.23947
1.6169
1.52643
1.55212
1.49982
1.57934
1.5066
1.58987
0.256196
0.212815
0.229056
0.243847
0.203816
0.206769
0.250276
0.162466
0.179583
0.169106
0.176071
0.158601
0.178756
0.16112
0.292897
0.306764
0.290913
0.276446
0.288001
0.292117
0.281067
0.292903
0.289052
0.277949
0.310321
0.298064
0.224347
0.215669
0.229067
0.235367
0.222294
0.220012
0.232291
0.22869
0.214763
0.22499
0.234708
0.217472
0.181937
0.187126
0.188288
0.189885
0.181266
-0.0814604
-0.0886466
-0.0930973
-0.0717492
-0.0725046
-0.08085
-0.0830687
-0.921642
-0.600299
-0.448863
-1.22837
-1.0564
-1.13532
-0.683551
0.0383519
0.0497802
0.0258718
0.107151
0.162521
0.210491
0.0512623
0.00679467
0.0237692
-0.00181138
0.0283691
0.0606644
0.0338567
0.0275176
0.194726
0.218982
0.21423
0.241193
0.228754
0.227904
0.20979
0.309903
0.280734
0.303777
0.255418
0.266349
0.279827
0.288142
0.662913
0.634328
0.636452
0.661754
0.646453
0.640442
0.642409
0.585104
0.834813
0.599566
0.645352
0.794346
0.650813
0.69435
0.966473
0.956844
0.96016
0.969497
0.973278
0.963171
0.963189
0.970911
0.982803
0.963651
0.96771
0.970762
0.992191
1.00491
1.00068
0.998732
1.00577
1.00532
0.994724
1.07819
1.09724
1.09863
1.13091
1.09987
1.11361
1.08867
1.51168
1.58978
1.54348
1.58531
1.60512
1.57032
1.5691
19.9024
5.26259
13.6949
8.4616
45.3356
5.93162
37.266
1.81258
1.78444
1.80951
1.80708
1.82377
1.79687
1.81642
1.80337
1.79132
1.79941
1.79815
1.80683
1.79392
1.80429
1.99967
1.98599
2.00145
2.02575
1.99214
1.98757
2.01525
1.28668
1.28949
1.24745
1.21259
1.22161
1.25338
1.25733
0.700803
0.702738
0.650627
0.706538
0.746384
0.728156
0.680442
0.413531
0.427825
0.411854
0.394011
0.407908
0.412308
0.399877
0.413403
0.409785
0.396284
0.432878
0.419257
0.20721
0.209652
0.199161
0.204865
0.215741
0.213451
0.20281
0.11426
0.121969
0.120096
0.107732
0.109879
0.116151
0.114501
0.0453273
0.0504435
0.0513283
0.0411321
0.0409509
0.046085
0.0468565
-0.0120325
-0.0106081
-0.00297872
-0.0165483
-0.0112885
-0.0124684
-0.00670027
-0.018392
-0.0171635
-0.0172259
-0.00490192
-0.0127965
-0.0226193
-0.00213749
-0.0175202
-0.0167162
2542.84
2586.84
2533.9
2610.68
2540.69
2600.34
2547.01
0.169547
0.154889
0.217464
0.157176
0.223551
0.187277
0.168338
0.113417
0.111652
0.109944
0.114711
0.116864
0.114079
0.111612
0.109498
0.0945175
0.0882358
0.0792925
0.102731
0.0818751
0.10708
0.255526
0.281181
0.28181
0.299302
0.283131
0.287765
0.269097
0.49266
0.485556
0.477169
0.504554
0.498705
0.490943
0.488588
0.654959
0.738285
0.649475
0.650769
0.653837
0.705371
0.644667
0.919537
0.888129
0.866254
0.842049
0.83096
0.869902
0.89532
1.04814
1.04902
1.04624
1.04606
1.03124
1.04806
1.03992
26.8748
13.1511
72.7853
14.7457
9.12225
7.26991
37.9107
94.6355
94.1989
93.959
93.7655
91.9288
93.9144
93.5534
94.8407
94.7199
94.3623
94.8441
94.7739
94.1511
93.3135
94.8789
94.7443
95.8668
1.826
1.8231
1.82316
1.84412
1.8338
1.82879
1.84603
1.82599
1.82741
1.82904
1.83295
1.82939
1.82913
1.82637
1.87632
1.86687
1.86584
1.86134
1.86563
1.87135
1.86386
1.91171
1.89599
1.89924
1.88881
1.88783
1.89506
1.9012
0.575387
0.570375
0.54856
0.583636
0.603492
0.587664
0.567232
0.451059
0.463342
0.46542
0.463675
0.478156
0.484652
0.471689
0.463219
0.441607
0.455577
0.0909992
0.0920834
0.0973257
0.104878
0.104841
0.0992997
0.0990459
-0.0476703
-0.0793665
-0.062768
-0.00832547
-0.0676043
-0.0147338
-0.056809
-0.0702728
-0.0395624
-0.00456474
-0.00304147
-0.0369553
-0.0904091
-0.0679705
-0.0468837
-0.0499964
-0.0834337
-0.0259881
0.0139464
-0.0685788
-0.0186965
-0.00912791
-0.00914219
-0.0318595
0.00480406
-0.0179693
0.0261495
0.00293059
-0.0560564
-0.0219832
0.108821
0.11487
0.111822
0.115918
0.109938
0.115409
0.110189
0.269613
0.277518
0.26582
0.264454
0.247551
0.269983
0.255748
0.536191
0.529757
0.526354
0.521949
0.510723
0.524422
0.520308
0.893377
0.910236
0.895329
0.894738
0.88098
0.901195
0.885155
0.823467
0.907745
0.894981
0.838153
0.689171
0.828721
0.826187
1.1675
1.23219
1.10154
1.12322
1.11049
1.11018
1.14831
0.54747
0.430127
0.448671
0.478369
0.670795
0.418769
0.561754
2.14278
2.21575
2.05584
2.08983
2.07
2.21116
2.08683
95.304
96.0434
95.0667
93.5713
93.5968
93.0202
93.1194
95.9689
94.3737
93.4503
95.1787
93.3511
94.3726
93.8763
93.3376
1.79435
1.78588
1.78252
1.76245
1.78166
1.7722
1.78706
1.70929
1.82703
1.76046
1.86561
1.779
1.87453
1.84304
1.36475
1.34598
1.35413
1.34986
1.2715
1.30609
1.4211
1.43838
1.18968
1.21196
1.29962
1.78204
1.24464
1.54947
0.815546
0.833914
0.834005
0.88956
0.86074
0.866483
0.836358
0.636147
0.656493
0.659739
0.681689
0.663186
0.669699
0.648517
0.599161
0.586938
0.600634
0.603818
0.616032
0.596137
0.609527
0.540921
0.555699
0.556209
0.572401
0.558375
0.56507
0.550866
0.559091
0.544051
0.557664
0.575324
0.561384
0.554211
0.568163
0.60352
0.588914
0.605308
0.607472
0.621818
0.598838
0.612947
0.575096
0.603383
0.583378
0.548545
0.570236
0.587628
0.567208
0.243281
0.203481
0.227756
0.208508
0.253583
0.205013
0.248685
0.354686
0.394638
0.45409
0.34587
0.312799
0.321295
0.373902
0.639697
2.52123
4.73061
0.690904
0.163064
0.769294
1.87777
0.00568141
0.0105336
0.0129042
0.0135409
0.0059638
0.0198319
0.0169183
0.00765246
0.00165807
0.0113596
0.0487317
0.0512184
0.043122
0.0621058
0.0555114
0.0506077
0.0571669
0.472154
0.451926
0.489531
0.494955
0.467614
0.456039
0.51028
0.881345
0.894988
0.895891
0.91087
0.893312
0.90122
0.885221
1.11826
1.08282
1.36651
1.34787
1.39805
1.28671
1.19535
0.768526
0.719566
0.747094
0.813662
0.768672
0.736795
0.771077
1.73818
1.74869
1.74143
1.72756
1.7361
1.74343
1.73415
1.70169
1.71273
1.7012
1.70114
1.69543
1.70922
1.69931
1.49759
1.56893
1.5851
1.64799
1.66442
1.58146
1.58851
0.651454
0.654874
0.637169
0.654416
0.668857
0.643437
0.658073
0.697126
0.713378
0.709717
0.719594
0.710367
0.715388
0.703385
1.19878
4.38994
0.393245
0.361621
0.389253
2.85453
0.69948
0.238473
0.122103
0.164932
0.386099
0.113399
0.27605
0.168356
0.0080429
0.00683797
0.00241456
0.0145719
0.0150094
0.0126819
0.0138356
0.108288
0.119511
0.114929
0.0959299
0.101582
0.109786
0.104861
0.743932
0.734642
0.722012
0.724085
0.741855
0.729482
0.735875
0.744928
0.743982
0.742335
0.733844
0.743091
0.741718
0.733118
1.07805
1.27555
1.25688
1.0697
1.11947
1.16372
1.23107
0.753411
0.645626
0.654575
0.51299
0.625793
0.547349
0.693466
0.994506
1.03005
1.00676
1.01145
1.00071
1.02195
0.998173
1.22649
1.26327
1.23022
1.24585
1.2115
1.27553
1.23939
1.13941
1.10683
1.15038
1.24056
1.18967
1.2269
1.22382
1.07205
0.993839
1.00723
1.25537
1.17348
0.94422
1.17495
0.0860166
0.0390274
0.35786
0.26248
0.216098
0.101033
0.478883
1.82212
1.82952
1.83414
1.82336
1.82117
1.82686
1.84535
93.3645
94.6311
87.1597
93.6068
93.4203
94.0311
93.8265
91.6814
93.7535
93.651
94.0815
93.6294
93.271
93.068
92.5613
92.4971
93.8076
94.3498
2.01398
2.12274
2.00101
2.60542
2.31215
2.15461
2.18519
1.84555
1.87932
2.18252
2.05157
1.78385
1.82588
2.16303
1.50643
1.53538
1.50802
1.49833
1.50743
1.52014
1.51251
1.35642
1.37087
1.29292
1.40088
1.51763
1.44388
1.27924
1.10602
1.08374
1.13062
1.30583
1.24716
1.21943
1.16696
0.798029
0.80641
0.796283
0.797925
0.788137
0.780252
0.791555
0.799366
0.813989
0.805298
0.644246
0.687042
0.685947
0.690876
0.723562
0.709172
0.671414
2120.66
2137.42
2129.59
1398.69
1931.71
2089.06
1809.92
3.03828
8.01621
1.2993
1.98195
1.30968
10.4024
4.90245
1.04966
0.66781
0.965127
1.11132
0.19415
0.107542
0.561333
0.117163
0.114476
0.115344
0.113812
0.116011
0.11394
0.116192
0.114919
0.108857
0.111873
0.109982
0.115866
0.110245
0.115355
0.0150693
0.019744
0.013938
0.0187858
0.0140894
0.004216
0.0229817
0.0169462
0.0172714
0.0422165
0.0283854
0.0257148
0.0129118
0.0227666
0.0231444
0.033927
0.00389248
0.0176159
0.0209598
0.0191012
0.029192
0.0269906
0.0433438
0.0203639
-0.00371595
0.00422431
0.0202741
0.0279364
0.012868
0.112953
0.549747
0.561487
0.250647
0.327158
0.363816
0.148836
0.655274
0.635561
0.645041
0.636769
0.632777
0.634531
0.62978
0.677779
0.692686
0.689063
0.676887
0.689234
0.695301
0.694301
0.681607
0.692026
0.746606
0.742568
0.739673
0.752523
0.768724
0.750909
0.728803
0.842846
0.740021
0.846237
0.822992
0.850297
0.651082
1.09647
1.05423
0.986939
1.00308
1.58629
1.6553
1.71296
1.76596
1.61367
1.71803
1.48954
1.79949
1.79145
1.80333
1.80686
1.79817
1.79391
1.80429
90.9943
90.139
91.9224
88.7015
93.0149
92.6377
1.41319
1.37978
1.40371
1.41679
1.4318
1.4041
1.4255
0.905643
0.956528
0.939617
1.00249
0.942834
0.97344
0.914628
0.82959
0.841072
0.840673
0.838446
0.846573
0.852921
0.845608
0.822608
0.832829
0.83874
1.13192
1.09485
1.23334
1.1699
1.1298
1.10896
1.1977
0.000590715
0.212601
0.177798
0.323754
0.240225
0.261418
0.116481
-0.527396
3.10951
-1.74095
-0.995724
-2.35946
0.219519
-1.4243
1530.38
1901.14
1512.91
1672.94
1949.46
1957.96
1892.89
-0.271235
-0.260012
-0.259176
-0.15158
-0.227014
-0.259834
-0.202619
0.076201
0.150375
0.0621988
0.140077
0.0873373
0.134563
0.11701
-0.0908385
-0.105536
-0.114544
-0.0697591
-0.0507784
-0.0873825
-0.0737208
0.113262
0.117488
0.114805
0.109883
0.110983
0.113769
0.111587
0.140274
0.132535
0.141912
0.144638
0.149781
0.139018
0.144613
0.0779171
0.0685047
0.082227
0.0950943
0.0779451
0.0770609
0.0942344
-0.0992884
0.0348615
0.0909305
0.248361
-0.418999
-0.0419874
-0.0404782
0.569832
0.532375
0.530337
0.485122
0.525113
0.513913
0.56208
0.602199
0.603941
0.605483
0.607155
0.616154
0.616789
0.605802
0.597723
0.607111
0.599602
0.598073
0.632763
0.590537
0.612448
0.70119
0.694237
0.70954
0.697898
0.696474
0.707437
0.704323
0.702986
0.695351
0.705842
0.697825
0.702316
0.751062
0.692707
0.710988
0.703612
0.711243
0.627127
0.599133
0.611166
0.653981
0.565867
0.667818
0.598779
0.72097
0.709033
0.660168
0.662402
0.699603
0.733723
0.661619
0.673947
0.693941
0.728548
0.704504
0.76703
0.800938
0.7033
0.791544
0.810115
0.806361
0.780324
0.766383
0.789848
0.793803
0.999108
1.03023
1.00422
1.0051
0.972941
1.01259
0.982163
1.83898
1.84734
1.81146
1.84145
1.86167
1.85659
1.82842
1.86657
1.87617
1.86544
1.86553
1.8612
1.87128
1.86369
99.0728
98.1474
98.4209
98.5254
98.1639
98.5004
98.6545
96.7674
97.2066
96.934
96.5969
96.7699
97.2522
96.8623
96.6116
96.2928
98.3204
98.7629
98.4997
97.867
98.6557
98.2367
96.5333
90.9769
96.9561
94.8899
68.2369
88.1625
24.7404
6.63646
5.94067
14.7258
89.6069
1.49853
1.48564
1.48927
1.49012
1.54488
1.51876
1.48858
1.17722
1.12307
1.17549
1.16129
1.15583
1.1089
1.15851
1.0189
1.05262
1.03277
1.03655
1.0745
1.0201
1.03603
1.24928
1.25285
1.24172
1.23388
1.24156
1.24587
1.25012
0.929626
0.966316
0.969
0.956333
1.0262
1.04907
0.937163
1.25355
1.2743
1.28312
1.29454
1.21832
1.27137
1.2288
1.19983
1.27743
1.22871
1.26267
1.20482
1.27304
1.20818
1.58415
1.4981
1.54804
1.51807
1.59922
1.50433
1.59233
48.4661
23.8899
25.6933
246.896
527.737
52.1419
170.631
-0.534185
-0.218364
-0.440514
-0.56828
-0.592677
-0.365652
-0.528834
0.224785
0.215103
0.219481
0.236855
0.232616
0.226141
0.230315
-1.63757
-2.04762
-1.64359
-1.86841
-1.69013
-2.17743
-1.89784
0.632872
0.61796
0.60814
0.624262
0.640594
0.654559
0.69876
0.694515
0.725903
0.690769
0.709688
0.667621
0.943484
0.931337
0.96137
0.898728
0.922586
0.918656
0.941041
1.77222
1.7766
1.78077
1.76992
1.76341
1.76907
1.77528
1.77169
1.76468
1.76502
1.75749
1.76815
1.76094
1.76988
96.7617
96.805
97.3845
1.02296
1.02952
1.01949
1.01373
1.00912
1.01216
1.01969
0.981299
0.982791
0.985305
0.985662
0.992523
0.999932
0.990073
1.02222
1.02707
1.03773
0.973158
0.981928
0.985141
1.14432
1.1495
1.14956
1.152
1.14849
1.14391
1.14752
1.14937
1.14652
1.15789
1.15609
1.15749
1.15601
1.15665
1.15792
1.1574
1.15885
1.15515
1.16038
1.16012
1.15747
1.15654
1.15508
94.4617
94.1731
94.4722
94.7171
93.2749
93.8196
94.6127
93.8382
94.6632
94.2849
94.5226
93.6672
95.4206
94.1878
94.748
95.6729
95.4975
95.3371
95.2286
95.0781
95.6335
95.6119
95.6227
96.3152
9.07286
4.49551
7.73123
3.39381
7.29334
4.75356
6.24154
1.25444
1.24859
1.25936
1.25785
1.25259
1.25181
1.25994
1.18333
1.26775
1.19355
1.25508
1.14215
1.27327
1.18245
1.1936
1.29437
1.32481
1.35795
1.2472
1.31527
1.20284
1.49986
1.48698
1.49246
1.51631
1.49788
1.50297
1.51777
1.43523
1.38476
1.40884
1.3256
1.40174
1.35392
1.41026
1.65162
1.72608
1.67877
1.71051
1.62782
1.72451
1.64272
-0.542207
-0.521716
-0.597432
-0.598791
-0.66131
-0.560532
-0.585957
0.452876
0.515871
0.273629
0.655992
0.567631
0.573011
0.347925
0.032578
0.0666487
0.0563768
0.0553904
0.042767
0.059928
0.0349278
0.0310212
0.0517022
0.0713599
0.0549246
0.0297455
0.243057
0.213518
0.257146
0.315327
0.253888
0.233524
0.21419
0.269368
0.876167
0.811706
0.827845
0.748829
0.828306
0.855229
0.791534
1.53972
1.50054
1.52581
1.46624
1.46276
1.49954
1.49283
2.21471
2.24823
2.18774
2.2897
2.31121
2.26126
2.23554
1.71276
1.70254
1.70143
1.69459
1.7006
1.70877
1.69878
1.75161
1.74256
1.74041
1.72745
1.73828
1.73588
1.74593
1.73676
1.73442
1.72671
1.74125
1.74766
1.74284
1.73417
95.1434
95.9681
95.0059
94.4931
95.0268
93.9607
94.1585
98.2426
97.554
98.207
97.7501
98.1485
97.9783
98.0657
96.455
95.2477
95.7869
1.66347
1.42334
1.54662
1.77154
1.75941
1.96379
2.53221
1.53919
1.37321
1.40409
1.39846
1.49167
1.30712
1.29095
1.1146
1.12397
1.11849
1.10823
1.11411
1.11933
1.11366
1.1136
1.11023
1.10593
1.14108
1.13795
1.13715
1.14941
1.15164
1.15354
1.13046
1.13644
1.14204
1.13795
1.13374
1.16499
1.17843
1.20736
18.3366
6.27665
7.01172
79.0077
41.2577
10.4141
48.1426
97.5706
97.5243
98.0015
97.8618
95.2561
96.4995
98.1199
97.6596
98.1016
98.7071
98.2207
98.111
97.6152
99.3053
97.8426
98.726
97.8638
96.8549
98.1262
98.2451
97.197
1.55454
1.79377
1.63556
1.55449
1.56679
2.05482
1.80987
1.50876
1.53733
1.5128
1.49254
1.50582
1.52206
1.50004
1.59129
1.6125
1.60792
1.60792
1.62249
1.61528
1.60363
1.61646
1.60856
1.57549
1.60893
1.59434
1.60744
1.59227
1.51245
1.61805
1.58304
1.64867
1.67403
1.72572
1.61864
1.53549
1.43234
1.49205
1.35573
1.363
1.44927
1.43168
0.0640065
-0.000435747
0.00215591
0.116165
0.103744
0.0446431
0.0503951
0.399247
0.405987
0.383694
0.397354
0.41064
0.40798
0.389406
0.472053
0.44777
0.470963
0.461569
0.480986
0.452799
0.481218
0.532775
0.633699
0.719048
0.663566
1.01609
0.670257
0.975909
0.275516
0.213513
0.172465
0.332566
0.421161
0.346074
0.258375
-0.0144699
-0.0606122
-0.0327772
0.0263811
0.017982
-0.0176125
0.000435641
-0.0281487
-0.031338
-0.042628
-0.00606057
0.00365347
-0.000108899
0.00565409
0.00302837
0.00175181
0.00590868
0.00807093
0.00670116
0.00549338
0.0137273
0.0109151
0.0122261
0.0103215
0.019406
-0.000505808
0.0164598
0.00425291
0.00451433
0.00117995
-0.0088425
0.00143771
2862.32
2852.58
2859.22
2865.95
2857.08
2842.8
2795.38
2842.35
2867.09
0.888454
0.839503
0.677418
86.5068
26.548
0.932813
0.161748
4.13144
-0.16845
-0.0622166
0.0738666
1.10178
2823.6
2878.55
2849.57
2819.31
2818.61
2820.16
2823.14
2818.58
2808.57
2820.63
2799.41
2804.17
2810.35
2813.95
2816.6
2819.92
2850.14
2819.12
2828.63
2801.53
2817.45
2818.47
2817.78
2818.95
2820.1
2822.59
2818.96
2820.83
2818.07
2814.21
2810.34
2805.34
2799.59
2790.57
2816.23
2824.36
2813.79
2842.73
2809.76
2785.67
2812.71
1653.95
674.924
2847.23
2897.42
2875.38
2683.97
2721.28
0.0104362
0.00726969
0.00638479
0.00552627
0.00501881
0.00544673
-0.00364147
-0.00477793
0.00580487
93.6993
96.8722
96.455
95.1566
95.4121
94.7878
96.0988
96.4846
93.9311
95.823
94.016
97.2608
91.6321
95.6725
92.1374
0.00385914
0.0153044
0.00565387
0.000991887
0.00374554
0.00470264
1.72458
1.56647
1.65367
1.13607
1.1621
1.14979
0.91487
0.936008
0.940307
0.922175
1.58003
1.50268
1.83873
0.093785
0.0777467
0.104065
1.13649
1.14943
1.16269
1.90475
3.27087
2.08284
1.72406
1.61254
1.51573
1.52214
0.259345
0.389687
0.222409
0.107112
0.108418
0.0841591
0.0899246
0.995519
1.06548
1.05721
1.1203
1.12407
1.10607
1.13802
1.11897
1.69024
1.69378
1.70768
1.69986
1.70486
1.6983
1.70786
1.70022
1.69329
1.71201
1.10609
1.12392
1.11789
1.13792
1.09221
1.12419
1.05465
1.06329
1.12054
1.09711
1.03947
1.05501
1.09942
1.04445
1.69154
1.69488
1.70826
1.70101
1.71243
1.69396
0.907866
0.907325
0.889686
0.904729
0.890504
0.87273
0.894837
0.871546
0.0471037
0.0252236
0.0364709
0.010253
7.96644
5.45741
6.34999
5.1324
0.102151
0.11119
0.121372
0.173842
0.16695
0.177467
0.170856
11.7116
40.2422
15.5824
30.1463
1.12172
1.21014
1.07714
1.32273
0.0573833
0.0616451
0.0644522
1.36732
1.65451
1.13957
1.17663
1.20226
1.19722
1.85246
1.85471
1.85479
1.8525
0.338052
0.300341
0.00412545
0.00804285
0.00953489
0.0118603
96.3583
97.0201
94.2626
96.326
0.105835
0.145012
0.0998842
0.140703
1.4627
1.46567
1.48152
1.49193
0.707863
0.696379
0.777674
0.685289
-1.22997
-1.41089
-0.781058
-1.10036
0.154883
0.0371835
1.82778
1.90746
1.78973
1.92785
1.89527
1.77094
1.95438
1.74071
1.4548
1.45216
1.482
1.50459
0.787772
0.697448
2851.6
2859.14
0.066337
0.0761169
0.0626771
0.0813606
0.766988
0.756744
0.775155
0.795333
0.766806
0.774517
0.889008
0.777334
-0.421124
-0.421187
-0.011338
-0.00971744
-0.0152824
-0.0145928
1.27177
1.19164
1.44367
1.41195
0.0886543
0.0722735
-0.0337968
-0.0125529
1.78351
1.78993
0.458493
0.471226
0.456678
0.474911
68.6774
87.2277
92.6209
95.0937
90.3004
98.0343
97.0363
1.11323
1.12059
1.11219
1.1217
1.15826
1.17008
1.27894
98.6982
95.9098
91.5166
44.5116
95.1433
92.4925
-0.558298
-0.675662
0.745832
0.745766
0.743153
0.737724
0.73705
0.740504
-0.0877994
-0.0530984
-0.0339661
0.0258044
0.0165184
0.0281324
0.0868183
0.0834315
1.87991
1.86662
1.84674
1.84313
1.86669
1.87973
1.84261
1.84694
1.83624
1.83837
1.8323
1.83435
1.65434
1.66677
1.66787
1.71492
0.809604
0.805792
0.629242
0.64011
0.815149
0.847227
1.00879
1.03662
-0.483329
-0.392662
2.31588
2.24601
0.645788
0.603943
0.749145
0.656908
2.25117
2.3285
7.37703
10.4599
2286.83
2700.6
2.28472
2.27319
2.41749
2.25782
1.27643
1.2191
1.31873
1.20144
1.77792
1.77667
-0.00220619
3.95766e-06
-0.0127173
-0.0117112
-0.00830762
-0.0172916
2849.52
2852.45
2860.52
2849.68
0.350455
0.361364
0.363086
0.376917
1.85451
1.85043
1.88447
1.88217
-3.79897
0.235166
-4.93914
-4.35585
1.06497
1.08036
0.797063
0.913248
0.822737
0.788215
0.922529
0.83379
6.71199
5.51657
3.43812
3.47122
0.245897
0.255386
0.242191
0.258348
0.134815
0.138572
56.5454
14.8757
0.0324222
0.0355089
5.3566
7.80172
2823.4
16.538
10.5601
21.244
12.2391
0.380788
0.391194
0.375267
0.393146
0.996949
0.851234
1.37022
1.38672
0.127018
0.124858
1.24422
1.24812
1.1818
1.20827
1.46195
1.45717
0.84097
0.926042
0.771369
0.87019
83.0259
94.1418
95.4874
0.0178793
0.00665776
0.015837
0.00256565
0.630677
0.653685
0.626553
0.637168
0.224566
0.229564
0.209526
0.210293
0.985561
0.965646
0.657493
0.597251
0.58059
0.662391
1.70179
1.71474
1.66371
1.66412
0.17658
0.193891
0.33068
0.308296
0.152648
0.11211
0.201083
0.136107
2.47164
2.41188
-0.542948
-0.529432
0.0880162
0.0827331
0.0769434
0.0728594
0.0705724
0.070194
1.83207
1.83565
1.83921
1.8446
0.636186
-1.55583
1.80615
-1.22234
-0.0367466
-0.03235
-0.0369396
-0.030006
0.229993
0.224808
0.21114
0.209268
0.96536
0.98548
0.657179
0.664397
1.46354
1.44441
1.52412
1.3965
1.40554
1.40698
1.33376
1.36458
1.1702
1.2391
1.01333
1.16354
1.31324
1.16382
1.13135
0.989035
0.0118581
1.5047
1.5386
1.06065
1.0554
1.06649
1.05921
0.144327
0.149356
0.161905
0.165361
1.83566
1.83209
1.84462
1.83921
1.21863
1.20946
1.19913
1.19509
1.05301
1.05828
1.05743
1.06621
2.39878
3.31175
2.72192
2.32596
0.163189
0.159792
0.938777
0.867597
90.423
90.2389
0.845946
0.856515
0.822363
0.832225
0.364183
0.35026
0.380149
0.361868
2013.22
2050.75
2070.14
2124.48
2838.71
2861.8
8.8659
4.61569
136.427
189.123
1369.47
1587.57
0.652251
0.659169
0.104688
0.108345
1.08583
1.123
1.10263
1.1464
1.07172
1.06431
2874.92
2884.48
1.10208
1.0962
1.05698
1.07049
0.698956
0.744223
-0.166023
-0.167192
1.09659
1.04622
1.28927
0.512821
0.509376
0.740281
0.732876
0.851649
1.02344
0.828901
1.18184
0.587692
0.590722
0.545507
0.605991
0.486296
0.581088
0.393674
0.379877
0.425595
0.396763
0.103382
0.107786
0.379667
0.393559
0.397103
0.425705
0.012279
0.0146283
0.0145972
0.0122504
-0.285987
-2.96809
-2.51568
-3.14164
0.386874
0.17695
1.02364
0.983549
1.0179
0.918385
0.151704
0.160486
9.95912
3.88352
15.7094
8.05575
1.74373
1.62221
2.15473
2.14689
2.06224
2.12235
2.25368
2.09395
2.25
2.03833
1.44648
1.45053
0.190664
0.159628
52.5446
271.716
51.5049
618.119
1.05315
1.00608
1.11831
1.06004
1.59004
1.56849
-0.872705
-1.34406
1.62392
1.78542
1.47744
1.50959
2.3029
2.25714
2208.25
1733.27
2286.3
736.841
1.23635
1.23821
1.29305
1.30803
1.46402
1.51751
0.837858
0.842624
0.801691
0.817371
-0.234722
-0.267769
-0.175523
-0.210888
1.29744
1.49914
1.3228
1.44732
0.0738498
0.0702481
-0.0305623
-0.0352912
1.19288
1.18582
1.18307
1.17692
-0.0306599
-0.0354325
0.834005
0.829982
0.847201
0.832083
1.5155
1.4617
2.04473
2.13268
2.78641
3.61265
2.5113
2.67361
0.533056
0.474096
2857.75
2852.46
2849.76
2862.25
-0.0427732
1.14757
1.15121
1.15105
0.553317
0.564519
0.383661
0.367316
0.366944
0.347145
0.997474
1.00057
0.994502
1.00136
0.783867
0.786488
0.803183
0.800945
1.20022
1.42301
-0.0496023
-0.0457577
17.7541
23.9906
1.41506
1.44724
1.33849
1.42366
1.53268
1.41103
1.52372
1.34379
-0.0496973
-0.0458422
0.0822872
0.0855007
1.72852
1.73464
0.0880535
0.0882323
0.0960741
2.27271
2.23082
1.49146
1.50915
1.43688
1.44989
1.38321
1.34995
1.47723
1.45624
1.48316
1.46823
123.449
202.698
64.7855
129.091
2772.44
2784.1
1.58679
1.59941
1.45193
1.4708
1.78622
1.72371
1.74497
1.69647
118.971
41.0043
0.174232
0.221052
291.655
297.323
73.7067
29.3751
0.622895
0.632018
0.63222
0.622835
0.669405
0.692862
1.89606
1.90436
2.2544
2.2247
0.532297
0.498423
0.532835
0.504706
2843.67
2839.64
3.79798
2.3878
2.4201
1.94799
0.176229
0.170576
0.190723
0.186215
1.21703
1.11375
1.27568
1.35793
0.630044
0.629972
0.801081
0.768578
0.856596
0.810972
0.291921
0.273502
1.85871
0.749822
0.7525
1.8588
2.17632
1.83996
1.11559
1.08368
1.0665
1.03687
0.168778
0.174832
-0.0156914
-0.0161236
-0.02661
-0.0234683
0.191032
0.186419
0.227814
0.223747
2798.97
29.5286
11.3147
63.8322
1.76195
1.73984
0.654985
0.678142
0.65626
0.64547
0.301461
0.311713
0.0258574
0.293104
0.249507
0.296099
0.30604
3.63515
1.86343
0.0524386
0.0543239
1.78688
1.7758
0.830869
0.73774
0.835305
0.837729
0.84632
0.843673
0.240955
0.242868
14.7829
16.6494
1.91537
1.91385
0.925972
0.951398
-1.10045
-1.14037
-0.586013
-1.09725
1.27549
1.34455
0.956879
0.970713
1.25355
2.23794
1.01749
1.00118
0.188783
0.182372
0.188595
0.182405
101.329
98.2884
0.513537
0.517941
24.5593
16.5348
0.0178806
-0.0230759
0.065078
0.0612071
0.514681
0.519073
95.0739
91.5145
1.3371
1.27283
8.34126
11.5361
1.05328
1.05646
1.47018
1.63635
0.576272
0.486967
1.44712
1.62016
1.06886
1.04967
1.09166
1.12363
1.74467
1.7426
1.11432
1.00763
1.0828
0.982539
1.45775
1.45158
2.10186
2.45448
-1.73489
-1.96709
1.33666
1.2566
0.088497
0.0877184
-0.0628275
-0.0648751
0.0884823
0.0876366
0.438184
0.429478
0.435745
0.427987
1.28271
1.2972
1.53962
1.5462
1.96541
1.98938
0.133088
0.139027
2.05085
2.05365
1.05706
1.06024
1.05333
1.05301
1.56344
1.54676
-0.229553
-0.533495
-0.0695576
0.276422
-0.140145
0.194564
1.39129
1.46296
0.890437
0.902217
0.902301
0.890484
6.22587
5.37321
1.7752
1.78504
1.77571
1.78467
1.42297
1.40764
0.0254826
0.0298364
1.56352
1.54672
1.70879
1.68236
1.17976
1.22593
0.699462
0.711816
0.548716
0.659288
0.220216
0.230122
0.220364
0.23017
1.74503
1.76064
0.610512
0.452583
84.1164
66.7206
30.4617
24.2274
1.72231
1.68387
1.49791
1.61733
457.129
67.6341
1.74445
1.76144
120.611
350.009
0.4663
0.509376
0.475465
0.472315
0.117489
0.117267
0.898275
0.873582
0.713842
0.713998
0.717049
0.712978
1.18141
1.14989
0.137875
0.132348
1.13721
1.18442
1.97115
1.98901
1.59493
1.39435
0.550304
0.561522
1.82208
1.82157
2238.28
2532.75
0.0176782
0.00657431
0.185077
0.190843
0.143801
0.137694
0.795664
0.797704
1.89187
1.85724
4.00932
7.22935
0.858197
0.875074
0.629514
0.625816
2837.78
2848.14
2875.12
2865.34
2867.19
0.834324
0.804325
0.0147863