/*--------------------------------*- C++ -*----------------------------------*\
| =========                 |                                                 |
| \\      /  F ield         | OpenFOAM: The Open Source CFD Toolbox           |
|  \\    /   O peration     | Version:  v2012                                 |
|   \\  /    A nd           | Website:  www.openfoam.com                      |
|    \\/     M anipulation  |                                                 |
\*---------------------------------------------------------------------------*/
FoamFile
{
    version     2.0;
    format      ascii;
    class       surfaceScalarField;
    location    "0.1";
    object      phi;
}
// * * * * * * * * * * * * * * * * * * * * * * * * * * * * * * * * * * * * * //

dimensions      [0 3 -1 0 0 0 0];
oriented        oriented;


internalField   nonuniform List<scalar> 
49400
(
-5.65816e-06
1.27739e-08
5.61457e-06
3.08127e-08
1.30563e-05
3.59774e-06
-2.23122e-05
1.28647e-05
2.04316e-07
-3.4203e-06
1.73237e-05
-8.28887e-06
2.02361e-05
-2.00587e-05
-2.07689e-05
5.09574e-05
-3.28489e-07
8.09842e-06
1.95894e-05
-5e-05
-1.59635e-07
-6.28944e-07
-1.22879e-05
2.46913e-07
1.21351e-05
-9.41058e-08
2.62916e-05
1.15506e-05
-5.01302e-05
2.59096e-05
-1.31194e-05
1.50315e-06
2.37514e-05
-1.32642e-05
5.06418e-08
2.9458e-05
-3.11716e-05
5.68708e-05
-2.68253e-05
4.30643e-07
2.64011e-05
-6.44606e-09
9.18079e-06
1.56196e-05
-5.16256e-05
4.75854e-07
9.13557e-06
4.11611e-05
2.27438e-05
-4.82854e-05
1.73156e-05
5.02467e-05
7.6804e-06
-7.3931e-06
1.88556e-07
-3.69289e-06
2.05089e-05
6.22791e-06
9.12277e-06
1.98506e-05
8.85505e-06
4.56273e-07
-2.00353e-05
4.93992e-05
2.71533e-07
6.66136e-07
-2.806e-06
8.31659e-07
1.3082e-06
-5.79418e-06
1.98802e-06
4.47229e-06
4.06566e-06
6.39617e-06
8.15797e-07
-6.19048e-07
6.3491e-07
-8.4322e-07
3.64704e-06
3.4302e-06
1.64183e-08
8.98315e-06
1.54428e-05
5.2915e-06
-6.1857e-06
-1.45487e-05
-7.08028e-06
-2.32915e-07
2.2756e-05
5.45064e-06
-7.23942e-06
-1.34903e-05
6.01997e-06
1.29209e-05
1.99379e-06
-2.27235e-05
-1.01883e-05
1.59753e-05
-1.43802e-05
-2.02558e-06
-5.66747e-06
1.94212e-06
5.75093e-06
-6.27924e-06
7.725e-06
-3.47134e-06
3.45472e-06
-1.54014e-05
4.08226e-06
-6.44542e-06
4.30529e-06
-6.65852e-06
1.64917e-05
-3.21523e-06
4.28171e-06
-6.20593e-06
-1.15147e-06
-4.44023e-06
1.66423e-06
3.92748e-06
-2.877e-06
3.44315e-06
-1.71763e-06
-5.70938e-07
-6.74629e-06
-5.75662e-06
-2.53347e-07
9.45312e-06
-1.73967e-06
-5.73457e-06
-3.34537e-06
4.75625e-06
-5.65599e-06
-1.13963e-05
-1.19663e-05
-6.86882e-06
3.02314e-05
-6.94351e-06
-1.45315e-05
1.00787e-05
-2.08181e-05
1.90822e-06
1.00851e-05
9.83427e-06
-3.44508e-05
1.91675e-05
9.96336e-07
6.57737e-06
-1.75612e-05
1.8876e-05
-1.21999e-06
-1.33183e-06
9.38148e-07
1.61368e-06
-1.75798e-07
2.78592e-06
-3.83011e-06
2.10953e-06
-3.61716e-06
4.48109e-07
-2.3429e-06
2.83294e-06
-2.40793e-06
4.46972e-06
-3.90171e-07
7.68155e-07
-6.23542e-07
2.07086e-06
-6.51541e-07
8.95752e-06
-1.03768e-05
-5.75205e-07
7.16126e-07
1.92993e-06
5.96574e-06
-7.19249e-06
9.71151e-07
-9.99158e-06
9.73655e-06
-4.71937e-06
7.62046e-06
-1.86781e-06
3.11418e-06
-2.90186e-06
-7.20684e-06
-1.19816e-05
-8.48113e-06
2.76696e-05
4.03331e-07
-6.24339e-06
-1.36679e-06
-1.40843e-05
2.50598e-06
7.64195e-06
3.77231e-06
-1.76577e-05
9.32341e-06
-3.04824e-06
-1.20869e-05
1.29292e-05
-2.23989e-05
3.07151e-06
-3.11021e-06
-2.60881e-06
2.64751e-06
-5.85693e-06
2.90384e-06
6.0246e-06
2.78541e-06
-1.17525e-05
5.80108e-06
-3.58523e-06
-4.82466e-06
1.85824e-07
8.26277e-06
-3.54284e-06
6.6325e-06
-4.34266e-06
-1.92569e-06
-1.33621e-07
1.77299e-06
2.86321e-07
1.48661e-06
9.87266e-07
-4.39957e-06
-1.19809e-07
1.4728e-06
2.01121e-06
-1.86219e-06
-2.68833e-07
-1.03319e-06
4.5172e-06
1.54739e-06
-2.42231e-06
2.28718e-06
1.80878e-06
2.14786e-09
-1.77522e-06
-3.57071e-08
-2.371e-06
-1.44159e-06
5.62136e-06
-2.3106e-06
-5.82485e-08
1.99931e-06
1.01423e-06
-4.78876e-06
1.90856e-06
5.50391e-08
-1.75099e-06
2.21796e-06
-3.04736e-06
1.89419e-06
1.44743e-06
6.87512e-07
-4.02913e-06
-1.92252e-07
1.34793e-06
7.38514e-07
1.56105e-06
-3.05876e-07
-2.50457e-06
-1.01787e-06
5.0835e-06
-1.71627e-06
-1.09418e-06
-1.43751e-06
1.76757e-06
-2.46627e-06
8.68265e-07
-1.45649e-07
-8.90887e-07
1.68271e-07
-2.43203e-06
-7.14085e-07
4.01438e-06
-1.42219e-07
-2.43546e-06
-4.02421e-06
3.78587e-06
9.61233e-08
3.05005e-06
-9.50972e-06
7.2713e-07
1.43203e-06
3.79891e-06
2.73923e-07
1.32638e-06
3.64534e-06
4.27494e-07
8.9861e-06
1.40394e-06
-1.07577e-07
-1.44174e-06
1.45378e-07
-1.57224e-06
-1.25149e-06
4.22768e-06
-1.13962e-07
-1.56586e-06
-1.94741e-06
1.92241e-06
-8.89565e-08
1.68164e-06
-5.19491e-06
-5.92479e-07
1.26339e-06
-3.52581e-07
4.58977e-07
5.89722e-06
-1.5556e-06
-4.8006e-06
5.8636e-06
-4.14123e-06
-4.50504e-06
-4.48565e-06
1.25988e-07
-6.39384e-06
1.65385e-06
2.04427e-06
1.20739e-06
-4.90551e-06
-1.19963e-08
1.6995e-06
-3.36516e-08
1.99715e-06
3.51207e-08
-2.19492e-06
-1.22015e-06
5.11457e-06
-2.10045e-06
-1.28115e-07
1.67946e-06
-2.57252e-06
2.45646e-06
1.49549e-06
-1.1673e-07
-1.50875e-06
1.29992e-07
-1.66971e-06
-1.02725e-06
4.19245e-06
-1.53601e-06
-2.50424e-07
2.05705e-06
1.38649e-06
-4.95229e-06
1.86489e-06
3.22146e-07
-9.47004e-07
1.78465e-06
-1.09653e-06
6.12818e-06
5.80213e-06
5.51853e-06
-1.74489e-05
2.73953e-06
8.93223e-06
-5.54358e-06
5.94821e-06
2.59346e-06
-4.32416e-06
-7.73923e-06
1.80116e-05
-7.76516e-06
6.03447e-06
-3.47844e-06
4.67144e-06
-5.72507e-06
-3.80815e-06
1.72344e-06
6.71462e-06
-4.6299e-06
4.13937e-06
5.59282e-06
-1.35403e-05
3.52038e-06
2.34243e-06
-2.0664e-06
-5.09356e-06
1.06803e-05
-6.56073e-06
6.83676e-06
3.14865e-06
-4.11657e-06
4.76971e-06
2.38677e-06
-2.19847e-06
-1.65735e-06
1.46905e-06
-6.81539e-06
1.1638e-06
8.03836e-06
-5.10036e-08
-8.96285e-06
3.76477e-06
-1.2774e-06
-4.14473e-06
9.6098e-07
4.27284e-06
-3.89857e-06
6.02335e-06
-5.22697e-06
-1.00939e-06
2.44311e-06
-2.99569e-07
-1.13415e-06
5.05984e-06
6.04629e-07
-6.67386e-06
1.07132e-06
6.43163e-06
-2.08691e-06
8.41659e-07
9.45684e-07
-1.35726e-06
-1.8638e-06
3.70454e-06
-4.45717e-06
5.61752e-06
3.17857e-06
2.04731e-06
4.80249e-07
-5.70613e-06
-4.66764e-07
1.93898e-06
1.70635e-06
2.26907e-06
-6.88519e-07
-3.63826e-06
-1.26066e-06
7.16799e-06
-2.08879e-06
-2.23799e-06
-2.33143e-06
3.00975e-06
-3.93997e-06
4.3049e-07
2.26308e-06
2.69698e-06
-5.39055e-06
2.08316e-06
4.3165e-06
-5.96917e-06
2.93513e-06
1.41111e-06
-1.40996e-06
-4.97998e-06
9.32507e-06
-4.05942e-06
4.06057e-06
-4.28731e-07
-2.34756e-07
-1.79118e-06
-1.5179e-06
-6.43561e-07
3.59536e-07
1.80193e-06
4.9776e-07
-5.49138e-07
-1.46652e-06
-8.08769e-07
6.62967e-07
1.79564e-06
-6.06365e-07
-1.99804e-06
-2.31323e-08
2.48174e-06
1.21103e-06
-2.36653e-06
1.54743e-06
1.07004e-06
6.31253e-06
-4.47665e-06
-2.90592e-06
4.25812e-06
1.17266e-06
-4.36074e-06
-2.06284e-06
1.26335e-05
-7.01746e-06
3.8411e-06
4.34902e-06
1.72059e-06
-1.30988e-05
4.53118e-06
-7.28724e-06
6.30943e-06
-1.23757e-05
-1.55144e-05
-9.41874e-06
3.73089e-05
-1.20617e-07
-9.71423e-08
-1.21579e-05
-1.5103e-05
-5.32076e-07
-1.49443e-05
1.52828e-05
-4.35666e-07
9.22126e-06
-3.63235e-05
1.15863e-05
-1.7468e-05
1.74504e-05
-4.29481e-06
9.53098e-07
3.87012e-06
-5.28408e-07
7.19314e-06
4.19672e-06
-1.56847e-05
7.16094e-06
9.85299e-07
-4.82139e-06
-1.86477e-06
1.05563e-05
-4.52894e-06
-8.20859e-07
5.28259e-06
-5.6148e-06
1.05788e-05
1.37235e-06
-6.8651e-07
2.62509e-06
-3.31093e-06
-1.89158e-06
1.44755e-06
1.81639e-06
3.02857e-06
-5.60667e-06
3.9896e-07
-2.72403e-06
3.77262e-06
-2.97154e-06
5.18689e-06
-3.23247e-07
6.27787e-07
-6.697e-07
-5.63207e-06
-2.03192e-06
1.75226e-06
5.91173e-06
2.80998e-06
-5.62782e-07
-7.87927e-06
-2.3578e-06
3.13587e-06
6.38326e-06
-1.35302e-06
-7.38804e-06
4.60982e-07
9.05814e-06
4.0132e-06
-5.929e-06
6.22644e-06
-1.71885e-06
-3.95154e-08
2.60054e-06
-8.42176e-07
2.81239e-06
5.58407e-07
-5.08964e-06
3.05172e-06
-2.7885e-07
-4.7618e-06
-4.14167e-07
7.7765e-06
-1.04885e-06
-4.55512e-06
3.22489e-06
-3.71534e-06
5.86245e-06
1.79245e-06
4.64252e-07
-1.89189e-06
-3.64809e-07
-1.64213e-06
-1.64541e-06
5.08e-06
-2.41118e-06
1.2333e-06
1.94182e-06
1.59724e-06
-5.43095e-06
2.23029e-06
-6.53279e-07
-1.47667e-06
2.06155e-06
-2.29061e-06
3.52905e-06
5.54048e-07
3.99481e-06
-8.0779e-06
-9.03618e-07
-1.43868e-08
4.44705e-06
3.55856e-06
-3.90813e-06
5.31008e-06
-1.32966e-06
-6.24207e-06
1.59992e-05
-4.01316e-06
-4.29309e-08
-2.23335e-07
1.14952e-07
1.51314e-07
-5.1416e-07
1.85686e-07
2.85543e-07
1.95858e-07
-9.33353e-07
1.79962e-07
1.20677e-07
-1.12973e-07
4.44249e-07
2.03561e-07
4.13483e-07
-2.2264e-07
5.18464e-07
-7.09307e-07
-3.51664e-07
5.01449e-07
2.63698e-07
8.96644e-07
-1.47095e-06
1.0533e-07
6.29547e-07
1.61767e-07
3.78788e-07
-1.74441e-06
-1.01007e-07
9.81244e-07
1.047e-06
-2.71235e-07
1.87768e-06
1.25188e-06
-2.85833e-06
7.6944e-07
-2.94954e-07
-7.45721e-07
1.54754e-06
1.09958e-06
-1.39458e-07
-2.68387e-08
1.71384e-06
-7.84283e-07
-3.42418e-07
2.06249e-08
1.25178e-07
-2.12694e-07
7.88199e-08
1.41595e-06
-1.28208e-06
1.09583e-06
-2.19488e-06
8.86361e-07
2.21157e-06
-1.03692e-06
-1.89933e-07
-1.29739e-06
-7.07562e-07
-2.53626e-06
3.23269e-06
-1.08119e-07
-2.16575e-07
1.04487e-08
-6.22478e-07
-5.41736e-07
1.4615e-06
-2.9729e-07
-3.45308e-07
-1.35379e-06
1.07662e-06
-1.31956e-06
4.32512e-07
-2.96114e-06
1.59513e-07
4.26313e-06
-3.22702e-07
-2.93573e-06
9.65484e-07
-2.64198e-06
-1.94559e-07
3.31156e-07
1.56492e-06
1.30661e-06
-3.20269e-06
4.19488e-07
1.99266e-06
-2.08099e-06
6.26706e-07
1.3577e-06
-1.3146e-07
-1.24371e-06
2.00187e-06
-1.60849e-06
2.83474e-06
9.76657e-07
-5.92496e-07
1.03956e-06
-2.9546e-06
-1.78121e-06
3.64765e-06
1.08815e-06
1.011e-06
2.1555e-06
-6.1211e-06
3.98423e-06
-4.75444e-06
-1.7424e-06
-4.87403e-06
1.02641e-05
-3.06334e-06
2.40909e-06
-2.9269e-07
-6.15155e-07
-1.18249e-06
4.41529e-06
1.64781e-05
-8.64084e-06
-1.22526e-05
9.65679e-06
-9.32303e-06
4.08153e-06
-3.1732e-06
2.93081e-05
1.56271e-05
4.68214e-06
-2.96323e-05
9.10354e-06
1.06051e-05
-9.90368e-06
1.5834e-05
-1.38624e-05
2.62327e-06
-1.71904e-06
-2.64337e-06
1.73914e-06
-6.60973e-06
-2.22432e-07
9.45543e-06
-2.24317e-06
-6.08561e-06
4.70263e-06
-1.81205e-07
-7.16479e-06
1.81358e-06
4.62819e-06
-4.16931e-06
5.76046e-06
-6.59369e-06
-1.35645e-05
-9.26335e-06
-5.93879e-06
2.87666e-05
2.92495e-06
-1.32841e-05
-3.20536e-06
-9.96235e-06
3.62396e-06
1.55166e-05
6.47834e-06
-3.19573e-05
1.15649e-05
7.57569e-06
1.14357e-05
-1.82415e-05
1.70618e-05
-8.72421e-06
-2.83554e-06
3.76876e-07
1.11829e-05
4.55359e-06
-4.07391e-06
-9.20389e-06
-3.95881e-06
5.67686e-06
1.17376e-05
8.75412e-07
-1.65718e-05
2.83456e-06
1.45799e-05
7.02723e-06
-1.02257e-05
1.02387e-05
-2.13497e-06
-1.62979e-06
-1.16055e-06
4.9253e-06
1.29645e-08
-2.02447e-06
-1.23458e-07
-1.61514e-06
-1.68805e-09
2.01256e-06
1.07238e-06
-4.70008e-06
1.95295e-06
5.79238e-08
1.75504e-06
-2.70714e-06
2.54745e-06
1.74372e-06
2.56875e-08
-5.37846e-08
-1.71562e-06
-2.21778e-06
-1.47258e-06
5.43408e-06
-2.21776e-06
2.56688e-08
-1.92988e-06
1.95345e-06
-7.73569e-08
1.22452e-06
-4.87002e-06
-1.52476e-06
2.00563e-06
-2.518e-06
-3.90056e-08
1.65519e-06
-1.58651e-06
-2.96775e-08
1.60486e-06
-6.64631e-08
-1.5774e-06
-1.14262e-06
4.40267e-06
-1.95174e-06
1.99025e-06
-1.04977e-07
1.49287e-06
-5.02201e-06
-9.50878e-07
1.79851e-06
-1.04452e-06
2.34544e-06
1.72231e-06
1.40894e-06
-5.47669e-06
-2.66948e-08
2.18506e-06
1.87078e-07
1.70977e-06
-1.4155e-08
-1.88919e-06
-1.08191e-06
4.68086e-06
-1.80583e-06
-9.75125e-08
-1.52771e-06
2.63086e-06
-1.9246e-06
1.6019e-06
-6.03389e-08
-1.59802e-06
5.64664e-08
-1.66171e-06
-9.10465e-07
4.17407e-06
-3.23996e-08
-1.68965e-06
-2.46039e-06
2.42979e-06
-1.80099e-09
1.75748e-06
-5.90752e-06
-1.40019e-06
2.91951e-06
-1.24073e-06
-5.25585e-08
2.05376e-06
-2.05468e-06
5.34767e-08
1.55003e-06
-1.55495e-06
-4.7643e-08
-1.62637e-06
5.23016e-06
1.54196e-06
1.07716e-06
1.50526e-06
-1.09441e-08
-9.39873e-07
8.1877e-07
-1.91739e-06
3.00366e-08
-2.02313e-06
1.99445e-06
-1.35692e-09
-1.61927e-06
2.18148e-08
1.62749e-06
1.51936e-06
-5.16177e-06
1.678e-06
-1.60366e-06
-5.25233e-08
-1.13398e-06
4.43947e-06
-9.66786e-07
1.82725e-06
-1.05108e-06
-1.65848e-06
7.38512e-09
-4.88417e-08
1.69994e-06
2.06635e-06
1.19794e-06
-4.92277e-06
1.98938e-06
8.43591e-08
2.2166e-06
-2.11759e-06
-1.47852e-07
-1.21126e-06
5.12779e-06
1.6998e-06
-2.61945e-06
2.47792e-06
-1.67404e-06
-7.13043e-08
1.7043e-06
4.10427e-08
2.15377e-06
1.34002e-06
-5.16782e-06
2.24334e-06
-1.60883e-07
-2.00426e-06
-1.11896e-06
4.82752e-06
-2.00325e-06
4.00352e-08
1.79269e-06
-2.45593e-06
2.91708e-06
-1.48595e-06
1.36236e-07
1.47192e-06
-1.22211e-07
1.9233e-06
9.87348e-07
-4.3966e-06
1.7722e-06
2.87336e-07
-2.00433e-06
-1.03158e-06
4.50784e-06
-1.86672e-06
-2.59828e-07
1.54728e-06
-2.42664e-06
2.2879e-06
-1.91354e-07
-1.20879e-06
1.89211e-07
1.21094e-06
-1.2742e-06
1.74537e-06
-6.62531e-07
1.28274e-06
-3.76573e-06
1.18361e-06
-1.31479e-06
3.20392e-07
-9.60314e-07
3.35486e-06
-8.08288e-07
1.59335e-06
-8.40339e-07
1.17409e-05
3.18747e-08
-1.15733e-05
-1.9946e-07
-1.36416e-05
-9.92864e-06
3.53111e-05
-1.39184e-05
3.08725e-07
1.32314e-05
9.80379e-06
-3.46085e-05
1.37865e-05
-7.54515e-07
-7.84645e-06
1.17043e-05
-1.19611e-05
6.93613e-07
1.46849e-06
1.34457e-06
-3.50667e-06
5.21367e-07
1.2992e-06
-1.12695e-06
3.84872e-07
1.60498e-06
1.66209e-06
-1.772e-06
4.94784e-07
-2.00152e-06
5.26859e-06
-5.75647e-08
-6.44757e-07
-4.84994e-07
4.12935e-06
3.946e-06
1.97776e-06
-1.00531e-05
-5.19898e-07
5.22697e-06
-5.77725e-07
5.28801e-06
-1.86191e-06
-8.09538e-06
-3.56097e-06
1.68833e-05
-5.5274e-06
-3.14571e-06
-4.98554e-06
6.71259e-06
-8.53517e-06
-2.5397e-06
-1.24756e-06
-1.44834e-07
3.9321e-06
4.93007e-07
-1.19264e-06
-1.84007e-06
-9.03907e-07
1.49355e-07
1.13943e-06
-6.0694e-07
-1.4364e-06
8.75168e-07
4.13617e-07
2.17831e-06
-3.97789e-06
2.90864e-06
1.29219e-06
6.44045e-06
1.31109e-06
-9.04373e-06
6.35404e-07
-1.37313e-07
7.941e-07
2.69728e-06
4.37858e-06
6.60826e-07
-9.30618e-07
1.32479e-07
-1.64705e-07
1.61963e-06
1.39148e-06
-3.17773e-06
8.55632e-07
-1.84542e-06
3.0722e-06
-7.58134e-06
8.4332e-06
-9.44799e-06
5.38982e-07
4.4913e-07
-1.28304e-06
3.44165e-06
2.23829e-06
1.80196e-06
-3.94887e-07
-2.62051e-06
1.21344e-06
-2.59136e-06
-6.51975e-07
5.0453e-06
-2.58009e-06
-4.06159e-07
5.37033e-06
2.52363e-06
-1.05145e-05
3.06738e-06
3.51638e-06
-3.08556e-06
5.50097e-06
-3.14202e-06
-4.24386e-06
-3.82798e-07
3.46075e-06
1.16591e-06
3.52703e-06
-1.09129e-05
2.73807e-06
-1.66461e-06
7.2971e-06
-7.78941e-06
-3.63434e-06
-9.8677e-07
1.24105e-05
9.15763e-07
-4.72365e-06
-3.98152e-06
-3.97455e-06
1.25597e-06
6.30577e-06
1.1765e-06
-1.14568e-05
4.24335e-06
3.31838e-06
7.58059e-06
-1.11277e-05
1.08372e-05
3.58627e-07
1.19263e-06
4.64327e-07
-2.01558e-06
1.40294e-06
-3.08833e-06
2.04402e-06
-8.70455e-07
3.46602e-06
-2.8651e-06
2.47088e-06
8.58551e-07
2.22541e-06
-7.1061e-06
1.98234e-06
-2.84526e-06
3.58276e-06
2.19521e-06
5.02983e-06
-2.54364e-06
-4.6814e-06
3.84605e-06
-5.89586e-06
4.24502e-06
-6.08929e-06
1.49652e-05
-2.43548e-06
6.50004e-06
-6.6082e-06
4.9594e-06
-1.20763e-05
1.95128e-06
-2.88774e-06
2.36203e-06
1.77127e-06
3.2873e-06
-2.15841e-06
-2.90016e-06
1.93104e-06
-4.12032e-06
3.96056e-06
-3.43088e-06
8.64922e-06
-1.20825e-06
5.33343e-06
-6.28359e-06
3.99128e-06
-8.09969e-06
1.85251e-06
-1.98156e-06
3.75505e-06
-4.88877e-06
3.47703e-06
4.23393e-06
-2.82219e-06
9.30085e-06
1.46308e-06
-1.56527e-05
4.5415e-06
8.23638e-06
-8.72661e-06
-6.00513e-07
1.35611e-05
-5.35333e-06
-6.19547e-06
7.46699e-06
-1.13572e-05
1.1408e-05
3.34614e-06
-3.0832e-07
-3.46498e-06
4.2716e-07
-3.24134e-06
-2.55202e-06
9.13951e-06
-2.99141e-07
-3.25052e-06
-4.06408e-06
3.64801e-06
1.16929e-07
2.87394e-06
-1.01885e-05
-1.90292e-06
2.9989e-06
-2.49396e-06
1.7291e-06
-1.588e-07
-1.72325e-06
1.52947e-07
-2.45459e-06
-1.33677e-06
5.52046e-06
-2.25631e-06
-3.57076e-07
2.18067e-06
1.12352e-06
-5.02744e-06
1.98128e-06
3.52332e-07
-1.80857e-06
2.45308e-06
-2.94135e-06
-2.0684e-06
-1.67531e-06
-1.23226e-06
4.97598e-06
-7.04708e-08
-2.16442e-06
1.66485e-07
-1.61911e-06
-1.26671e-07
1.92626e-06
1.2122e-06
-4.75757e-06
2.08101e-06
-2.81422e-07
1.77688e-06
-2.7291e-06
2.62563e-06
-1.25857e-06
-1.79971e-06
-1.08052e-06
4.1388e-06
-2.67126e-07
-1.28674e-06
2.95287e-07
-1.80843e-06
-2.58405e-07
3.7236e-06
3.63725e-06
-9.16928e-06
3.60734e-06
-1.42138e-07
-6.64375e-07
3.19119e-06
1.68614e-06
-2.56594e-08
2.21041e-06
-2.102e-06
-8.27503e-08
1.74876e-06
-1.69259e-06
-8.18272e-08
-8.47899e-07
4.80707e-06
2.40307e-06
1.0883e-06
-5.18396e-06
2.36698e-06
-4.57376e-08
2.54054e-06
-3.55424e-06
4.05962e-06
-1.53052e-06
-1.49667e-06
-1.23441e-06
4.26161e-06
-4.71806e-08
-1.68321e-06
1.99875e-07
-1.50142e-06
-4.24341e-08
1.8419e-06
1.55458e-06
-4.8979e-06
1.97797e-06
-1.78503e-07
8.66857e-07
-9.95486e-07
1.61041e-06
-1.97689e-06
-1.48103e-06
-1.50585e-06
4.96377e-06
3.84652e-08
-1.99777e-06
-1.75895e-08
-1.4953e-06
5.27444e-08
1.62835e-06
1.15409e-06
-4.27774e-06
1.54932e-06
1.31772e-07
9.20322e-07
-1.764e-06
9.63794e-07
-3.80762e-06
-1.6608e-06
3.465e-06
2.00342e-06
1.23887e-06
4.27983e-06
-9.32632e-06
4.09185e-06
-4.51379e-06
1.30562e-06
-4.10611e-06
6.26549e-06
-2.04914e-06
5.35818e-06
-3.07593e-06
5.30662e-06
-3.09018e-06
-5.51748e-06
-1.0239e-05
-1.91836e-06
1.76748e-05
-2.79545e-06
2.51859e-06
-5.24062e-06
-5.89082e-06
-7.14359e-06
-8.18903e-06
5.99818e-06
4.70944e-06
3.18956e-06
-1.66192e-05
-6.27777e-06
1.03576e-05
-8.97903e-06
8.76431e-07
4.72085e-06
7.84545e-06
-1.34427e-05
4.61436e-06
8.27476e-06
-1.20127e-05
4.7813e-06
4.5539e-06
-1.20811e-06
-9.67619e-06
1.56656e-05
-1.04002e-05
1.3746e-05
-1.72536e-06
3.23924e-07
-4.28012e-06
-9.54334e-06
-3.9029e-06
2.28427e-06
1.1162e-05
4.37748e-06
-1.00719e-06
-1.29136e-05
3.87479e-06
-3.40021e-06
-1.00537e-05
9.85191e-07
1.29433e-05
-2.83736e-06
-1.06166e-05
7.32413e-06
-1.11687e-05
1.05936e-05
8.54147e-07
1.19316e-06
-1.85923e-07
-1.86138e-06
-1.525e-07
-2.13233e-07
1.21988e-06
9.40541e-07
1.00115e-07
2.52097e-06
-8.27695e-07
-1.90651e-06
-5.91483e-08
3.8e-06
-2.26358e-06
3.14497e-06
-3.27719e-06
-2.18987e-06
1.47412e-07
1.63907e-06
4.0339e-07
1.63227e-06
8.16733e-07
-4.63887e-06
1.7938e-06
-1.41234e-08
-2.72004e-06
-1.39644e-06
5.91028e-06
-1.97413e-06
-7.60036e-07
1.68371e-06
-2.8411e-06
1.92634e-06
4.2818e-07
4.22884e-06
-1.64023e-06
-3.01679e-06
-1.4792e-06
4.58229e-07
1.44915e-06
1.67044e-06
1.0792e-06
6.17757e-07
-7.29299e-07
-1.52869e-06
-5.84942e-07
-1.81409e-06
-8.6199e-07
7.35278e-07
7.91494e-08
-7.0583e-07
-1.86964e-07
-1.84153e-07
1.07695e-06
1.24068e-06
6.04305e-07
-2.55081e-06
1.18055e-06
-1.26839e-07
3.40903e-07
-9.81602e-07
4.56546e-07
-7.91859e-07
2.20971e-06
1.07948e-06
-1.26703e-06
1.27843e-06
-7.58043e-09
2.05298e-06
2.91486e-07
-2.33689e-06
1.9191e-06
-2.9134e-06
9.8672e-07
-2.49488e-06
6.46696e-06
-3.49667e-06
3.78935e-06
-1.19623e-09
2.6481e-06
-8.48165e-06
1.13074e-06
-1.39605e-06
2.42521e-06
-4.16489e-06
-1.84299e-06
7.26417e-07
5.28146e-06
1.54298e-06
-6.45196e-07
-5.06267e-06
-1.51205e-06
1.21204e-06
3.45697e-06
-1.02415e-06
-3.94487e-06
7.63022e-07
3.90598e-06
3.08235e-06
-4.75169e-06
4.57179e-06
1.81814e-06
-1.92659e-06
5.06947e-06
-4.96101e-06
-3.30348e-06
3.13328e-06
1.98834e-06
4.68474e-06
-9.91481e-06
-1.67239e-06
-4.14874e-06
8.95441e-06
-5.2142e-06
5.53015e-06
-1.67341e-06
2.59413e-06
-2.20287e-06
3.19633e-06
3.1707e-06
2.90267e-06
-9.2697e-06
2.9011e-07
4.26417e-06
-1.35796e-06
3.25606e-06
2.04752e-07
-3.43705e-06
-2.87945e-06
9.57255e-06
-4.0145e-06
7.8221e-07
-2.08382e-06
3.46854e-06
-3.19565e-06
1.66803e-06
2.28811e-06
2.75195e-06
-6.70808e-06
8.38006e-07
3.47413e-06
-2.6441e-06
6.97198e-07
2.42891e-06
1.85482e-06
-3.19899e-06
2.04137e-06
-2.7783e-06
7.06204e-06
-1.00207e-06
1.69789e-06
-1.44911e-06
-2.03044e-06
-1.77808e-06
-1.27067e-06
5.07919e-06
-1.62596e-07
-2.21261e-06
3.44762e-07
-1.76127e-06
-1.7941e-07
2.15707e-06
1.49251e-06
-5.41085e-06
2.4164e-06
-4.38744e-07
1.8996e-06
-2.61969e-06
3.04533e-06
-1.51129e-06
-4.14801e-08
1.35089e-06
2.01886e-07
1.50232e-06
8.87962e-07
-3.90158e-06
1.36103e-06
9.98115e-08
-2.67747e-06
-2.10093e-06
6.12929e-06
-2.48615e-06
1.05697e-08
1.23696e-06
-2.83515e-06
4.97062e-07
1.33513e-07
2.41049e-06
-2.44419e-06
2.10438e-06
-2.15871e-06
1.87846e-07
5.01193e-06
2.92824e-06
-9.274e-06
-2.06562e-06
2.18795e-06
2.08486e-07
-2.18093e-06
-2.15501e-07
-1.67194e-06
-6.85423e-07
4.54531e-06
-1.63987e-06
1.76409e-07
4.32702e-06
3.92258e-06
-1.04305e-05
4.43559e-06
-3.24067e-07
-1.91402e-06
5.66418e-06
3.68695e-07
2.55997e-06
1.07544e-07
-2.49111e-06
-2.06399e-06
-2.79981e-06
2.70011e-06
2.07245e-07
-4.92223e-06
6.3003e-06
-5.13829e-06
-1.73621e-06
-3.03332e-06
9.90782e-06
-2.45213e-07
-4.63784e-06
-2.55229e-07
8.17303e-06
-9.61968e-06
9.2785e-06
-1.40564e-06
2.04438e-07
1.34838e-06
-1.47171e-07
1.62608e-06
1.08302e-06
-4.11474e-06
1.36681e-06
4.63705e-07
-1.90437e-06
-1.32949e-06
4.58223e-06
-1.80711e-06
-2.44433e-07
7.65866e-07
-1.48995e-06
8.03189e-07
1.52313e-06
1.23565e-06
-1.22237e-06
-1.53641e-06
-1.65122e-06
-5.221e-06
8.39535e-06
-1.07406e-05
1.0325e-05
1.74227e-06
8.76525e-06
-1.17299e-05
1.25876e-05
-1.23818e-05
-2.44246e-06
5.9867e-06
-5.9539e-07
-1.60232e-06
-1.7557e-06
1.15288e-06
2.20514e-06
-3.56493e-07
2.68044e-06
-3.92626e-06
2.55641e-06
-4.66861e-06
1.2536e-06
-3.20779e-06
3.10707e-06
-3.36541e-06
6.82415e-06
-2.47302e-07
-4.37668e-07
-8.98679e-07
1.33179e-06
3.33359e-06
-4.45109e-08
-4.62086e-06
2.02111e-06
-1.47784e-06
7.8852e-07
6.86088e-07
3.23834e-06
-1.73996e-06
-2.97622e-06
2.27772e-07
3.79909e-06
-2.73301e-06
3.64687e-06
-4.51749e-06
9.50634e-07
3.57934e-06
-1.88745e-06
-2.64253e-06
2.47189e-06
1.0171e-06
-2.53836e-06
-5.52536e-07
6.60377e-06
-4.85417e-06
2.19131e-06
3.67996e-06
9.54923e-07
-8.34745e-06
-2.64134e-06
4.28011e-06
-3.57386e-06
-9.70194e-07
-4.0149e-06
2.00136e-06
2.98373e-06
-2.6136e-06
-1.05991e-06
2.70332e-06
7.75045e-07
-7.40355e-06
4.72223e-06
-2.36299e-06
-3.41915e-06
-1.0422e-06
8.46775e-06
2.60292e-06
-4.19086e-06
3.56208e-06
2.74692e-06
2.57185e-06
-2.3713e-06
-2.94747e-06
2.92777e-07
-6.21043e-06
8.66457e-06
-6.58069e-06
9.44532e-06
-1.12046e-06
5.02674e-06
-6.27758e-06
5.03298e-06
-9.10091e-06
1.9749e-07
-1.37494e-06
-1.35646e-06
-1.01764e-05
-4.20355e-06
2.30405e-06
1.20759e-05
4.30048e-06
8.97421e-09
-1.44859e-05
-3.27178e-06
3.36872e-06
9.01432e-06
-2.79072e-06
-9.49539e-06
1.71205e-06
1.0671e-05
7.10748e-06
-9.88923e-06
1.11236e-05
9.84884e-08
1.65888e-06
-1.02059e-07
-1.65531e-06
2.02178e-06
-2.20746e-06
2.84173e-07
-1.52393e-06
5.20459e-06
-1.62155e-06
1.53804e-06
-1.8552e-08
9.97217e-07
-4.27407e-06
1.2542e-06
-2.46444e-06
1.26831e-06
-1.93125e-06
1.85033e-06
6.23669e-08
2.79513e-06
-9.00046e-06
-2.36789e-06
5.48653e-06
-2.48609e-06
1.80568e-07
-2.1554e-06
1.65243e-06
-4.50703e-07
-2.43579e-06
1.23406e-06
-1.76514e-06
-1.6772e-06
5.09477e-06
-1.85387e-06
-3.61977e-07
1.94699e-06
1.56694e-06
-5.3678e-06
2.22568e-06
-6.40674e-07
-1.49108e-06
2.03956e-06
-2.35992e-06
4.7638e-07
1.3586e-06
2.94161e-06
-4.77659e-06
1.06586e-06
2.74371e-06
-3.33319e-06
1.39858e-06
1.02588e-06
-2.25102e-07
-2.26521e-06
3.88889e-06
-1.8119e-06
2.61268e-06
4.42177e-07
3.63267e-08
1.57189e-06
1.32023e-06
6.44432e-07
5.32133e-07
-2.49679e-06
5.65957e-08
1.17648e-06
8.71487e-08
5.57513e-07
1.43515e-07
-6.16837e-07
-2.44428e-07
1.41878e-06
-2.47151e-07
-2.26171e-07
-9.34481e-07
1.86654e-06
-6.49499e-07
-1.54809e-07
-3.32784e-09
2.01868e-07
-4.3731e-08
6.53172e-07
-5.29323e-07
-2.78658e-07
-3.32779e-07
9.82623e-07
2.97767e-07
8.8507e-07
-9.8097e-07
4.33458e-08
2.10691e-07
2.30713e-07
1.25034e-07
-5.87195e-08
-9.45949e-07
-5.97802e-07
1.23122e-07
1.42063e-06
6.14139e-07
-2.97049e-07
-1.26304e-06
-5.39883e-07
5.56219e-07
1.45951e-06
-3.16106e-08
-1.96778e-06
4.03895e-07
1.61183e-06
8.00873e-07
-1.12953e-06
1.32789e-06
2.59857e-07
-4.07333e-07
-9.5759e-07
1.10507e-06
-5.83518e-07
-8.6012e-07
1.7035e-06
-5.10326e-07
-4.80526e-07
-6.60838e-08
1.1464e-06
-1.59065e-06
8.0746e-07
-1.35407e-06
-3.01067e-07
5.8735e-07
-4.51198e-07
2.22667e-06
-9.95867e-08
-2.39917e-06
2.72091e-07
-2.55848e-06
-1.59163e-06
6.37677e-06
-2.8516e-06
1.93532e-07
3.28163e-06
2.30222e-06
-7.98301e-06
2.75229e-06
8.01429e-07
-1.77525e-06
2.93592e-06
-2.32463e-06
-2.62658e-06
1.14514e-07
2.36907e-06
1.42996e-07
2.23412e-06
1.85548e-06
-6.71617e-06
2.068e-07
2.14183e-06
2.42236e-06
-3.02355e-06
8.07999e-07
-2.027e-06
6.59119e-06
1.62598e-06
-2.79406e-06
1.96805e-06
-1.9866e-06
1.85145e-06
1.82445e-06
-1.68929e-06
4.86319e-06
-1.64851e-07
-6.68494e-06
1.15414e-06
5.56051e-06
-3.92319e-06
3.35232e-07
5.4124e-06
-1.21922e-06
-4.39326e-06
3.04723e-06
-4.4313e-06
4.5366e-06
-1.20092e-06
-2.92118e-08
1.10879e-06
1.21333e-07
1.23999e-06
7.03005e-07
-3.14391e-06
1.14282e-06
6.79596e-08
-2.29234e-06
-1.74486e-06
5.14599e-06
-2.00432e-06
-1.66685e-07
1.03753e-06
-2.33884e-06
4.35483e-07
2.21373e-08
2.06695e-06
-2.02113e-06
1.94837e-06
-1.88061e-06
-4.56216e-08
4.4508e-06
2.47923e-06
-7.64428e-06
-1.74021e-06
7.16775e-08
1.66936e-06
-1.2587e-07
-1.61517e-06
2.06263e-06
-2.15855e-06
1.67601e-07
-1.22795e-06
4.95993e-06
-1.92502e-06
2.06992e-06
-2.70763e-07
1.20898e-06
-4.74917e-06
1.77314e-06
-2.72271e-06
2.61511e-06
-1.65292e-06
-7.89561e-08
1.66869e-06
6.31843e-08
1.61792e-06
1.22051e-06
-4.49135e-06
1.56021e-06
-2.12479e-08
-2.07529e-06
-1.6321e-06
5.37608e-06
-2.02021e-06
8.10349e-09
7.91242e-07
-1.59094e-06
7.19354e-07
-1.69966e-06
-6.39824e-08
1.72405e-06
3.95918e-08
1.898e-06
1.36495e-06
-4.96261e-06
1.87342e-06
-3.94017e-08
-2.02712e-06
-1.40214e-06
5.15331e-06
-1.95781e-06
-2.97203e-08
1.12277e-06
-1.71562e-06
1.59405e-06
3.97952e-07
2.71619e-06
-2.68259e-06
-4.31549e-07
3.5781e-06
-4.25939e-06
1.07924e-06
-4.35114e-06
-5.24616e-06
1.03205e-06
-7.97404e-06
-3.63911e-06
-1.14357e-06
-7.85322e-06
-1.03848e-06
-1.61834e-06
-1.41211e-07
2.79803e-06
3.39387e-07
-9.21667e-07
-4.56205e-07
2.93849e-07
-1.5728e-06
1.32513e-06
-2.00633e-06
-2.40468e-07
-2.43732e-06
3.62124e-06
-3.28704e-06
-6.86617e-06
-2.58343e-06
-3.66616e-06
-2.25385e-06
-7.85786e-07
-6.16048e-06
-1.24192e-05
-1.0219e-05
-1.04842e-05
3.31224e-05
-3.30411e-07
-1.30046e-05
9.15908e-07
-1.00188e-05
-5.30563e-07
9.76456e-06
7.63232e-06
-2.74157e-05
1.06479e-05
-1.4139e-06
5.51799e-06
-1.08903e-05
5.68169e-06
-7.35248e-08
-7.87604e-07
-2.45529e-06
3.31642e-06
-6.54649e-07
-1.26095e-06
1.84208e-06
-1.16217e-06
-2.80085e-07
5.834e-07
3.50976e-07
-2.09654e-06
1.45152e-06
-1.1482e-06
-8.00733e-07
-1.09245e-07
-1.8045e-06
6.35234e-07
-7.89324e-07
-4.38512e-07
5.92603e-07
-1.55991e-06
8.41031e-07
1.35411e-06
4.96835e-07
-2.84607e-06
1.19082e-06
-1.05835e-06
-5.7098e-07
-3.48261e-07
2.13168e-06
-9.70368e-07
1.46314e-06
-1.53188e-06
-2.4911e-07
-2.70117e-06
1.9303e-06
1.01999e-06
-2.02245e-06
-9.25995e-08
1.86594e-06
1.47286e-06
-6.19648e-06
2.21262e-06
-2.09456e-06
-2.10666e-07
-1.35842e-06
5.43698e-06
1.2117e-06
-1.83339e-06
1.78357e-06
-1.57095e-06
1.22892e-06
3.43938e-06
-3.09735e-06
2.32225e-06
2.66558e-06
-6.55878e-06
1.31636e-06
2.2348e-06
1.61019e-06
-4.54252e-06
4.24869e-06
-3.40009e-06
7.24508e-06
2.0613e-06
-3.93824e-06
2.1006e-06
2.8029e-06
-1.82242e-06
-2.94191e-06
1.96143e-06
-5.01222e-06
2.36853e-08
7.79144e-06
-1.84282e-06
-4.99182e-06
6.24314e-06
3.82241e-07
-9.56729e-06
1.99293e-06
6.21164e-06
-3.49042e-06
5.50703e-06
-4.951e-06
2.21138e-06
3.22407e-06
4.1287e-06
-9.56415e-06
8.88349e-08
5.26044e-06
-3.1379e-06
3.7752e-06
-4.62298e-07
-5.15292e-06
-3.14556e-06
1.20737e-05
-6.00026e-06
3.85041e-07
-2.97072e-06
5.08559e-06
-4.84228e-06
3.08139e-06
3.01293e-06
2.90868e-06
-9.003e-06
1.30196e-06
3.85548e-06
-2.07604e-06
2.98677e-06
1.32811e-06
-2.02939e-06
-3.37751e-06
8.39367e-06
-4.52049e-06
3.81922e-06
-2.61042e-06
3.08839e-06
-4.22223e-06
6.62554e-07
1.04771e-06
1.37285e-06
-3.08311e-06
8.76537e-07
1.32359e-06
-1.53757e-06
8.9199e-07
1.03225e-06
1.94094e-07
-1.23686e-06
1.93476e-06
-1.5812e-06
2.80755e-06
-4.0246e-07
4.89187e-07
-6.10809e-07
-6.61746e-08
-5.56779e-07
1.12003e-07
5.10951e-07
4.98201e-07
9.58107e-07
-1.52248e-06
1.65989e-07
-2.24567e-07
-4.21871e-07
-4.78963e-07
1.01284e-06
-7.46601e-07
8.35681e-07
4.5922e-07
-2.47714e-07
1.46247e-07
3.85249e-08
5.20277e-08
-3.00751e-08
-6.04775e-08
-4.12475e-08
-1.71725e-08
9.69449e-08
-6.34474e-08
7.42276e-08
-5.05033e-08
5.28152e-08
-6.57593e-08
2.12058e-07
-1.88334e-07
-6.56511e-08
8.83911e-08
1.29235e-07
-4.10441e-08
-6.27365e-08
8.39136e-10
1.02941e-07
-7.31056e-08
6.69046e-08
-3.4843e-08
-8.74389e-08
-4.84033e-08
7.20379e-08
-3.42828e-08
-3.6916e-08
3.06352e-07
-1.6741e-07
4.24939e-07
-5.46661e-07
6.82888e-07
-1.43241e-07
-7.28248e-08
3.1301e-07
-1.15327e-07
-5.89169e-08
-7.07643e-08
-9.43541e-07
-6.23126e-09
1.02054e-06
-8.14733e-07
1.30279e-06
-5.58821e-07
6.5097e-07
-2.40924e-06
8.64587e-07
-1.41395e-06
5.43132e-07
-1.13951e-06
3.02463e-06
-5.58959e-07
7.22238e-07
-1.32194e-06
-3.71554e-07
-2.49138e-07
-3.57924e-08
6.56484e-07
1.28374e-07
-3.51307e-07
-1.48622e-07
-2.95496e-07
1.7473e-07
6.34474e-07
4.39756e-07
-1.36973e-06
5.29574e-07
2.79629e-07
3.50919e-07
-2.62471e-07
8.44699e-07
1.05108e-06
1.38769e-06
9.63991e-07
-3.40275e-06
4.59467e-09
9.57609e-07
8.88711e-08
1.2202e-06
1.72082e-07
-1.02736e-06
-8.65185e-07
2.85016e-06
-1.44397e-06
5.05473e-07
8.6306e-07
-1.34304e-06
1.21807e-06
1.56721e-06
1.65828e-06
1.58214e-06
-4.80763e-06
-3.03257e-07
4.43544e-07
1.42692e-06
1.84336e-06
-4.88333e-07
1.28062e-06
-2.28271e-06
1.44563e-06
-1.54785e-06
4.25539e-06
-1.13893e-06
1.43444e-06
-1.8395e-06
-1.04031e-06
1.67054e-06
9.59559e-07
-1.58978e-06
3.34027e-06
-1.08917e-06
-3.29141e-06
8.68185e-08
4.92398e-06
-3.15194e-06
1.04373e-06
3.06777e-06
-1.35482e-07
-4.60624e-06
2.41318e-06
-3.63782e-06
3.54372e-06
-7.18619e-07
-2.00515e-06
-6.21245e-07
3.34502e-06
-2.38231e-07
-7.11924e-07
2.31536e-07
-1.96518e-06
-2.78202e-07
-5.35579e-07
-3.00448e-06
2.91881e-06
-2.54638e-06
1.29888e-06
3.12199e-06
-7.63355e-06
-1.60694e-07
1.21967e-06
3.10746e-07
-3.07959e-06
1.49969e-07
-2.2484e-06
-1.76089e-06
-1.45395e-06
5.46323e-06
-6.20662e-08
-2.16339e-06
-2.29366e-08
-1.74265e-06
-8.02996e-08
1.92437e-06