/*--------------------------------*- C++ -*----------------------------------*\
| =========                 |                                                 |
| \\      /  F ield         | OpenFOAM: The Open Source CFD Toolbox           |
|  \\    /   O peration     | Version:  v2012                                 |
|   \\  /    A nd           | Website:  www.openfoam.com                      |
|    \\/     M anipulation  |                                                 |
\*---------------------------------------------------------------------------*/
FoamFile
{
    version     2.0;
    format      ascii;
    class       volScalarField;
    location    "0.25";
    object      alpha.water;
}
// * * * * * * * * * * * * * * * * * * * * * * * * * * * * * * * * * * * * * //

dimensions      [0 0 0 0 0 0 0];


internalField   nonuniform List<scalar> 
6576
(
1
1
1
1
1
1
1
1
1
1
1
1
1
1
1
1
1
1
1
1
1
1
1
1
1
1
1
1
1
1
1
1
1
1
1
1
1
1
1
1
1
1
1
0.0670936
0.0395531
0.0539613
0.0344296
0.0261835
0.0257827
0.0257716
0.0254018
0.0254008
2.01465e-18
5.19298e-18
2.88129e-18
1.24704e-17
3.15028e-18
2.00886e-18
8.15632e-18
1.29409e-18
1.82058e-18
2.48653e-18
1.77385e-17
4.60907e-18
3.36192e-18
7.69008e-18
8.2613e-16
2.41262e-16
1.16239e-16
6.68597e-17
2.32748e-16
3.17837e-17
6.68308e-17
0.000521294
0.000533868
0.000527373
0.00034445
0.000344249
0.000390883
0.000342487
0.000575024
0.000259771
2.69086e-05
0.000532856
0.00057454
0.000277728
5.44538e-05
0.94543
0.938369
0.900986
0.919842
0.920048
0.915949
0.882063
0.145425
0.151506
0.42815
0.164165
0.676971
0.41045
0.103237
0.998096
0.998859
0.997449
0.997244
0.992173
0.994947
0.981319
0.996653
0.996664
0.997781
0.996663
0.99174
0.988521
2.66781e-07
1.77242e-74
5.03423e-08
1.21391e-10
5.65132e-12
2.65718e-08
3.14802e-08
0.190582
0.816651
0.942668
0.966886
0.944501
0.984603
0.930935
1.74371e-38
1.07024e-37
1.77262e-98
1.60473e-21
5.57283e-22
1.84473e-22
6.3633e-23
2.79648e-10
6.84545e-10
3.51942e-10
4.60265e-10
1.07864e-09
1.38256e-09
5.55276e-10
2.82934e-12
2.4478e-12
6.66879e-12
4.33954e-12
1.26353e-11
2.19052e-11
6.93095e-12
1.64058e-13
2.02264e-13
1.08645e-13
5.92508e-13
3.30979e-13
1.35115e-13
2.45892e-13
6.95297e-13
7.73017e-12
2.018e-11
9.185e-13
5.39233e-12
2.22997e-11
1.60562e-11
1.58553e-11
2.2638e-12
1.13881e-11
1.04129e-11
1.65156e-11
8.97292e-12
6.14581e-12
5.22572e-12
1.27214e-11
1.3636e-10
2.84255e-10
4.98651e-10
2.23523e-10
4.08293e-10
4.14471e-10
9.90303e-10
4.55311e-10
1.49346e-10
1.10068e-05
1.77162e-05
1.05979e-05
1.04843e-05
2.20197e-05
2.09352e-05
1.50423e-05
1.20871e-05
2.20587e-05
1e-05
7.46907e-06
7.86016e-06
7.45327e-06
1.1213e-05
7.49731e-06
1.23958e-05
2.59871e-06
8.94052e-07
2.63509e-07
3.67321e-07
1.1912e-06
6.41017e-07
3.18639e-07
3.74595e-07
1.51157e-08
3.86837e-08
1.4869e-07
1.02753e-07
1.43892e-08
2.81139e-08
7.81699e-07
1.47161e-06
7.60513e-07
3.93791e-07
1.41074e-07
3.54019e-07
9.18484e-07
7.45309e-06
5.09141e-06
3.41994e-06
1.55026e-05
1.395e-05
1.48586e-05
1.64775e-05
6.67812e-06
7.03713e-06
3.20171e-06
1.64775e-05
8.76908e-06
3.29656e-06
5.84464e-06
1.97712e-06
6.98823e-07
6.95993e-07
2.12201e-06
4.2749e-06
2.41341e-06
2.41173e-06
9.76413e-10
5.86413e-09
8.56163e-10
6.59779e-08
1.9042e-08
5.32955e-08
1.42674e-08
2.15489e-11
9.53108e-12
8.72219e-12
8.08065e-11
1.97863e-10
4.38755e-11
8.57446e-11
1.77687e-11
1.01875e-11
1.12984e-13
9.67435e-14
7.0605e-14
2.67443e-13
2.06037e-13
2.56209e-13
1.73603e-13
4.14735e-10
3.91674e-10
5.04762e-10
1.14521e-09
7.48314e-10
6.59137e-10
9.31278e-10
0.980353
0.988282
0.955594
0.997286
0.993265
0.784021
0.983722
0.94129
0.98831
0.0125285
0.0137881
0.0125783
0.0123053
0.0123013
0.0226531
0.0167013
0.00310157
0.00329943
0.0028703
0.00481719
0.00319056
0.00849183
0.0080212
0.0043388
0.00413665
0.0138481
0.0122925
0.0129288
0.00727349
0.00573852
0.00573852
0.00573852
0.00573852
0.00573989
0.00581356
0.000105662
3.30215e-05
0.000155037
3.31219e-05
8.50078e-05
7.19338e-05
5.84065e-05
0.134882
0.0558535
0.0180528
0.0373525
0.0325235
0.0191417
0.0237344
0.0228907
0.0181035
7.75303e-05
0.000100575
7.65965e-05
0.000144772
7.94043e-05
0.000137848
0.000108792
0.0168538
0.00954219
0.0168788
0.00954428
0.00954219
0.0170783
0.0133976
0.00392234
0.00348962
0.0118974
0.00346835
0.00400932
0.00576551
0.00927051
0.00981794
0.0038637
0.00333892
0.0156482
0.00732794
0.00335029
0.0178091
0.00558152
0.00978663
0.0176019
0.00336414
0.999089
0.996607
0.994106
0.986854
0.996404
0.96152
0.986607
0.997285
0.981985
0.994882
0.996854
0.992587
0.755138
0.955001
0.935763
0.984329
0.0671872
0.0539843
0.0885917
0.168677
0.623353
0.113725
0.150893
0.0608067
0.0811729
0.0612597
0.117056
0.142562
0.207495
0.0864364
1.20174e-06
1.10337e-06
8.83662e-07
3.44069e-07
5.18262e-07
3.42843e-07
4.79257e-07
9.02923e-07
6.10942e-07
4.44655e-05
4.61845e-05
2.75248e-05
3.41583e-05
2.74512e-05
4.54062e-05
4.51981e-05
8.2967e-05
8.01434e-05
0.000183691
0.000159297
8.63506e-05
0.000234065
0.000111119
0.000180976
0.000173529
0.0190155
0.0436593
0.117541
0.0542278
0.0173101
0.0112927
0.079652
0.94536
0.945314
0.94536
0.856992
0.942302
0.897139
0.945258
3.1673e-15
1.23426e-13
4.73891e-14
9.82624e-16
6.24949e-16
1.00244e-14
4.77448e-15
1.50945e-16
6.58428e-16
5.92649e-17
2.37974e-16
8.96054e-17
2.7522e-17
5.00809e-17
2.42966e-16
2.40583e-16
1.43911e-16
4.60564e-16
1.50797e-15
8.75008e-16
4.05754e-16
3.60569e-14
3.34049e-14
1.07621e-13
1.05218e-13
6.12235e-14
1.85038e-13
5.04835e-13
1.36334e-13
2.26364e-13
5.97256e-15
3.57355e-15
4.77047e-15
8.00311e-15
2.41416e-14
8.97143e-15
1.86275e-14
5.01219e-17
3.54356e-16
1.03201e-16
5.7011e-17
2.85307e-17
1.94475e-16
6.85776e-17
6.9682e-17
3.96958e-17
2.15578e-17
1.18303e-16
3.98524e-16
1.32138e-16
3.46245e-17
1.01531e-20
1.99535e-20
6.98292e-20
8.01749e-21
4.99552e-21
1.17025e-20
3.27564e-20
3.17968e-18
8.68665e-19
5.05065e-19
9.98444e-19
3.88926e-19
1.60337e-19
2.5988e-19
1.75662e-21
4.29453e-21
2.82644e-21
1.5579e-18
7.38768e-19
5.91446e-18
8.52868e-21
1.35679e-20
1.15162e-20
5.2823e-20
2.27573e-20
1.87452e-20
7.02915e-20
1.26654e-19
1.19498e-19
6.1155e-20
7.56832e-19
2.08324e-19
4.19797e-19
1.16218e-19
3.51015e-20
1.64513e-20
1.18782e-19
1.34555e-21
8.84756e-21
2.37318e-21
9.54995e-22
3.19154e-21
3.3204e-21
1.11041e-20
2.22462e-20
4.91393e-21
5.81973e-21
1.14038e-21
1.22086e-20
2.25122e-20
3.97525e-20
1.81221e-20
1.0687e-19
7.45285e-20
1.48989e-21
9.00247e-19
3.20555e-19
2.80632e-17
3.01439e-18
5.51986e-19
3.64098e-17
1.08499e-16
2.78169e-13
9.15028e-15
2.17162e-15
6.60508e-12
2.8895e-12
1.23195e-13
4.51324e-14
1.11151e-14
2.81484e-14
3.36147e-13
1.19416e-13
8.95361e-12
2.18885e-10
7.41278e-11
1.41822e-10
3.41078e-11
1.5477e-09
1.00205e-09
5.91211e-10
3.3553e-09
4.67729e-09
1.9022e-09
8.10571e-10
2.85407e-12
2.36227e-11
2.40353e-12
3.31757e-10
1.54369e-10
1.19198e-11
2.6336e-11
2.35435e-11
2.29249e-11
1.23915e-10
1.66719e-11
8.70214e-12
1.06246e-09
1.77475e-09
3.76877e-09
3.88365e-08
9.49277e-09
1.09936e-08
3.98469e-09
1.91176e-09
2.41535e-09
5.26942e-09
1.54639e-08
5.15966e-08
1.04164e-08
5.35446e-09
4.01492e-06
2.87849e-06
4.13291e-06
1.48593e-05
1.18521e-05
5.19655e-06
1.04213e-05
0.000144815
0.00015279
0.000323968
0.000228668
0.000500892
0.000301854
0.000139514
0.00266891
0.0037131
0.00295229
0.00398873
0.00483505
0.00326374
0.00499192
0.00510179
0.00472943
0.00105635
0.00175218
0.00251714
0.00122543
0.0012772
0.00117858
0.00257576
9.57686e-05
9.1034e-05
9.18498e-05
0.000181568
0.000102987
8.95265e-05
0.000112468
0.000185448
0.00011163
0.000326385
0.000106925
8.95265e-05
0.000149389
9.901e-05
0.00281958
0.00201052
0.00202721
0.00206649
0.00288408
0.00289873
0.00289595
0.0109593
0.0135394
0.0109764
0.0157655
0.0275647
0.0260712
0.0252617
0.0317995
0.0285598
0.00917745
0.00521456
0.00840924
0.022006
0.019785
0.010351
0.0124058
0.00205041
0.00214463
0.00275848
0.00185767
0.00275238
0.0022159
0.00178643
0.00278155
0.0018511
0.00593693
0.00222835
0.00614175
0.00358975
0.00319679
0.00667712
0.0015871
0.00378679
0.0013715
0.00175999
0.00176304
0.00185259
0.00188033
0.00135875
0.00134095
0.00217289
0.00163937
0.00343365
0.00142755
0.00197473
0.00134478
0.00136189
0.00613636
0.00461769
0.00321775
0.00469963
0.0086187
0.00224976
0.00302322
0.00106356
0.00302837
0.00171646
0.00111447
0.00105756
0.0090612
0.00906575
0.00831232
0.00258034
0.0142395
0.00573989
0.0110682
0.00992354
0.00387043
0.00867617
0.0122457
0.00386731
0.00408784
0.0131349
0.00797575
0.0136983
0.0180919
0.00379819
0.00657773
0.0035654
0.0676113
0.0181066
0.0180818
0.0214466
0.0180722
0.0525565
0.0374519
0.999684
0.998167
0.999123
0.994288
0.987839
0.9774
0.987787
0.996531
0.993562
0.997104
0.916882
0.968569
0.916867
0.977511
0.983418
0.992174
0.985158
0.995094
0.979925
0.975301
0.991026
0.991026
0.993835
0.992415
0.987969
0.993593
0.996037
0.987154
0.980616
0.984616
0.992576
0.997172
0.998354
0.996796
0.998712
0.996753
0.997118
0.997302
0.998499
0.999057
0.99849
0.947267
0.909273
0.918647
0.899673
0.915868
0.829308
0.612825
0.992034
0.994008
0.982099
0.969064
0.972018
0.991284
0.996524
0.972438
0.849966
0.9465
0.99388
0.940115
0.982712
0.988059
0.935056
0.896883
0.88844
0.949373
0.948223
0.761795
0.911542
0.00298097
0.00345806
0.0085526
0.00153003
0.00349356
0.00373974
0.00759342
0.0065694
0.0342282
0.0185377
0.0113908
0.0138252
0.00885642
0.00792264
0.0193693
0.0373852
0.0373429
0.0131649
0.00855408
0.0252832
0.0151041
0.012163
0.00958362
0.00574944
0.000420853
0.000963211
0.0013172
0.00113298
0.00566859
0.0121592
4.04116e-05
0.000366228
0.00464153
0.0121616
0.00605399
0.00260275
0.00171774
0.000318751
0.000306433
0.000326249
0.000145664
0.000208144
0.000166557
5.02512e-05
0.000134642
7.469e-05
4.0357e-12
3.43627e-12
4.16739e-12
1.53466e-12
7.72831e-13
2.48445e-12
1.70843e-12
1.30275e-11
6.39205e-11
1.28508e-10
1.78675e-11
4.8809e-11
1.02624e-10
5.66234e-11
1.74046e-11
9.54838e-12
2.95751e-12
1.95798e-12
7.8245e-13
4.24693e-13
2.17595e-13
1.23288e-13
6.50667e-13
2.29623e-12
6.44141e-13
2.12871e-13
9.01095e-13
1.6705e-12
1.06406e-12
3.03015e-12
7.28002e-12
2.78775e-12
1.95715e-12
3.96843e-11
9.56698e-11
2.82588e-11
4.62832e-11
1.74898e-11
1.33185e-11
2.11795e-11
1.99676e-13
1.14293e-12
3.93852e-13
2.41081e-13
1.2922e-13
6.89161e-13
2.80194e-13
1.88129e-12
1.19527e-12
7.34151e-13
7.87307e-12
2.90665e-12
3.17285e-12
1.04362e-12
1.92441e-14
2.91722e-15
5.3556e-14
5.49292e-15
1.87944e-14
2.55972e-13
1.13138e-13
3.7625e-14
3.51014e-14
6.07582e-15
5.76829e-14
1.46604e-13
4.19745e-13
1.63282e-15
7.25071e-16
1.94703e-15
3.19988e-15
9.59429e-15
1.42422e-15
9.59717e-15
4.63946e-15
1.92145e-17
3.44169e-17
1.2471e-17
1.28668e-16
6.80701e-17
3.97449e-16
2.06669e-17
3.42523e-17
1.19165e-16
3.7385e-17
2.0159e-20
4.26553e-20
6.58487e-20
1.1681e-19
4.20409e-19
1.40629e-19
3.39776e-20
8.24297e-21
5.00672e-21
3.39532e-20
3.26608e-20
5.04179e-20
1.68953e-20
1.528e-19
2.29702e-19
3.54919e-19
8.27581e-19
3.02464e-18
1.48888e-17
6.60563e-18
5.18301e-16
2.02078e-15
1.51451e-15
1.31771e-16
4.39011e-15
1.46151e-15
8.9313e-14
2.79525e-15
3.48664e-13
6.41404e-14
5.87029e-12
1.263e-11
3.92313e-12
3.8138e-11
1.37322e-11
2.94439e-11
3.91443e-10
1.85155e-10
1.57397e-09
1.04346e-09
2.85232e-10
1.87582e-09
4.32277e-09
5.65404e-08
6.36261e-08
5.66165e-08
5.9065e-08
1.01006e-07
1.23579e-07
8.15209e-08
2.12023e-09
3.23349e-09
8.06191e-09
1.45759e-07
5.66757e-08
3.67007e-09
1.51892e-08
4.15227e-08
3.34111e-08
9.46923e-08
1.22477e-08
7.79271e-09
4.26796e-08
1.2971e-08
2.69323e-08
1.30731e-07
1.57412e-06
7.66246e-07
6.32191e-07
3.35736e-06
1.74291e-06
7.80343e-07
6.76425e-07
1.5943e-05
7.74686e-06
4.78561e-06
2.20587e-05
1.7208e-05
4.3367e-06
6.51918e-06
8.37964e-06
4.62368e-07
4.42044e-07
8.57319e-07
9.52645e-07
1.05046e-05
1.48968e-05
1.36007e-05
2.07256e-05
1.29122e-05
1.41683e-05
1.44271e-05
1.45286e-05
5.35091e-06
5.17248e-07
4.21636e-07
3.94981e-07
1.11983e-06
8.41407e-07
1.8441e-07
6.43826e-07
5.56827e-07
1.8638e-07
0.00198145
0.00170259
0.00112462
0.00196436
0.000570868
0.000674269
0.0006808
0.000975864
0.00197448
0.00194613
0.00134471
0.000895569
0.000401275
0.00115559
0.0011334
0.00113955
0.00114106
0.000984636
0.000315478
0.000239619
0.000203896
0.000203781
0.000215509
0.00169157
0.000759781
0.00134677
0.000798138
0.000805711
0.000866988
0.00143573
0.00461873
0.00349016
0.00349016
0.00354204
0.00681103
0.00654394
0.00685899
0.00589355
0.00589355
0.00697032
0.00597947
0.00589355
0.00704773
0.00707208
0.00606069
0.00708494
0.00682845
0.00598366
0.00622933
0.00598366
0.00707518
0.00604568
0.00696859
0.0021434
0.00330914
0.00201557
0.00293994
0.0022356
0.00218044
0.00198413
0.00507443
0.00548909
0.00548909
0.00175695
0.00175695
0.00400157
0.00134007
0.00134389
0.00134007
0.0454676
0.0196974
0.0198911
0.0208428
0.0223932
0.0386034
0.0174716
0.995828
0.996525
0.996524
0.918948
0.947238
0.940054
0.889142
0.948499
0.948711
0.843382
0.947453
0.936664
0.947453
0.632326
0.627651
0.632326
0.396138
0.399009
0.39593
0.395674
0.400765
0.628568
0.396282
0.396232
0.396389
0.396683
0.438192
0.647814
0.560777
0.396232
0.394467
0.435372
0.394281
0.394591
0.394301
0.395608
0.267295
0.0841852
0.345942
0.174299
0.355265
0.0854849
0.182067
0.226515
0.0284069
0.35469
0.0352645
0.369068
0.0214759
0.120762
0.00312933
0.000723694
0.00967196
0.00184835
0.0121053
0.000618346
0.00402067
0.000392549
0.000284078
0.00056178
0.000108792
0.000280903
0.000556254
0.000295094
0.433876
0.0268122
0.486014
0.0804216
0.762074
0.0835335
0.110934
0.548463
0.775521
0.887651
0.795812
0.8878
0.887566
0.872183
0.00160704
0.00572995
0.00485101
0.0169461
0.0102448
0.00437471
0.0107989
0.000916165
0.00035305
0.000288301
0.00102327
0.000293703
0.000257143
0.000577412
4.41739e-06
2.05105e-05
2.69625e-05
8.76761e-05
6.71434e-05
1.37334e-05
6.28968e-05
7.26251e-11
2.70004e-10
1.08186e-10
1.05942e-10
2.1428e-10
1.86815e-10
8.26137e-11
1.29091e-10
8.35294e-11
4.37901e-11
1.37358e-10
5.36939e-10
1.82424e-10
6.03588e-11
1.6318e-10
1.27061e-10
1.55433e-10
2.70433e-10
4.70721e-10
2.25449e-10
3.1894e-10
3.81325e-10
4.32402e-10
4.77407e-10
6.99007e-10
1.15577e-09
8.78764e-10
6.16972e-10
1.04279e-09
1.19481e-09
1.27222e-09
1.64161e-09
3.45361e-09
1.60758e-09
2.46854e-09
1.49289e-10
2.18837e-10
2.28877e-10
2.81326e-10
4.56053e-10
3.67793e-10
6.84437e-10
6.94854e-10
3.71058e-10
8.41104e-10
3.01441e-09
1.56044e-09
1.01742e-09
7.42062e-10
1.96512e-09
1.29401e-09
1.28068e-09
1.12281e-09
7.76825e-10
1.75465e-09
3.44635e-09
1.97836e-09
8.70601e-10
1.12332e-10
2.4091e-10
6.93226e-11
1.26835e-10
7.514e-11
4.13155e-11
5.54724e-11
3.66681e-12
6.6741e-12
4.94448e-12
2.52738e-11
1.00819e-11
1.70105e-11
7.78296e-12
1.00371e-10
3.36379e-10
1.57685e-10
2.07408e-12
4.51179e-12
2.97635e-12
6.15148e-14
9.03427e-14
1.40285e-13
1.41683e-13
2.29376e-13
3.65015e-13
6.23426e-13
2.10157e-13
1.57405e-12
5.74814e-13
7.28373e-14
4.9289e-14
2.91291e-14
1.27003e-13
3.53089e-13
8.70688e-16
1.42954e-15
2.62595e-15
5.12382e-15
1.41876e-14
4.61857e-15
1.60649e-15
1.0915e-14
5.73775e-14
2.23473e-14
7.52613e-15
1.22438e-14
3.82817e-14
1.93969e-14
5.93251e-17
6.07156e-17
1.26152e-16
1.06144e-16
3.68753e-16
3.82664e-16
1.56535e-16
2.46872e-14
5.97995e-15
1.27028e-14
1.8649e-13
5.93919e-14
7.84686e-12
1.6553e-11
7.03573e-13
1.91942e-12
3.77503e-12
1.74776e-13
2.83453e-13
1.75336e-12
1.37081e-12
1.72624e-11
1.52773e-10
3.26159e-10
2.52492e-11
5.22368e-11
8.83484e-11
2.07902e-10
2.90712e-10
1.06741e-10
4.59789e-10
1.05676e-09
4.19629e-10
1.51521e-10
2.81675e-10
1.79235e-10
2.30322e-08
3.66526e-08
2.35097e-08
4.07841e-08
7.48693e-08
1.03655e-07
5.42568e-08
1.35042e-08
2.79544e-08
2.42774e-08
5.19215e-07
1.86062e-06
4.00098e-07
5.11334e-07
8.52016e-07
7.16841e-07
3.91418e-07
1.16959e-07
1.22402e-07
1.27195e-06
2.34034e-07
3.02201e-07
3.55046e-06
8.09475e-07
8.22581e-08
8.54915e-08
1.95071e-07
6.75207e-06
8.32995e-06
8.37751e-06
8.36948e-06
5.4522e-06
8.40186e-06
7.59444e-06
1.41745e-06
2.53453e-06
1.79661e-06
3.51649e-06
1.43196e-06
3.17747e-06
4.95034e-06
1.07765e-05
1.01846e-05
1.07765e-05
3.12278e-06
3.27896e-06
5.00457e-06
2.03138e-06
1.1073e-05
1.1073e-05
1.1073e-05
1.1073e-05
1.1073e-05
1.10729e-05
8.20663e-06
6.0664e-05
5.37542e-05
6.07094e-05
4.51947e-05
4.54664e-05
4.58559e-05
4.5238e-05
2.73943e-05
2.75096e-05
2.75096e-05
6.06118e-05
2.92077e-05
2.76889e-05
3.39628e-05
4.51012e-05
3.07854e-05
3.07445e-05
1.95164e-05
2.62068e-05
6.42065e-05
3.66614e-05
3.65947e-08
3.43014e-09
3.69734e-08
3.84679e-09
3.43036e-09
1.35762e-08
7.45209e-09
8.25023e-08
4.31561e-08
3.71444e-08
6.46364e-08
2.76692e-07
2.31582e-08
2.31757e-08
2.31582e-08
3.1778e-08
1.76351e-05
5.86445e-06
3.6829e-06
3.83163e-05
1.10012e-05
5.13885e-05
3.79256e-06
0.0123264
0.0122612
0.0056758
0.0104238
0.00560727
0.012299
0.00752037
0.012303
0.0120984
0.00434481
0.00734533
0.0121929
0.00931395
0.00426363
0.0121929
0.00359731
0.00377489
0.0122364
0.000914843
0.00315846
0.00232897
0.00162247
0.00259454
0.00181845
0.00230997
2.54236e-05
5.32368e-05
0.000108847
1.32934e-05
2.24016e-05
2.87158e-05
2.93277e-05
1.20245e-05
1.96299e-05
9.17213e-06
2.09914e-05
1.07452e-05
4.26208e-06
1.16414e-05
8.1831e-05
0.000198999
0.000243284
7.74437e-05
0.000128315
0.000191702
0.000164609
7.75364e-05
7.57713e-05
7.57713e-05
0.000108469
7.00687e-05
0.000165243
9.86441e-05
0.000295681
0.00021755
0.000208393
0.000179599
0.000414688
0.000281209
0.00016568
0.00266831
0.00330236
0.00215464
0.00563926
0.00395356
0.00333465
0.00530866
0.00105833
0.00047178
0.000447068
0.00068444
0.000421942
0.00101898
0.000677831
0.00462149
0.00242658
0.00563862
0.00499916
0.00574343
0.00179701
0.00684334
0.00686932
0.00355677
0.00687443
0.00687816
0.00486978
0.00477002
0.005832
0.00687144
0.00686973
0.0070284
0.00707208
0.00599979
0.129447
0.263486
0.0977485
0.083341
0.074966
0.0698918
0.0733014
0.531365
0.655226
0.648446
0.654132
0.549346
0.613535
0.649187
0.395945
0.539977
0.395122
0.448446
0.431762
0.429592
0.434449
0.57828
0.359421
0.435789
0.619086
0.43479
0.633595
0.00827504
0.0241014
0.0117569
0.00817003
0.0219722
0.0224015
0.00405696
0.00457471
0.00926525
0.00311125
0.0113873
0.0194442
0.0215893
0.00780486
0.000491902
0.000312009
0.000498839
0.000274283
0.000112163
5.61375e-05
0.000268362
0.208887
0.0548072
0.2009
0.157028
0.0279627
0.0106039
0.0598732
0.0123924
0.050444
0.00351489
0.0011904
0.00121706
0.0885572
0.0373617
0.384772
0.18431
0.000376368
0.000375663
0.000374273
0.000411058
0.000391739
0.000443257
0.000372207
0.000470078
0.00043987
0.000134529
6.96505e-05
3.10461e-05
0.00011551
6.21799e-05
8.06246e-06
2.41769e-05
2.33866e-05
3.72204e-05
2.25756e-06
1.54823e-06
1.54973e-06
1.39574e-06
8.77374e-07
1.9385e-06
3.13926e-06
8.77121e-09
5.99897e-09
6.87362e-09
9.78693e-09
2.03695e-08
1.28298e-08
2.79704e-08
1.74574e-08
1.35218e-08
1.4637e-08
2.17564e-08
4.02663e-08
3.39971e-08
5.61875e-08
1.23212e-07
9.90012e-08
9.78097e-08
1.21949e-07
2.72529e-07
1.85668e-07
1.25274e-07
1.92775e-08
1.15062e-08
1.56081e-08
3.02443e-08
2.20761e-08
2.98497e-08
6.23278e-08
2.95096e-07
4.94558e-07
1.23519e-07
2.95731e-07
6.17675e-07
7.35964e-09
6.32853e-09
7.67543e-09
1.60954e-08
1.18227e-08
9.21988e-07
2.99396e-07
1.06965e-06
4.79252e-07
2.47409e-07
5.29896e-09
6.0739e-09
2.15062e-08
9.56112e-09
6.58781e-09
6.85676e-10
4.97324e-10
6.42935e-10
3.82159e-10
1.86315e-10
1.96633e-10
1.04733e-09
5.1918e-10
2.91808e-09
1.83462e-09
1.11146e-09
1.0795e-09
1.2942e-09
1.64476e-09
2.33806e-09
1.75611e-11
2.41366e-11
2.21935e-11
7.68685e-11
3.55351e-11
5.23217e-11
3.31844e-11
1.30458e-11
1.54714e-11
2.06477e-11
3.45567e-11
2.54442e-11
3.5742e-11
7.51196e-11
9.69188e-14
1.35379e-13
2.14832e-13
1.02171e-12
5.01199e-13
3.85536e-13
2.21158e-13
2.88476e-15
1.36672e-14
4.08785e-15
6.10302e-15
5.19897e-14
3.27778e-15
5.92373e-14
6.59412e-07
9.16426e-07
1.18233e-06
5.6229e-06
2.15766e-06
1.74158e-06
2.3086e-06
6.79175e-06
3.2364e-06
2.21817e-06
3.55932e-06
3.37173e-06
3.38344e-06
8.80706e-06
3.34989e-06
3.55411e-06
6.50432e-06
8.40316e-06
6.42357e-06
1.01203e-05
1.76849e-09
4.05794e-09
1.29383e-09
8.16944e-07
1.70755e-07
1.58562e-08
3.1594e-08
6.43792e-07
2.84331e-06
9.73964e-07
1.64889e-22
8.98755e-39
3.95295e-12
3.34569e-12
3.07137e-12
1.18298e-22
5.78005e-21
7.56516e-35
1.40339e-21
4.12948e-05
7.04914e-05
0.000236239
2.13387e-05
2.10659e-05
0.000233061
0.000154398
0.47788
0.842108
0.968448
0.98503
0.988007
0.973384
0.968891
0.001444
0.00308184
0.000854372
0.0125957
0.00335244
0.000420364
0.000462839
0.000749892
0.0156832
0.00339868
0.00850679
0.000617566
0.0515179
0.00529659
8.71872e-08
1.43316e-07
1.92627e-07
6.71737e-08
2.37845e-06
7.20852e-07
1.20885e-08
1.51568e-06
2.94484e-05
2.81371e-05
3.13388e-07
0.000368303
4.46146e-07
0.000131776
2.95544e-08
1.56996e-09
7.71406e-08
2.95378e-08
1.27977e-08
7.68624e-08
8.44515e-08
7.12317e-09
1.3976e-08
9.41942e-10
6.91888e-10
3.79944e-10
1.03657e-08
1.88757e-08
6.94237e-10
3.41997e-10
3.88008e-09
3.56011e-09
8.27773e-10
3.6771e-10
3.66608e-10
8.7244e-10
1.03733e-09
1.06632e-08
5.20467e-08
1.04971e-08
1.56352e-08
7.80226e-08
2.0143e-08
7.44471e-08
3.49092e-06
1.7917e-06
4.44899e-06
5.08558e-06
1.30412e-05
1.35056e-05
3.21943e-05
6.27094e-05
0.000107113
0.000153949
3.75088e-05
3.39878e-05
7.59048e-05
0.00014661
5.84887e-07
4.39679e-07
4.65768e-07
1.01326e-06
1.89116e-06
1.01025e-06
7.39138e-07
1.9705e-05
1.05967e-05
1.05405e-05
2.25344e-05
1.12118e-05
1.07569e-05
1.306e-05
3.95848e-05
7.71584e-05
4.10221e-05
7.00616e-05
4.2562e-05
4.79051e-05
0.000168853
0.000134292
0.000219188
8.3651e-05
6.9469e-05
0.000175549
7.0168e-05
0.000261718
9.44561e-05
0.00011535
0.000185819
0.000184799
0.000186114
0.000270227
0.000221061
0.000268641
0.000270017
0.000184799
0.000263943
0.00027025
0.000232756
0.000232756
0.000232397
0.000232756
0.000288445
0.000233165
0.000232645
0.000166305
0.000165578
0.000217614
0.000352689
0.000350061
0.000166305
0.000229707
0.000233991
0.000432592
0.000452501
0.000617289
0.00250209
0.00166346
0.000775917
0.000929388
0.000775917
0.00100915
0.000803607
0.000954256
0.000893999
0.00447794
0.011535
0.00564479
0.00601374
0.00758009
0.0120216
0.00756629
0.00316985
0.00123164
0.000470175
0.000470175
0.000480479
0.000634277
0.00313731
0.0216153
0.0663649
0.067796
0.0300546
0.00873312
0.00787132
0.0218517
0.0214348
0.0212802
0.0441583
0.091042
0.0319864
0.0216288
0.121292
0.874688
0.874812
0.874982
0.874728
0.874688
0.877465
0.842408
0.72312
0.816974
0.816345
0.822367
0.816974
0.816099
2.75076e-06
1.63268e-06
1.6451e-06
6.58803e-06
2.52332e-06
4.36442e-06
2.80267e-06
3.68483e-06
2.54693e-06
2.56439e-06
8.17559e-06
3.58994e-06
7.14995e-06
4.16425e-06
4.03878e-06
4.03521e-06
4.83122e-06
5.34872e-06
8.68849e-06
1.01815e-05
4.97031e-06
7.47136e-06
6.41435e-06
7.86336e-06
1.15162e-05
2.20687e-05
1.3436e-05
7.51833e-06
1.40047e-06
1.22557e-06
1.32028e-06
5.04091e-06
4.21368e-06
2.12014e-06
2.42196e-06
1.22557e-06
1.38938e-06
1.27964e-06
4.16844e-07
4.16675e-07
5.04784e-07
8.71187e-07
1.30717e-06
5.64163e-07
1.08233e-06
1.80439e-07
1.74849e-07
2.4262e-07
7.4058e-07
3.77712e-07
2.70637e-07
5.75114e-07
9.65234e-08
1.53065e-07
1.01687e-07
4.49522e-07
2.13154e-07
3.66882e-07
1.58769e-07
1.88812e-07
6.43798e-07
1.1896e-06
9.07092e-08
1.41377e-07
3.57754e-07
4.06592e-07
4.17108e-08
2.43246e-07
4.17843e-08
2.46507e-07
1.91384e-07
8.32474e-08
7.37351e-08
7.6859e-08
5.40496e-08
9.44374e-08
1.15249e-07
1.48757e-07
4.59806e-07
2.96317e-07
3.65495e-06
5.8044e-06
8.46451e-06
1.45615e-05
8.26052e-06
3.16887e-06
3.06584e-06
6.04134e-06
1.13772e-05
1.01511e-05
3.33519e-06
1.1529e-05
0.939683
0.585517
0.972307
0.794242
0.311034
0.0816401
0.89418
0.000595832
0.00128626
0.000675528
0.000286178
0.00120867
0.00328892
0.000773008
8.89904e-05
7.96012e-06
3.72012e-05
2.80751e-06
7.30491e-06
7.08674e-06
1.0216e-05
5.45828e-09
2.56863e-09
2.21681e-09
2.83708e-06
1.74182e-08
2.12849e-06
2.15592e-08
1.69265e-06
3.64404e-06
4.0563e-06
4.29355e-06
7.8115e-08
8.69433e-07
6.61035e-07
1.3078e-06
3.56479e-06
1.05787e-06
7.98885e-06
7.97868e-06
2.80068e-07
2.57951e-07
5.68023e-07
2.80209e-08
1.01591e-07
9.77561e-08
1.24914e-07
4.33307e-08
4.11216e-08
4.40889e-08
2.74834e-08
2.74186e-08
1.64394e-08
3.30884e-08
2.6553e-08
2.6546e-09
6.06458e-09
6.39948e-10
5.39639e-10
1.76221e-09
4.37382e-09
5.09862e-09
9.08764e-09
2.67531e-08
3.31222e-09
2.25191e-09
6.0329e-09
1.50006e-08
1.41972e-08
2.94737e-08
5.49217e-08
4.43383e-09
5.67592e-09
1.09901e-08
1.22814e-08
3.83432e-08
4.77313e-08
1.46599e-08
4.25966e-09
6.40037e-09
1.2473e-08
8.8469e-09
4.86769e-08
2.95182e-08
4.07473e-10
4.7116e-10
5.03602e-10
5.93392e-10
7.77792e-10
1.20603e-09
6.66606e-10
2.82323e-07
4.32956e-07
9.31172e-07
2.32589e-07
2.85213e-07
2.28243e-07
6.05161e-07
2.09735e-06
2.04961e-06
3.55579e-06
7.00069e-07
2.67329e-07
2.67329e-07
5.1637e-07
5.58209e-07
3.19356e-07
2.67329e-07
1.59133e-05
6.2003e-06
7.64931e-06
2.04961e-06
4.70301e-06
3.37975e-06
3.91219e-05
1.1317e-05
4.65252e-05
1.42241e-05
2.1383e-05
2.06081e-05
3.63978e-05
5.74282e-05
3.19142e-05
1.4913e-05
0.00026176
8.53574e-05
0.000261881
1.6688e-05
1.37502e-05
1.40627e-05
1.9916e-05
2.07995e-05
2.87268e-05
1.54451e-05
0.00104357
0.0016106
0.00119549
0.00118694
0.000803714
0.00119994
0.000417646
0.00119508
0.00275484
0.000488527
0.000745174
0.00175035
0.0129252
0.0107136
0.0166968
0.0189377
0.0158609
0.00595528
0.0276362
5.56053e-05
7.47184e-05
2.05613e-05
2.22794e-05
9.44935e-06
4.29149e-05
2.16251e-05
0.01291
0.00865234
0.00712746
0.00214682
0.00719285
5.6787e-06
1.57189e-05
3.3229e-05
1.48493e-05
6.43272e-06
5.41935e-06
5.41166e-06
0.000121049
3.80896e-05
0.000536066
0.000239065
0.000562758
3.53299e-05
6.52143e-05
0.00490103
0.00200088
0.00479982
0.00255151
0.000629215
0.000214608
0.00257468
0.874685
0.822834
0.402421
0.94428
0.946094
0.946102
0.946102
0.946096
0.946083
0.935099
0.942852
0.879669
0.942852
0.572922
0.941731
0.890536
0.941855
0.941299
0.887192
0.941855
0.941768
0.904096
0.729576
0.940894
0.945426
0.864543
0.000213757
0.000300441
0.000205306
0.000197448
0.000224857
0.000224294
0.000361907
0.000220499
0.0006086
0.000712303
0.000206865
0.000135504
8.42946e-05
8.85982e-05
0.000198359
8.08204e-05
0.000108906
0.000536365
0.00024326
0.000527183
0.000250262
0.000243412
0.000239734
0.000203327
8.29281e-05
1.93801e-05
4.69771e-05
8.32999e-05
6.01044e-05
3.24657e-05
4.41034e-05
4.6668e-06
0.000114618
3.81439e-05
0.000409296
0.000283866
0.000135909
0.00011795
8.15251e-06
3.59692e-06
1.78262e-05
4.84735e-06
3.59874e-06
7.96049e-06
1.54271e-05
1.51415e-05
8.68632e-06
8.29457e-06
0.000111055
5.31445e-05
2.45481e-05
7.24027e-05
1.25271e-05
5.42718e-06
1.19356e-05
2.40661e-05
1.38131e-05
2.99541e-05
3.89592e-05
7.25423e-05
8.15325e-05
9.24636e-05
0.000360076
0.000919093
0.000382853
0.000112878
5.96085e-05
2.10587e-05
2.13311e-05
8.99303e-05
8.19729e-05
4.81368e-05
5.23685e-05
9.99566e-05
9.91426e-05
2.64924e-05
4.06154e-05
2.67789e-05
4.94688e-05
4.5455e-05
4.94659e-05
2.69514e-05
4.44378e-07
3.80705e-07
4.40252e-07
7.38796e-08
6.21188e-07
5.29604e-07
1.46412e-07
5.68023e-07
2.37945e-07
2.70124e-07
4.76671e-09
3.7521e-09
4.2107e-09
3.42585e-09
7.99457e-09
2.50891e-09
6.90553e-09
1.03947e-08
8.46977e-09
1.95084e-08
8.22905e-11
1.18591e-10
3.34399e-10
1.09013e-10
5.12586e-10
4.99177e-10
5.67302e-12
2.98351e-12
5.26466e-12
7.01771e-13
1.01378e-12
3.79046e-12
4.75115e-12
2.28522e-14
2.86873e-14
9.96036e-14
3.75077e-14
9.68685e-14
6.51595e-13
1.31001e-13
2.68848e-13
9.33935e-14
6.08382e-11
1.90297e-11
2.96238e-11
3.90667e-11
2.34197e-11
4.64206e-11
8.2731e-11
3.13254e-10
5.60093e-10
2.05882e-10
5.02166e-10
3.32482e-10
2.38506e-10
1.82307e-10
6.71113e-10
3.32614e-10
1.99119e-10
2.32172e-10
3.81264e-10
1.33922e-10
1.79378e-10
2.67039e-09
2.79238e-09
3.33399e-09
6.10814e-09
4.05897e-09
5.58754e-09
1.20606e-08
1.51926e-09
1.61399e-09
1.81497e-09
3.12465e-08
1.35732e-07
4.00824e-08
5.90223e-08
2.51477e-08
2.58843e-08
8.91019e-07
4.01577e-07
1.66616e-06
1.05042e-06
1.17763e-06
1.04207e-06
1.17995e-06
2.38254e-06
2.53664e-06
1.09944e-06
0.000962647
0.000549875
0.00138812
0.00059966
0.0010001
0.000882723
0.00138812
0.000472676
0.000331209
0.000472676
0.000366283
0.000414315
0.000402613
0.00038876
8.66443e-05
0.000431191
0.000184093
8.0363e-05
0.000152611
0.00035442
8.38717e-05
5.97437e-05
7.68192e-05
4.95634e-05
3.60514e-05
7.85256e-05
1.41921e-05
4.33715e-05
5.11979e-07
5.08207e-07
5.08325e-07
5.31892e-07
1.37712e-06
5.08325e-07
5.08247e-07
9.10892e-07
2.3007e-06
1.75583e-06
1.32923e-06
3.05456e-06
2.54752e-06
6.94773e-07
7.83789e-07
3.55915e-07
3.47935e-07
3.44069e-07
5.92181e-07
5.08457e-06
8.58081e-06
4.95646e-06
1.20077e-05
2.80179e-05
2.23283e-05
1.52816e-05
1.79003e-05
0.000169665
0.000109711
0.000339807
5.24823e-05
0.000135052
8.79953e-06
6.55307e-06
7.99896e-06
4.58139e-06
1.58632e-05
1.87945e-05
1.34084e-05
8.94173e-06
0.941855
0.941349
0.941855
0.869622
0.869642
0.869642
0.869371
0.821333
0.869642
0.869622
0.901785
0.90372
0.901785
0.901785
0.373649
0.797423
0.897754
0.897754
0.897754
0.89767
0.897393
0.891764
0.689855
0.846033
0.869642
0.635442
0.0127103
0.00800934
0.0127854
0.00773174
0.0108164
0.0122101
0.012847
0.00381037
0.00693615
0.00362824
0.00512189
0.00477791
0.00511939
0.00344016
0.000907157
0.000925926
0.000933768
0.00274361
0.00257249
0.00102567
0.00139706
0.00451995
0.0100506
0.0159879
0.00129821
0.00155944
0.000907157
0.000927189
0.00104387
0.000947395
0.00177687
0.00117217
0.00221034
0.00110323
0.00263588
0.00362526
0.00114062
0.00109852
0.00134005
0.00232029
0.0022508
0.00400492
0.0024036
0.000117936
8.22002e-05
8.3609e-05
0.000188838
0.000368335
8.18845e-05
0.000266431
0.000168051
0.000194457
8.15067e-05
0.000128544
0.000167171
7.60986e-05
5.11918e-05
1.72696e-10
2.14552e-11
4.09468e-10
1.61338e-10
2.60036e-10
1.41004e-10
5.00216e-11
5.91374e-12
4.73351e-12
5.72471e-12
3.36729e-14
4.32595e-14
3.66308e-14
1.59287e-14
6.93809e-15
2.30177e-14
2.15654e-14
2.13512e-14
2.13338e-14
2.03453e-14
1.02325e-14
1.63729e-14
1.82393e-14
1.27746e-14
8.76381e-15
1.66471e-14
2.99923e-14
2.30884e-14
2.92798e-14
8.20484e-17
1.3608e-16
1.28422e-16
3.17693e-17
5.10168e-17
1.33749e-16
1.05297e-16
1.39197e-16
1.40441e-16
1.58853e-16
3.83746e-18
5.25477e-18
6.84856e-18
5.83654e-17