/*--------------------------------*- C++ -*----------------------------------*\
| =========                 |                                                 |
| \\      /  F ield         | OpenFOAM: The Open Source CFD Toolbox           |
|  \\    /   O peration     | Version:  v2012                                 |
|   \\  /    A nd           | Website:  www.openfoam.com                      |
|    \\/     M anipulation  |                                                 |
\*---------------------------------------------------------------------------*/
FoamFile
{
    version     2.0;
    format      ascii;
    class       volScalarField;
    location    "0.25";
    object      p;
}
// * * * * * * * * * * * * * * * * * * * * * * * * * * * * * * * * * * * * * //

dimensions      [1 -1 -2 0 0 0 0];


internalField   nonuniform List<scalar> 
6576
(
-399.461
-421.866
-389.691
-396.885
-406.49
-385.584
-385.166
-373.977
-392.552
-390.223
-390.638
-381.05
-369.009
-383.638
-296.99
-312.988
-350.176
-343.166
-317.799
-311.231
-350.606
-378.929
-387.694
-457.546
-289.102
-248.054
-175.545
-428.494
-426.818
-425.041
-416.771
-406.856
-368.748
-271.551
-252.455
-268.947
-295.417
-294.548
-284.363
-289.397
-323.45
-370.899
-319.231
200.301
197.806
200.499
198.719
199.031
202.055
202.449
200.376
200.96
-2.94064
-2.93894
-2.94085
-2.9292
-2.92918
-2.93498
-2.93532
-2.93944
-2.93014
-2.92327
-2.91771
-2.93133
-2.93783
-2.93012
-2.86588
-2.87481
-2.87992
-2.88409
-2.87475
-2.89388
-2.88684
-1.40846
-1.24367
-0.948628
-1.38791
-1.44401
-1.36617
-1.30048
-1.28166
-1.26657
-1.21212
-1.24558
-1.23789
-1.23222
-1.22015
158.12
137.366
127.652
106.045
88.9776
111.33
119.769
245.573
264.135
268.902
207.512
257.104
253.465
213.312
424.261
371.161
389.762
388.56
471.782
367.444
481.697
281.336
253.76
293.987
241.637
264.861
260.724
-2.74363
-2.85815
-2.76858
-2.91926
-3.32897
-2.84805
-2.87656
-16.3475
-55.3846
-147.758
-70.5219
8.02251
-45.2547
6.52543
-2.83963
-3.1051
-3.18867
-4.15176
-2.9062
-4.85567
-2.92655
-0.881484
-0.865079
-0.886566
-0.872844
-0.877299
-0.877043
-0.874321
-0.923519
-0.907185
-0.90023
-0.873153
-0.880943
-0.892089
-0.896088
-1.02487
-1.01661
-1.07419
-0.978519
-1.01312
-1.04152
-1.00238
-0.992298
-1.01325
-0.958923
-0.973144
-0.986687
-0.915448
-0.913578
-0.938146
-0.931588
-1.10243
-1.18161
-1.11083
-1.04883
-1.09947
-1.13903
-1.08277
-1.06557
-1.10348
-1.01515
-1.02735
-1.05025
-0.950538
-0.950486
-0.987636
-0.977117
-1.513
-1.66159
-1.4561
-1.44605
-1.58646
-1.39704
-1.25572
-1.30942
-1.46473
-1.94282
-1.87811
-2.0435
-1.83584
-1.7589
-1.9309
-1.82187
-1.9887
-1.97359
-1.91961
-1.90177
-1.78342
-1.85837
-1.94503
-2.29789
-2.39731
-2.38255
-2.02963
-2.33505
-2.37967
-2.18137
-3.29728
-3.38261
-4.44335
-2.88634
-3.55766
-3.47995
-3.40309
-2.51703
-2.5452
-2.5069
-2.37905
-2.42295
-2.44247
-2.38592
-2.21146
-2.31438
-2.17505
-2.25695
-2.14469
-2.07064
-2.16795
-1.81747
-1.68743
-1.7541
-1.88323
-1.80814
-1.72465
-1.79309
-1.47181
-1.50955
-1.39952
-1.5283
-1.62432
-1.45871
-1.53674
-1.29501
-1.23028
-1.28909
-1.38613
-1.29096
-1.36071
-1.27831
-1.24625
-1.31372
-1.1448
-1.10422
-1.14436
-1.10448
-1.16091
-1.09158
-1.13814
-0.857009
-0.878744
-0.871566
-0.8068
-0.826645
-0.841391
-0.820021
166.764
146.266
134.373
151.54
128.489
83.195
113.652
100.66
128.289
75.4645
77.4729
77.5591
75.7028
73.4294
75.5164
74.1412
67.8296
70.0725
70.191
70.0872
70.2829
69.7239
67.7594
69.8293
68.871
78.1756
76.37
76.5893
71.9911
73.0362
71.2445
73.2951
72.5466
71.2094
71.5766
-8.9033
-8.59004
-8.52985
-8.68146
-8.89879
-8.26375
-8.30116
-5.02706
-5.51859
-4.92236
-4.00638
-5.04143
-4.283
-3.8386
-4.67453
-3.74465
-9.90383
-9.42467
-8.84619
-10.35
-10.7981
-10.1317
-10.0182
70.5645
69.4767
71.6698
69.3112
69.1798
69.9022
69.3028
71.927
70.5258
70.9309
69.6553
69.0708
70.3396
69.4967
71.5664
71.958
72.15
72.2928
71.7548
71.7955
71.7868
70.7288
71.582
71.5776
71.046
213.179
203.434
230.525
187.301
216.08
212.101
249.625
164.117
165.945
182.721
166.681
146.865
88.9789
127.151
134.257
143.118
82.9245
81.7245
99.0006
109.377
121.672
94.8784
97.2452
76.4852
75.1262
82.4158
86.9327
84.4957
81.8079
80.2143
-6.11157
-6.01595
-6.04167
-5.98531
-5.87094
-6.03195
-5.87466
-5.97458
-6.10191
-7.29526
-7.16083
-7.14355
-7.03672
-6.80893
-7.13838
-7.07026
-7.32917
-7.35641
-7.48939
-7.33935
-7.03507
-7.33339
-7.11047
-7.33694
-7.34003
-1.52516
-2.18647
-0.968029
4.01888
-1.06167
-1.22978
3.29644
-4.44583
-4.84108
-11.9304
9.64393
-7.67394
9.23994
18.9809
-1.61787
-1.62334
-1.69468
-1.59282
-1.64435
-1.63765
-1.70034
-1.75839
-1.81108
-1.84774
-1.81484
-1.76512
-1.82259
-1.87701
-1.65146
-1.66426
-1.73029
-1.68177
-1.62902
-1.67191
-1.73233
-1.6737
-1.73463
-1.653
-1.65002
-1.70491
-1.63083
-1.56847
-1.65183
-1.59737
-1.91347
-1.96908
-1.89208
-1.9107
-1.86421
-1.9669
-1.91196
-2.10065
-1.99481
-2.0713
-2.10052
-2.16148
-2.0484
-2.10322
-2.10655
-2.13269
-2.19467
-2.07256
-2.01346
-2.07464
-2.12486
-2.58643
-2.55308
-2.48351
-2.58918
-2.65406
-2.58547
-2.50973
-2.28905
-2.34835
-2.35582
-2.35226
-2.41021
-2.43489
-2.37788
-2.69332
-2.58477
-2.62114
-2.31824
-2.34719
-2.22467
-2.89214
-2.83397
-2.83643
-2.83758
-2.89283
-2.85636
-2.80825
-2.82585
-2.84131
-2.89471
-2.73131
-2.79257
-2.78212
-2.83119
-2.87001
-2.92536
-2.81361
-2.82367
-2.73209
-2.79333
-2.89524
-2.83967
-2.86619
-2.80844
-2.7614
-2.82325
-2.92803
-2.89573
-2.88719
-2.86952
-2.8383
-2.8162
-2.73018
-2.79259
-2.8568
-2.89612
-2.9026
-2.92934
-2.84364
-2.83869
-2.86644
-2.86687
-2.33959
-2.31096
-2.24822
-2.35439
-2.43338
-2.32965
-2.40084
-2.33966
-2.27601
-2.05412
-1.98929
-2.08796
-2.11143
-2.19124
-2.0487
-2.11302
-2.105
-2.18856
-2.11249
-2.07465
-2.12304
-2.18999
-2.12338
-1.80716
-1.83527
-1.86268
-1.84941
-1.92953
-1.93309
-1.86426
-1.30296
-1.21488
-1.23304
-1.4021
-1.3473
-1.19505
-1.12935
-1.23182
-1.22105
-1.32744
-1.15807
-1.2415
-0.975022
-0.904746
-0.91061
-0.960017
-0.846374
-0.911238
-0.998962
-0.582018
-0.467218
-0.453754
-0.442937
-0.405803
-0.39898
-0.506124
-6.34477
-7.0338
-6.8317
-7.32136
-7.06866
-6.40923
-6.36392
-7.66542
-7.11623
-7.77338
-8.52361
-7.66307
-8.60814
-7.82804
-7.42181
-8.1406
-9.03596
-10.632
-9.56707
-10.367
-9.59042
-9.62436
-9.25889
-7.71483
-7.54233
-7.89945
-7.8599
-8.04977
-7.54542
-7.65547
-6.88559
-7.48552
-7.1488
-6.8031
-7.22543
-7.03482
-7.20542
-6.4015
-5.9755
-6.00947
-6.47015
-6.27138
-6.11698
-5.94465
15.0906
7.22303
13.5257
18.201
12.3962
18.5246
14.0831
32.1709
38.1507
34.5735
39.584
25.0046
42.6871
36.1977
42.6983
35.0582
35.197
41.7794
39.4312
42.203
41.0925
40.4458
37.2511
39.6144
34.9786
56.9145
59.0636
55.2221
57.809
50.834
51.5242
56.5532
47.7786
54.0396
48.3788
56.6849
59.3861
57.0519
55.3568
51.6892
47.189
66.3962
66.5225
65.6043
64.8623
61.4092
64.7352
70.907
70.463
70.3242
70.1309
70.0406
70.477
70.4766
70.3076
70.4156
70.2001
70.5802
69.9858
71.4643
70.6796
70.183
70.7661
70.2582
71.8016
73.6059
72.6537
72.124
72.0699
73.1081
72.6306
72.4464
72.7954
73.1373
71.705
71.1391
71.563
71.7552
70.6409
71.3995
75.2704
79.2642
69.6595
69.7885
72.5081
72.5547
182.829
150.988
172.728
354.977
445.313
452.602
470.216
520.156
481.603
453.228
288.04
322.899
298.234
307.019
390.606
351.68
196.823
408.683
292.885
281.07
351.746
300.115
447.419
522.294
497.885
539.192
511.456
498.276
502.495
576.093
517.274
469.918
472.001
508.114
531.2
479.578
558.095
504.464
470.546
485.384
424.481
463.403
475.082
450.826
506.873
464.774
436.567
518.817
557.054
495.419
521.891
490.507
626.838
453.891
519.782
421.783
441.634
267.077
456.133
446.807
367.034
465.401
439.673
264.791
374.106
418.943
435.987
484.762
538.553
-5.18567
-5.17326
-5.3493
-4.90438
-4.34374
-5.52734
-5.42497
-5.45472
-3.84633
-3.82027
-4.39687
-1.33536
-3.02812
-4.13108
-5.61306
-6.8386
-6.29113
-8.23391
-6.55027
-6.46787
-7.12569
-7.43091
-8.27251
-7.99203
-7.66663
-7.50696
-7.93202
-7.6608
-7.93585
-8.17256
-5.75086
-6.24765
-6.18752
-7.44683
-6.20772
-6.91149
-6.33675
-6.35381
-6.03181
-6.11776
-6.01094
-6.16224
-6.18499
-6.11281
-6.14764
-6.19254
-0.857549
-0.871144
-0.857298
-0.910176
-0.89623
-0.869985
-0.882476
-0.826558
-0.809349
-0.817823
-0.84008
-0.813452
-0.812262
-0.84938
-0.939379
-0.994107
-0.956332
-0.929372
-0.96489
-1.23
-1.24547
-1.3011
-1.21249
-1.16357
-1.20744
-1.24846
-1.3053
-1.24002
-1.25925
-1.25895
-1.21295
-1.25345
-1.29937
-1.17353
-1.09996
-1.20579
-1.17144
-1.22611
-1.28592
-1.23204
-1.41165
-1.29347
-1.38812
-1.42398
-1.4768
-1.37478
-1.4263
-1.41447
-1.44597
-1.50501
-1.32425
-1.38912
-1.3995
-1.44656
-1.73408
-1.64292
-1.64369
-1.65121
-1.55866
-1.57488
-1.63419
-1.6711
-1.53617
-1.64102
-1.66116
-1.61466
-1.55415
-1.88433
-1.9612
-1.87089
-1.85118
-1.78724
-1.91199
-1.77855
-1.84531
-2.12513
-2.10429
-2.17435
-2.07506
-2.10828
-2.01137
-2.19686
-2.13601
-2.075
-2.12956
-2.67498
-2.6139
-2.58734
-2.5518
-2.48866
-2.55353
-2.60786
-2.58368
-2.61496
-2.67681
-2.55502
-2.49126
-2.55749
-2.61191
-2.83039
-2.85567
-2.80009
-2.55228
-2.5888
-2.48887
-2.67702
-2.61345
-2.55188
-2.60717
-2.83462
-2.86406
-2.92441
-2.80907
-2.85763
-2.85807
-2.85586
-2.92321
-2.85658
-2.85976
-2.83927
-2.8125
-2.90028
-2.9011
-2.93144
-2.84156
-2.83715
-2.86834
-2.86198
-2.89518
-2.82466
-2.83952
-2.89723
-2.83812
-2.82036
-2.86877
-2.55665
-2.50366
-2.59194
-2.61183
-2.68024
-2.60892
-2.55769
-2.62489
-2.68219
-2.05017
-2.07769
-1.98422
-2.19361
-2.11462
-2.05421
-2.11849
-1.82293
-1.87562
-1.86678
-1.93229
-1.99972
-1.91759
-2.00201
-1.43535
-1.38598
-1.24749
-1.61295
-1.5104
-1.52908
-1.27258
-1.3471
-1.34847
-1.49232
-1.3884
-1.67579
-0.930768
-0.500422
-0.681852
-0.978264
-1.00335
-0.962701
-0.888372
-0.632171
-0.796541
-2.85304
-3.24967
-2.853
-2.82007
-3.10053
-2.70731
-2.68655
-2.82284
-2.72755
-6.74235
-6.76977
-6.82619
-7.79685
-6.67125
-7.15922
-7.34805
-7.86746
-8.23825
-7.64321
-7.98718
-8.38072
-7.49034
-7.62631
-8.5998
-8.63025
-7.80303
-8.47584
-8.41332
-7.73532
-8.16835
-8.15558
-8.09775
-8.82683
-8.92276
-8.97818
-8.52644
-8.94894
-8.95231
-8.63376
7.80629
3.58445
5.7809
2.39239
4.52178
4.41798
4.50308
12.4798
13.6933
18.1694
12.3199
12.4065
10.9564
14.4825
11.0615
14.9434
12.1552
13.6515
18.5418
13.988
14.9293
12.3902
10.5876
23.7798
28.9754
27.4714
28.5918
33.167
29.232
32.8213
21.1234
29.8203
26.7379
41.5244
45.0118
42.6319
56.8132
59.4321
57.5183
69.5505
68.3797
69.1216
69.8364
71.1713
70.1833
69.0447
598.572
467.259
524.615
461.639
460.97
621.67
499.861
386.478
467.485
438.458
507.371
490.579
479.278
442.145
360.981
388.567
386.95
387.398
397.439
471.561
510.327
354.908
377.867
182.893
217.035
145.887
213.933
160.886
197.448
246.124
334.424
228.432
317.126
401.662
268.804
227.188
46.4773
93.106
108.527
138.376
140.845
145.851
141.009
28.9311
-7.69811
21.6684
23.9178
9.8959
23.2658
58.6404
-4.94502
-4.81386
-4.91265
-5.08509
-3.41341
-5.40252
-5.38309
-5.76619
-5.02546
-4.95373
-4.93557
-4.76763
-5.40813
-5.91238
-4.27734
-4.82915
-16.6348
-21.7002
2.11632
-7.92164
-4.94676
7.2449
-32.0462
-6.51105
-11.5799
-15.5832
11.1457
-13.5551
-1.50792
-1.33324
-1.37896
-2.01133
-1.34214
-2.03473
-1.95767
-1.06311
-1.35193
-1.2122
-1.38555
-1.27623
-1.31318
-1.49624
-1.15513
-1.20645
-1.17053
-1.1372
-1.09458
-1.13473
-1.16244
-0.877553
-0.87271
-0.881451
-0.901029
-0.873287
-0.889232
-0.900111
-0.915393
-0.936107
-0.959304
-0.892712
-0.87716
-0.914432
-0.925213
-0.916231
-0.927668
-0.880858
-0.896238
-0.858487
-0.922812
-0.890983
-0.888984
-0.825367
-0.88155
-0.841373
-0.794149
-0.839438
-0.872501
-0.840669
-0.782469
-0.827196
-0.77158
-0.735474
-0.826695
-0.786349
-1.04481
-0.993247
-0.972922
-1.02319
-0.967689
-0.97026
-0.883555
-0.915925
-0.984859
-0.76559
-0.5689
-0.713602
-0.765216
-0.808382
-0.667988
-0.746188
-0.722688
-0.75734
-0.806816
-0.707715
-0.625047
-0.72344
-0.757659
-0.959617
-0.842263
-0.93073
-0.95032
-1.01218
-1.04113
-0.981797
-1.26339
-1.20766
-1.221
-1.07954
-1.17972
-1.12717
-1.20326
-0.959369
-0.823601
-0.926888
-1.25153
-1.18484
-1.21521
-1.49479
-1.44957
-1.43699
-1.74046
-1.67916
-1.6549
-1.62925
-1.68137
-1.56251
-1.62628
-1.65616
-1.67724
-1.73364
-1.62793
-1.56771
-1.96039
-1.90968
-1.88588
-1.85473
-1.78955
-1.85342
-1.90804
-1.6326
-1.56007
-1.61975
-1.65975
-1.60799
-1.56066
-1.61324
-1.96975
-1.89335
-1.91332
-1.90981
-1.86448
-1.91459
-1.9697
-2.3371
-2.36957
-2.43674
-2.29438
-2.24414
-2.6828
-2.61778
-2.60419
-2.68273
-2.62559
-2.62559
-2.57564
-2.23325
-2.28392
-2.32637
-2.35122
-2.28406
-2.29128
-2.23855
-2.61723
-2.68188
-2.60287
-2.62292
-2.68361
-2.62012
-2.5716
-2.8328
-2.80082
-2.84966
-2.83183
-2.9023
-2.83113
-2.76402
-2.82946
-2.79531
-2.7323
-2.85557
-2.9297
-2.79041
-2.91633
-2.86205
-2.85584
-2.85366
-2.81307
-2.75736
-2.81199
-2.91579
-2.92046
-2.93903
-2.86148
-2.86112
-2.87647
-2.84129
-2.86509
-2.85295
-2.82457
-2.93829
-2.91261
-2.96236
-2.9058
-2.88387
-2.93167
-2.90765
-2.82505
-2.78625
-2.85366
-2.80093
-2.84632
-2.89388
-2.87038
-2.96942
-2.99198
-2.97414
-3.02698
-2.97383
-2.95224
-2.99559
-2.92426
-2.88498
-2.81469
-2.79095
-2.77372
-2.92009
-2.88287
-2.30478
-2.16737
-2.28236
-2.38032
-2.42825
-2.19178
-2.2629
-2.30073
-2.29659
-2.30813
-2.27161
-2.34271
-2.32408
-2.34555
-2.40861
-2.40172
-2.47296
-2.38749
-2.41194
-2.41959
-2.47238
-2.2556
-2.2436
-2.24954
-2.18949
-2.24344
-2.16728
-2.20782
-2.25235
-2.23377
-2.25406
-2.41167
-2.21896
-2.25853
-2.26649
-2.31904
-2.24702
-2.20771
-2.0949
-2.1107
-1.9983
-2.02387
-2.06259
-2.02841
-5.00335
-5.08879
-3.5144
-4.04787
-2.58396
-3.24129
-2.31926
-5.27159
-5.00514
-4.44297
-3.77724
-3.82118
-6.05419
-4.92329
-5.35026
-4.7083
-4.06774
-4.26524
-7.78596
-7.61154
-7.4081
-6.59865
-7.47034
-7.53905
-7.73599
-4.48879
-4.69238
-4.39616
-4.07968
-3.92644
-4.23704
-4.2563
-3.58803
-3.50972
-3.22413
-3.57209
-3.55392
-3.5054
-3.67045
-3.43727
-4.04869
-3.68299
-3.50927
-3.09304
-3.5914
-3.63385
-2.89106
-3.5782
-3.17276
-2.81928
-2.80899
-3.06415
-3.30195
-3.43305
-3.24758
-4.10631
-4.02636
-3.39509
-3.26443
-3.45523
-0.233316
-0.764243
-1.13488
0.365171
-0.561576
-0.868933
-1.33985
-2.41647
-2.99362
-3.06717
-2.95479
-3.12679
-2.83494
-2.83472
1.80737
-0.0127961
-1.39027
-1.78129
2.0304
-1.43178
10.3724
4.54584
2.75346
4.72555
7.63625
4.10877
2.03236
3.48437
2.76601
3.75314
19.4861
15.7219
15.1329
157.961
175.004
213.852
164.659
128.392
117.955
169.964
215.304
240.233
147.642
173.47
50.1047
34.7188
167.5
256.184
232.876
295.299
131.36
118.533
144.187
63.3255
42.292
78.8252
146.941
205.252
73.2194
77.3645
10.8705
19.3574
-0.275106
7.33811
21.9004
19.6164
1.37845
6.60486
-1.20423
-1.8819
-0.95736
-1.0182
-4.62723
-4.29905
0.237961
-0.00757714
0.16051
-0.250169
-0.201381
-0.181673
-0.250652
4.5169
4.01774
19.7771
-0.499672
2.6501
5.008
-2.34739
2.18148
-2.17052
-2.24898
-3.17656
-5.23979
-3.36969
-4.46642
-9.26045
-6.51139
-2.11115
-1.2733
-0.895383
-1.06879
-1.38075
-0.372368
-0.779975
-0.291076
-0.211708
-1.04894
-1.2061
-1.1008
-1.04444
-1.15039
-1.05761
-1.00327
-1.08916
-1.03231
-1.2399
-1.31124
-1.31895
-1.28775
-1.3384
-1.3168
-1.31751
-0.717092
-0.666709
-0.649985
-0.646332
-0.654675
-0.64097
-0.640367
-0.603292
-0.545763
-0.506644
-0.50984
-0.516243
-0.490368
-0.473449
-0.276577
-0.222003
-0.276525
-0.272127
-0.10083
-0.235322
-0.325525
-0.517892
-0.509019
-0.489778
-0.38393
-0.462003
-0.451574
-0.315282
-0.31999
-0.0760191
-0.241286
-0.233234
-0.0825902
-0.530068
-0.48376
-0.486602
-0.460546
-0.523185
-0.0418677
-0.316235
-0.0903371
-0.342515
-0.29319
-0.509163
-0.441317
-0.425525
-0.541742
-0.562996
-0.745172
-0.784473
-0.756214
-0.977156
-1.05456
-1.01603
-0.880463
-0.95094
-0.719868
-0.77025
-0.810952
-0.825554
-0.808319
-0.773618
-0.734143
-1.23269
-1.19365
-1.21188
-1.12567
-1.18063
-1.13229
-1.18074
-1.10864
-1.07388
-1.04325
-1.06363
-1.10862
-1.0638
-1.02108
-1.51571
-1.45994
-1.43706
-1.34336
-1.4045
-1.40404
-1.45763
-1.86738
-1.93445
-1.83531
-1.81425
-1.86737
-1.74901
-1.80549
-2.33421
-2.39499
-2.29907
-2.40325
-2.4416
-2.36862
-2.33197
-2.86839
-2.8813
-2.85302
-2.92473
-2.93421
-2.90412
-2.92478
-2.97088
-2.92711
-2.91457
-2.93774
-2.98091
-2.9346
-2.97165
-2.93087
-2.94529
-2.92226
-2.92282
-2.92796
-2.92765
-2.9809
-2.92163
-2.90899
-2.84973
-3.09848
-2.82373
-2.89621
-2.86553
-2.88877
-3.35223
-2.9056
-2.83767
-3.99679
-5.83046
-4.26291
-4.8612
-3.31207
-6.7004
-5.91591
-3.06021
-86.9824
-46.9844
-51.0958
-25.2632
-27.4324
1.9919
-3.26964
-5.77342
-4.57388
-2.14851
-5.77866
-5.40143
-0.345161
-2.31408
-5.55069
-4.62723
-4.50895
-5.23566
-4.15126
-4.91426
-3.08112
-1.72815
-2.72786
-2.66592
-2.51151
-2.35035
-2.535
-2.67567
-2.14762
-3.80761
-1.00722
-0.844687
-1.97573
-2.56267
-2.34835
-2.35957
-2.3965
-2.36794
-2.39631
-2.44857
-2.40466
-2.58959
-2.55989
-2.5405
-2.48823
-2.52835
-2.58815
-2.55712
-2.52362
-2.56004
-2.18393
-2.22597
-2.23724
-2.25649
-2.29752
-2.25866
-2.22143
-2.22799
-2.18636
-2.28731
-2.23153
-2.20373
-2.30314
-2.29647
-2.35697
-2.29486
-2.27926
-2.31136
-2.34977
-2.24728
-2.20163
-3.31721
-3.39613
-3.6006
-3.3448
-3.28945
-3.42711
-3.56466
-2.94433
-2.87694
-3.02767
-3.03286
-2.85977
-2.94862
-2.95566
-2.90508
-2.9969
-2.85487
-2.96304
-2.9633
-2.72686
-2.8522
-3.12155
-3.05239
-3.10439
-3.09733
-2.99695
-3.01252
-3.03681
-2.96685
-2.95821
-2.9043
-2.99789
-2.93369
-2.97527
-2.96025
-2.92414
-2.95311
-3.1099
-3.14259
-3.17312
-3.06706
-2.93906
-3.01648
-3.15252
-3.04052
-3.05707
-3.03569
-2.85703
-3.15295
-3.11726
-3.1084
-3.0997
-3.11876
-3.17765
-3.57491
-3.95399
-3.25514
-4.35365
-3.84023
-4.11939
-4.14931
-3.08439
-2.86558
-3.08399
-2.67647
-1.93951
-2.60462
-4.15026
-4.30563
-4.41231
-4.89063
-4.00335
-4.55134
-4.9838
-7.3148
-7.15566
-6.17788
-6.45815
-5.75585
-6.69536
-6.14711
-6.4557
-5.83064
-6.23339
-5.57997
-6.25339
-5.39791
-6.22333
-3.75042
-8.29575
5.3032
-4.00982
-5.93637
-7.76743
-2.3933
-19.3443
-8.40758
-4.86497
-8.82278
-16.0997
-4.57584
7.54964
625.316
320.873
594.687
328.856
450.947
419.342
610.429
35.4929
-29.0433
-43.5666
198.846
123.612
91.3364
-1.05121
-0.826103
-0.897879
-0.927913
-0.789022
-0.924155
-0.807559
-0.704076
-0.445458
-0.430876
-0.502771
-0.364149
-0.433231
-0.413334
-0.153066
-0.150258
-0.363053
0.0407881
-0.0485908
-0.145632
-0.0591129
0.362662
0.15064
0.237658
0.269974
0.468398
0.0889796
0.200515
-0.0748749
-0.0225621
-0.0290735
0.356373
0.0648791
0.189352
0.00558236
0.0443796
0.0133127
0.000136477
-0.198881
-0.237775
-0.367596
-0.1814
-0.148388
-0.192142
-0.213253
-0.44319
-0.442654
-0.586256
-0.403507
-0.418381
-0.385974
-0.427956
-0.653299
-0.779873
-0.666033
-0.680526
-0.647615
-0.684441
-0.626416
-0.931338
-0.999479
-1.0352
-0.865393
-0.898543
-0.934065
-0.98077
-0.680458
-0.667817
-0.696634
-0.603054
-0.640828
-0.663311
-0.641055
-0.696015
-0.762536
-0.693589
-0.663746
-0.723787
-0.694748
-0.604102
-0.908034
-0.818595
-0.981454
-0.587472
-0.829858
-0.552289
-0.619786
-0.644841
-0.601241
-0.278197
-0.755584
-0.530971
35.5129
-18.0762
7.69458
0.593991
-8.34436
-7.81977
-5.30262
-3.95003
-4.85038
-5.62088
-3.45843
-3.60291
-4.41567
-4.64126
-3.34976
-3.57414
-2.95496
-3.36842
-3.35438
-3.27785
-3.49082
-2.76285
-3.39947
-2.98631
-2.80344
-2.90811
-2.82078
-2.91781
-2.83074
-2.85895
-2.8
-2.79519
-2.93331
-2.84759
-2.9106
-2.88303
-2.94362
-2.87219
-2.89654
-2.86893
-2.93047
-2.93652
-2.92269
-2.90831
-2.90932
-2.89531
-2.89937
-2.77754
-2.74412
-2.78511
-2.80383
-2.77443
-2.79926
-2.82576
-2.53081
-2.57998
-2.53029
-2.61267
-2.60233
-2.5567
-2.56139
-2.66067
-2.61007
-2.65107
-2.70276
-2.67645
-2.64898
-2.68449
-2.80405
-2.81615
-2.87252
-2.81102
-2.78082
-2.78577
-2.82726
-2.97779
-2.99199
-2.95217
-2.91294
-2.88658
-2.93134
-2.90121
-2.96721
-2.94392
-2.80893
-2.84307
-2.80869
-2.80512
-2.81365
-2.80409
-2.80834
-2.69866
-2.76481
-2.66359
-2.77689
-2.75334
-2.79086
-2.73983
-2.69524
-2.90886
-2.84402
-2.79158
-2.79691
-2.84448
-2.71821
-2.75146
-2.71859
-2.76251
-2.7762
-2.77877
-2.84772
-2.6958
-2.66042
-2.8166
-3.02029
-3.06145
-2.86653
-2.86885
-2.77528
-2.91057
-2.98484
-2.97795
-2.96064
-2.87977
-3.00855
-2.90848
-2.98543
-3.38938
-2.96099
-3.1902
-3.04275
-3.00903
-2.96223
-2.83373
-5.78879
-6.09722
-5.84948
-5.83341
-5.79229
-5.6407
-5.54431
-6.06395
-6.30082
-5.7248
-6.47211
-6.56672
-8.70769
-8.03087
-7.17394
-6.27864
-6.2267
-7.91547
-8.19276
-6.6585
-6.82858
-6.68542
-6.0397
-6.07326
-6.30678
-6.21606
-7.57748
-7.93385
-7.75992
-8.11206
-7.19556
-5.31707
-5.29925
-5.24301
-4.93403
-5.08158
-4.95489
-5.08289
-4.57316
-4.66587
-4.67685
-5.02096
-5.31442
-4.93801
-4.92554
-4.27451
-3.88792
-3.06362
-4.19547
-4.16776
-4.41817
-3.89628
323.091
287.134
353.651
3703.88
1636.13
2385.19
2296.48
1444.87
3666.17
2512.01
2026.84
336.463
2190.73
1449.34
2171.18
2339.35
1326.23
743.188
712.777
553.191
619.176
-274.013
417.267
1322.64
4644.38
3102.91
-1.10167
1.04661
1.1596
0.465631
1.17029
-0.942316
-0.636673
-2.02214
-1.40867
0.727511
-1.12142
-0.801727
-1.04267
-0.92785
-1.34356
-1.00732
-1.68373
-3.8377
-3.80607
-4.42091
-3.45036
-3.84659
-4.06996
-3.68792
-2.92517
-2.65886
-2.64882
-3.25159
-3.14787
-3.05435
-3.11911
-0.626339
-0.670683
-0.632286
-0.785173
-0.813658
-0.652267
-0.686045
-0.492774
-0.48827
-0.43678
-0.532755
-0.470529
-0.531152
-0.449065
-0.64255
-1.30077
-0.559301
-2.03206
-1.18261
-1.05897
-0.954685
-0.685066
-0.865399
0.502031
-0.872157
-0.798121
0.000870262
-1.63673
-2.69694
-2.31628
-2.75779
-2.27978
-2.2285
-2.6772
-2.53008
-2.74334
-2.87973
-2.6668
-2.79146
-2.9687
-2.59651
-2.53538
-2.54114
-2.64363
-3.08584
-2.93223
-3.07206
-3.28359
-3.18646
-3.07409
-3.03186
-2.83141
-2.7967
-2.81717
-2.78375
-2.75844
-2.78893
-2.80967
-2.88713
-2.87708
-2.9107
-2.90199
-2.92861
-2.8934
-2.92466
-2.90129
-2.90522
-2.87963
-2.91039
-2.9376
-2.9101
-2.90947
-2.89476
-2.934
-2.88218
-2.9063
-2.90608
-2.9291
-2.93781
-2.92901
-2.9139
-2.91523
-2.9037
-2.90473
-2.82056
-2.80345
-2.80951
-2.81946
-2.80213
-2.79862
-2.81622
-2.79973
-2.81716
-2.80095
-2.8095
-2.81091
-2.80459
-2.80475
-2.80165
-2.79631
-2.81726
-2.77933
-2.79838
-2.76374
-2.78552
-2.78978
-2.79428
-2.73101
-2.76362
-2.75877
-2.75859
-2.75883
-2.75943
-2.76203
-2.76671
-2.7711
-2.7589
-2.71627
-2.75589
-2.74754
-2.73159
-2.76798
-2.7613
-2.76569
-2.75703
-2.70521
-2.79139
-2.77406
-2.78945
-2.76486
-2.74176
-2.73622
-2.76722
-3.03562
-3.05887
-3.11993
-3.12822
-3.0542
-3.16464
-3.36965
-9.89437
-9.96318
-10.4988
-10.2907
-10.4938
-10.5236
-10.5878
-8.53156
-8.94811
-8.69269
-8.88351
-9.50323
-9.50534
-8.57902
-10.6309
-10.8728
-10.0031
-9.78651
-10.6541
-10.6055
-9.71338
-7.70835
-8.53839
-8.17206
-8.58171
-9.08541
-8.04427
-8.46697
-5.9019
-6.01464
-5.75563
-6.07934
-6.14484
-6.03138
-5.8929
-6.12713
-6.06135
-6.17434
-6.02593
-6.09856
-6.14613
-6.07736
-5.90758
-5.77875
-5.99329
-6.10731
-6.14053
-5.97105
-5.99306
-5.98262
-5.96878
-5.94207
-5.97438
-5.98645
-6.0346
-6.21603
-6.57319
-6.44815
-6.2167
-6.75692
-6.33163
-5.94772
-6.0172
-5.93751
-5.8531
-5.93744
-5.94238
-5.84636
2060.58
964.574
888.219
417.122
327.766
859.425
-85.0795
142.693
-60.8677
42.3608
-726.366
54.0638
694.74
184.875
225.458
-343.363
-102.58
187.457
73.6812
-290.067
44.8959
-128.821
48.2189
-151.451
-28.971
-12.5653
-2.07787
2.12129
-0.968339
7.12612
9.47055
3.3629
4.59499
2.56708
0.318066
4.08275
-2.45398
-2.72749
-0.248496
-1.29925
-2.86969
-5.42979
-2.35601
-1.7507
-3.7784
0.724966
-1.71094
-0.662184
-3.15519
-0.0359516
0.718799
-0.10414
1.02747
-3.17082
-4.74703
-3.63822
-4.09521
-2.44238
-5.04599
-2.73563
-7.00238
-6.74483
-5.95852
-5.00594
-4.23339
-6.48504
-5.48961
-5.54776
-6.06957
-2.73916
-2.75173
-2.6206
-2.71869
-2.66933
-2.75546
-2.78265
-2.694
-2.53434
-2.54511
-2.58611
-2.47036
-2.52245
-2.41343
-2.61469
-2.59258
-2.56521
-2.54434
-2.56908
-2.60846
-2.58542
-2.89688
-2.88325
-2.90808
-2.81707
-2.7791
-2.79998
-2.82919
-2.81389
-2.78553
-2.80314
-2.9036
-2.92819
-2.89758
-2.89571
-2.86882
-2.90584
-2.92879
-2.91688
-2.89153
-2.91407
-2.93804
-2.91447
-2.93921
-2.93325
-2.93307
-2.92315
-2.92445
-2.91495
-2.91409
-2.91828
-2.90705
-2.8974
-2.92167
-2.93852
-2.91321
-2.90486
-2.92205
-2.92559
-2.93694
-2.92025
-2.91621
-2.93771
-2.92318
-2.91267
-2.93176
-2.83679
-2.83717
-2.82122
-2.83439
-2.81822
-2.83361
-2.83941
-2.7876
-2.76164
-2.79538
-2.78555
-2.79035
-2.79341
-2.78173
-2.74013
-2.76624
-2.80388
-2.78572
-2.77463
-2.77085
-2.77436
-2.75856
-2.75367
-2.75325
-2.9356
-2.9062
-2.91365
-2.9443
-2.97223
-2.92761
-2.92845
-2.88815
-2.82874
-2.82174
-2.81171
-2.80693
-2.81172
-2.83493
-2.86085
-2.9081
-2.85697
-2.83367
-2.82312
-2.84984
-2.83435
-2.97878
-2.93772
-2.95185
-3.09322
-2.97789
-2.93628
-2.98485
-2.99794
-3.02446
-3.11493
-3.0358
-3.15591
-3.07923
-3.06152
-3.77563
-3.69737
-4.04133
-3.92339
-3.86141
-4.16929
-4.28624
-5.6984
-6.22326
-6.2269
-5.23617
-5.41567
-6.04031
-5.9749
-7.97232
-7.60298
-7.45209
-7.29955
-7.10486
-7.71604
-7.92032
-8.47327
-8.28984
-7.99724
-8.39194
-8.22785
-7.36829
-7.78369
-8.23524
-8.46526
-8.4691
-8.57276
-8.18344
-11.5737
-11.473
-12.087
-13.4312
-12.7511
-11.3075
-11.8128
-12.252
-12.6628
-10.763
-11.6442
-11.0708
-11.1891
-10.544
-10.4988
-11.2881
-10.7845
-10.0985
-11.993
-12.1359
-11.3705
-10.5381
-10.4647
-10.6907
-10.7397
-8.38106
-8.03191
-8.14108
-7.625
-7.91319
-8.15519
-8.07147
-7.28689
-7.47629
-6.93372
-7.8186
-7.79783
-7.35252
-7.58361
-6.44398
-6.42535
-6.25453
-6.56418
-6.59868
-6.4063
-6.52086
-6.46208
-6.29397
-6.41604
-6.39151
-6.43919
-6.3004
-6.38795
-0.936937
-6.00889
8.62886
-1.97355
9.62529
-12.2837
3.61689
-321.329
-25.9475
-96.9552
119.493
-43.5444
23.554
50.6876
15.664
182.489
90.4637
211.351
92.4332
46.5343
68.0087
-133.925
8.07689
-103.113
131.256
58.924
177.943
195.371
303.334
195.703
531.758
89.2605
221.951
-15.3295
-61.8765
-12.8344
88.5743
-27.5677
-144.104
-64.8573
55.7056
2.30515
4.66198
7.50531
0.206868
2.89108
3.24595
6.04241
71.7315
57.0575
40.1777
82.4441
147.053
92.8315
40.875
14.0662
22.4212
36.0815
18.4052
27.7257
76.8513
88.3998
48.7867
36.8385
1.49704
56.472
34.7379
5.01312
38.988
-3.93288
8.06988
13.5427
40.9752
97.7081
69.5647
102.748
135.958
96.1949
82.1391
102.746
62.0559
109.213
46.4919
67.8634
50.3347
47.4413
71.0034
33.2573
29.331
41.1751
33.045
26.0763
26.6089
34.1625
55.786
56.1333
52.7172
46.5072
39.6761
49.6425
52.6439
32.1371
26.7102
36.382
33.7283
32.7819
42.4539
43.6415
35.7496
60.8985
50.5544
64.7979
60.3889
53.3174
59.2414
50.0969
38.9412
64.6355
62.5526
63.7286
12.906
28.8961
32.036
17.011
17.0861
18.548
23.8779
3.62407
19.7046
22.0822
12.449
2.86042
34.7624
39.7345
31.8708
50.0062
47.1046
44.666
45.8811
59.6837
55.8773
59.7358
63.0805
67.5418
56.9808
55.9591
67.3576
59.0401
59.6711
60.7276
46.6809
61.9
56.0979
167.46
163.221
161.945
146.013
154.7
159.683
151.782
203.065
201.354
202.413
183.871
195.486
195.001
192.283
196.088
196.996
198.278
193.574
177.431
188.914
189.653
197.482
201.627
206.535
206.096
202.192
201.553
76.6072
69.0506
90.3123
87.4694
104.383
65.2638
81.6168
81.7846
64.4017
91.4283
102.765
73.9602
80.9492
93.2066
84.0173
63.9968
43.3917
77.2513
52.5563
81.4289
100.401
-1.2408
-1.23147
-1.30657
-1.3372
-1.35876
-1.26317
-1.26427
-1.34842
-1.35777
-1.30598
-1.32778
-1.34175
-1.30085
-1.30012
-0.973342
-0.964426
-1.03163
-1.11291
-1.06333
-0.98339
-0.988093
-1.08562
-1.11363
-0.885124
-0.893569
-0.846284
-0.914452
-1.0475
-0.951707
-0.863852
6.64836
-8.03128
-26.8252
0.489182
-21.5059
7.69774
4.31647
-6.8743
-7.05878
-5.07515
-0.62522
-24.2345
5.68222
-4.35894
2.13479
1.59915
-9.14297
6.35728
-12.2416
2.5985
-4.48062
-2.90787
0.611031
-3.09455
-5.51563
-5.99491
-3.85115
-3.99278
-4.93368
-4.11573
-4.48917
-4.60371
-4.80727
-2.95794
-2.7938
-2.76001
-3.27093
-3.02312
-2.81133
-2.86892
-2.90621
-2.71241
-2.71938
-2.8304
-3.2681
-2.10804
-2.16445
-2.04135
-2.18533
-2.16393
-2.14516
-2.16161
-2.35216
-2.36218
-2.32969
-2.44428
-2.43016
-2.40407
-2.3981
-2.48532
-2.52233
-2.49794
-2.49427
-2.53489
-2.53992
-2.48773
-2.75054
-2.75166
-2.71734
-2.70636
-2.71148
-2.74228
-2.73883
-2.81027
-2.78962
-2.79242
-2.82623
-2.82738
-2.87106
-2.84973
-2.85756
-2.87895
-2.86927
-2.85246
-2.86176
-2.90702
-2.92168
-2.91373
-2.89654
-2.91029
-2.90887
-2.89422
-2.94015
-2.92401
-2.92729
-2.92076
-2.90376
-2.91348
-2.9358
-2.9245
-2.93063
-2.91916
-2.9106
-2.92153
-2.93851
-2.93692
-2.93958
-2.93249
-2.92721
-2.90703
-2.91928
-2.92215
-2.92917
-2.94036
-2.93504
-2.93453
-2.86679
-2.88326
-2.87699
-2.8825
-2.89007
-2.87697
-2.86745
-2.87887
-2.88835
-2.86274
-2.87961
-2.86184
-2.87078
-2.8652
-2.88767
-2.90497
-2.88848
-2.85931
-2.82821
-2.83681
-2.84369
-2.84813
-2.86956
-2.84247
-2.83706
-2.8288
-2.81744
-2.82884
-2.83912
-2.83237
-2.82971
-2.83731
-2.85241
-2.82818
-2.84496
-2.83934
-2.84183
-2.83489
-2.85375
-2.86392
-2.84758
-2.8359
-2.81615
-2.83324
-2.84231
-2.82772
-2.81204
-2.81356
-2.81587
-2.81379
-2.83546
-2.81125
-2.81565
-2.91064
-2.94106
-2.94352
-2.96854
-2.91865
-2.9487
-2.90575
-2.97387
-2.92413
-2.93852
-2.88541
-2.92756
-3.05114
-3.08558
-3.10137
-3.00133
-3.00487
-3.02706
-3.02587
-3.15901
-3.12776
-3.18378
-3.17036
-3.09765
-3.09499
-3.15828
-3.38469
-3.41432
-3.55014
-3.67938
-3.65251
-3.49877
-3.49644
-4.80089
-3.89809
-4.31655
-5.04386
-6.26809
-4.03189
-3.93793
-4.4187
-3.95667
-3.69084
-3.80774
-4.08565
-5.13194
-5.51146
-6.04752
-4.64481
-4.50202
-4.79672
-4.93839
-7.11815
-6.2203
-7.02598
-6.82052
-6.77716
-6.05832
-6.87485
-7.28204
-6.66335
-7.06277
-7.54936
-7.06843
-7.06555
-6.81386
-6.88294
-6.86671
-6.88274
-7.17082
-6.74861
-6.74102
-6.48091
-6.71309
-7.03955
-8.463
-7.34061
-7.2055
-8.44647
-8.88254
-7.5907
-7.28102
-7.02538
-7.12796
-7.34445
-7.2694
-7.61957
-9.1633
-8.9081
-8.86091
-9.19047
-9.22106
-9.675
-8.93268
-8.27595
-8.53379
-9.15814
-9.46468
-9.8751
-8.56387
-8.57671
-7.68935
-7.64116
-7.58801
-7.47183
-7.34366
-7.43684
-7.38466
-7.23583
-7.43478
-7.6425
-7.67944
-7.79066
-7.3599
-7.23196
-7.32285
-7.36129
-7.27971
-7.36791
-7.46925
-7.05597
-7.25481
-7.14995
-7.31885
-6.97663
-7.35836
-7.2881
-6.88711
-7.01354
-6.94571
-6.94373
-6.94238
-6.69376
-6.86433
2.58547
2.74986
5.1526
-1.75283
-1.44841
-1.44463
3.09225
249.445
105.555
108.179
634.201
352.743
703.253
543.147
464.763