/*--------------------------------*- C++ -*----------------------------------*\
| =========                 |                                                 |
| \\      /  F ield         | OpenFOAM: The Open Source CFD Toolbox           |
|  \\    /   O peration     | Version:  v2012                                 |
|   \\  /    A nd           | Website:  www.openfoam.com                      |
|    \\/     M anipulation  |                                                 |
\*---------------------------------------------------------------------------*/
FoamFile
{
    version     2.0;
    format      ascii;
    class       surfaceScalarField;
    location    "0.1";
    object      alphaPhi0.water;
}
// * * * * * * * * * * * * * * * * * * * * * * * * * * * * * * * * * * * * * //

dimensions      [0 3 -1 0 0 0 0];
oriented        oriented;


internalField   nonuniform List<scalar> 
13152
(
9.03861e-07
2.02047e-05
-1.47373e-06
-1.96349e-05
1.86194e-05
-1.71554e-05
-5.6011e-07
-3.48927e-06
4.23134e-05
-3.46686e-05
3.53735e-05
-2.17864e-06
2.11993e-05
-7.55028e-05
2.84978e-05
-2.44539e-05
6.03821e-05
-1.61314e-05
-2.95921e-05
-2.83952e-05
7.41186e-05
3.86536e-07
-1.68346e-05
3.16683e-07
-2.9897e-05
6.91498e-07
7.86403e-06
5.16898e-06
-2.98677e-05
7.84327e-06
3.37446e-07
-5.07168e-06
-1.54802e-05
-2.97997e-05
-8.64052e-06
-1.46883e-05
-5.13988e-06
2.84687e-05
-5.18427e-08
-8.66517e-06
7.64964e-08
-1.42105e-05
-5.29696e-07
5.63998e-06
-3.05523e-05
1.62471e-05
-2.94368e-05
2.99369e-05
2.93558e-05
-6.10639e-07
3.164e-08
-1.51744e-05
-2.98935e-05
1.25442e-07
-7.49356e-05
3.18642e-07
1.6005e-05
3.02e-05
5.54907e-08
7.46738e-05
3.58471e-05
1.26843e-05
2.53449e-05
-7.38763e-05
3.05132e-07
-6.25526e-07
3.61675e-05
1.24293e-05
2.65476e-07
-1.87977e-05
7.35405e-05
7.77518e-05
2.90688e-05
-7.18955e-07
-2.93564e-05
1.00658e-06
-1.63343e-05
-2.69185e-05
7.23215e-05
2.06194e-07
-1.72595e-05
-8.05922e-06
7.97971e-06
2.85698e-07
5.27333e-06
-3.0592e-05
-4.95333e-06
-1.39854e-05
-2.90364e-05
-1.38341e-05
1.34372e-07
2.91144e-05
2.12355e-07
3.28432e-07
3.91089e-07
-1.86896e-07
-5.27778e-07
8.43906e-08
2.18926e-09
2.44078e-07
2.62351e-07
2.17239e-07
-3.05316e-07
-6.56077e-08
4.3235e-07
-2.19057e-08
-4.9585e-07
2.65045e-08
8.00143e-09
1.57019e-07
5.68056e-08
2.00546e-07
-6.44797e-08
4.34889e-08
-8.79075e-08
-1.63079e-47
6.00721e-47
-3.31355e-47
-9.45636e-47
2.80941e-46
-3.44352e-46
-2.98096e-46
-1.93448e-47
-1.70178e-46
2.04852e-46
5.62007e-47
-1.65369e-45
2.33189e-48
-6.32679e-48
-1.10504e-46
-4.77979e-53
-6.89537e-46
-4.38959e-43
-1.66809e-42
-2.23487e-43
1.07414e-42
-1.49143e-43
-2.3875e-42
4.73677e-45
-1.59975e-41
-2.49031e-43
2.87053e-41
1.9278e-41
-1.73593e-40
4.98361e-42
6.41826e-44
-4.33263e-42
4.435e-42
-1.22504e-44
1.96538e-36
1.8403e-36
1.76798e-36
-1.2737e-35
1.26554e-38
5.73366e-37
4.84951e-38
2.6316e-37
5.13014e-39
-6.3395e-38
2.4896e-37
2.91743e-38
4.12004e-37
-1.60223e-38
-1.04546e-37
3.05938e-37
-3.35013e-39
-2.72089e-14
-4.66441e-13
-4.42646e-13
1.8043e-13
-6.58231e-13
-3.6472e-12
7.61144e-13
-7.27441e-13
-7.41175e-12
2.57071e-12
-9.99557e-12
-1.18492e-11
-2.08907e-12
8.51381e-13
-5.69603e-12
-1.40476e-11
-7.84188e-11
3.33104e-17
6.98975e-17
-1.42271e-15
-3.59462e-16
3.72343e-18
-6.34223e-17
7.00222e-18
-7.17242e-16
1.14988e-16
-1.55446e-16
4.03462e-15
-4.05521e-14
6.13382e-16
-7.81995e-15
-2.08582e-16
5.64359e-17
-2.20473e-15
8.48247e-09
-4.73645e-09
7.35642e-10
-1.50207e-09
-7.65868e-09
-7.45433e-09
2.80177e-08
-1.50249e-09
-8.45903e-09
1.09643e-10
3.19481e-10
-8.67838e-10
-5.3202e-09
-6.94571e-10
-2.12795e-08
1.30795e-08
-2.71764e-08
-2.76741e-08
-1.58624e-07
-2.74764e-09
1.95559e-07
1.91097e-08
-1.77385e-08
-5.38864e-08
1.33232e-07
-2.75218e-07
-9.02968e-09
-2.92353e-08
-2.19568e-09
1.6662e-09
-7.77943e-08
3.03924e-07
-2.13895e-07
2.56285e-07
-6.43927e-08
7.97983e-08
-6.19809e-09
-9.20721e-09
1.78723e-07
4.39182e-08
-2.87023e-07
1.40267e-07
1.18256e-07
-4.58037e-08
2.4631e-07
-1.56587e-07
2.09301e-08
-7.29318e-08
-3.45213e-07
7.31816e-07
-2.05557e-07
-4.81669e-07
-5.21676e-07
4.3081e-07
5.73987e-07
-1.97923e-07
1.49996e-07
-4.33136e-07
-2.88572e-07
-4.2057e-07
-1.66871e-06
2.27499e-06
-2.98543e-07
-1.595e-06
-1.14966e-06
-5.71823e-38
8.73381e-11
1.46403e-11
-1.20347e-10
0
0
0
3.26511e-12
7.89509e-11
1.35982e-15
6.51385e-15
-1.2924e-14
3.33364e-16
6.18358e-16
-1.04547e-11
1.32296e-11
3.2372e-12
2.02372e-05
-1.02701e-07
-2.21421e-05
-1.17835e-07
-2.11069e-05
-2.72169e-05
6.79169e-05
4.85094e-08
-2.15534e-05
-2.70893e-05
2.72367e-05
-6.12266e-08
2.46815e-05
-7.27664e-05
-3.07444e-06
3.1204e-06
-5.2408e-08
-3.41782e-20
-3.87357e-39
2.40199e-20
2.65692e-20
-1.62243e-39
4.90895e-20
1.62565e-21
0
0
1.59396e-12
-4.83862e-12
2.9405e-12
-2.98963e-13
1.57846e-12
5.68833e-12
-1.18624e-11
4.94945e-12
2.88834e-22
7.77933e-22
-6.96511e-21
-1.03368e-21
7.22594e-23
-2.49367e-22
4.41474e-23
-3.1561e-21
1.59989e-21
-1.28539e-21
3.27984e-20
-1.35363e-19
1.02317e-21
-9.4635e-21
2.93987e-22
-3.10037e-22
1.30695e-20
-1.69343e-19
-8.65078e-20
-1.28048e-19
1.75659e-19
4.28183e-20
-1.10707e-19
-1.3383e-18
-3.72692e-19
2.72271e-20
-1.99465e-18
8.78387e-19
-1.21062e-18
1.08046e-18
-8.08646e-18
4.66013e-19
-3.75757e-19
6.12853e-19
-2.45956e-23
4.7445e-21
-3.25944e-21
6.13328e-22
4.67294e-22
-4.17044e-21
-1.1137e-23
-5.31472e-22
4.88026e-21
4.44211e-21
3.54353e-21
-3.77475e-20
8.10335e-22
5.42799e-23
-1.52195e-22
1.60273e-23
-1.38173e-21
2.173e-18
-6.99121e-19
-3.96638e-18
-3.06256e-22
-1.71116e-17
-1.30733e-17
2.30972e-17
3.39047e-19
-5.10554e-17
1.24752e-18
-6.19948e-18
-7.82382e-19
-4.07916e-17
2.45228e-17
-7.6863e-17
1.67052e-16
2.24393e-17
1.95282e-17
-2.35395e-16
-6.79318e-18
1.51811e-16
-7.76872e-19
8.65963e-19
8.38566e-20
-4.61535e-18
-8.53822e-20
-1.00633e-18
-6.4442e-19
1.66376e-18
-2.51112e-18
9.86592e-19
4.67899e-18
4.32857e-18
1.74164e-18
-3.85203e-21
1.22074e-19
-3.01325e-21
6.30877e-19
1.02644e-15
-5.48064e-18
-1.24693e-15
-9.94047e-18
-1.60043e-15
-1.43297e-15
3.08021e-15
-3.89646e-15
2.32294e-16
8.41275e-16
-2.39821e-15
-1.79853e-17
-2.47598e-15
1.36389e-15
1.43433e-14
4.14109e-15
-2.35644e-14
7.5532e-15
6.27489e-15
-4.10302e-15
8.79387e-15
-2.48841e-15
2.77973e-13
1.30475e-13
-2.27812e-13
-1.01996e-13
-8.40927e-13
8.2192e-13
1.14971e-12
2.7636e-12
-2.45973e-12
1.81575e-13
-6.8364e-14
-3.23521e-13
-1.45336e-13
1.22903e-12
-1.08904e-11
2.49221e-12
1.27636e-11
-7.72422e-13
-1.03783e-11
6.72694e-13
-1.46316e-12
2.80114e-12
-3.37031e-13
-3.8943e-13
-4.96542e-13
1.77422e-12
5.8724e-13
-1.43799e-13
-3.37215e-13
-2.61937e-13
1.24435e-12
-2.95222e-14
2.75224e-13
-9.29661e-14
1.70782e-12
2.36782e-13
-8.92531e-14
2.16081e-12
-5.16712e-12
1.20964e-11
3.83749e-11
-7.99918e-12
1.05159e-11
-9.32014e-13
-1.11376e-11
3.32583e-11
4.64138e-11
-9.21913e-11
3.28173e-12
1.76093e-10
-6.25059e-12
-3.74135e-11
1.61511e-11
-1.73002e-11
7.79619e-11
1.88048e-11
1.52551e-11
-2.19694e-11
-5.45597e-12
7.19766e-12
-3.15625e-11
4.93787e-11
-1.2332e-10
1.81816e-10
2.40276e-13
5.93823e-11
2.14573e-11
-6.49633e-12
-5.6196e-11
6.34553e-11
-8.11849e-11
1.73975e-11
6.94439e-12
1.35952e-11
-4.06167e-11
-5.20128e-12
6.19842e-12
1.49667e-11
1.13442e-11
-1.22322e-11
-5.85598e-11
-1.29376e-12
6.48859e-11
-2.00665e-11
-6.95776e-11
1.36295e-11
-2.03268e-11
1.72035e-11
2.40565e-14
1.01567e-15
-3.16916e-15
-1.24659e-17
-1.02198e-13
-1.69024e-14
2.21288e-13
-6.32052e-14
2.52899e-13
9.2443e-15
6.30533e-15
-1.43235e-14
1.65119e-14
-3.79973e-16
-6.50544e-14
7.87809e-14
-1.07765e-13
3.29825e-15
8.96248e-16
-1.80876e-15
-5.04578e-16
-4.78246e-15
-3.16564e-15
-8.44728e-15
3.6414e-15
-3.1948e-15
-6.71334e-15
1.49104e-14
-9.0009e-16
-7.5851e-16
2.2857e-14
-3.75198e-14
2.39565e-14
-5.70901e-15
-6.7016e-16
8.73247e-15
3.00344e-15
6.91659e-15
8.00623e-15
-1.99223e-14
1.04961e-14
-8.14156e-16
-2.0079e-14
-1.72604e-14
8.28488e-14
-4.98831e-14
4.27293e-14
-7.4016e-14
5.77882e-14
3.89295e-18
-7.83745e-17
6.55279e-17
-1.79979e-18
-9.08061e-17
3.67801e-18
5.37267e-17
1.17556e-16
-3.95917e-16
7.68391e-17
-1.09511e-16
1.50628e-16
-4.74976e-17
2.24757e-16
-1.84538e-17
8.29477e-17
-1.98649e-18
-4.02509e-19
-3.06351e-20
4.985e-19
1.21268e-19
4.2163e-19
2.5935e-19
1.92927e-19
-2.66909e-21
-8.60266e-18
-9.42591e-19
1.44376e-17
-6.72529e-18
5.03942e-18
-1.47582e-18
-2.71003e-19
3.90077e-19
-1.2962e-18
-8.11877e-18
8.35639e-19
-1.38884e-18
7.4531e-19
-1.22246e-21
-4.76624e-23
2.79766e-23
3.32763e-22
1.76838e-21
6.95447e-22
6.28436e-22
-1.72813e-24
4.24575e-20
-6.0736e-20
-9.64268e-21
4.09919e-20
7.65093e-20
-1.49691e-19
4.95105e-20
3.99812e-36
1.30917e-37
-7.55687e-35
-6.47045e-37
-3.65119e-32
-5.40168e-34
1.23967e-32
-1.06253e-32
-2.09752e-31
1.22002e-34
3.7093e-35
-9.15663e-34
1.1421e-35
2.82419e-37
-1.59332e-32
3.98907e-33
-9.13403e-32
1.28601e-07
-3.53932e-07
6.20382e-08
1.63385e-07
7.5442e-08
-5.95652e-08
1.12978e-07
1.74385e-07
-4.51718e-07
4.83068e-08
2.75371e-08
-1.3793e-08
-6.16855e-08
5.17801e-08
-7.40768e-09
3.69989e-08
1.22814e-07
-3.29508e-07
-1.28541e-07
9.56327e-08
-1.07067e-07
-2.04345e-07
-3.61256e-09
-1.62706e-08
-1.02132e-08
2.81695e-08
-5.36021e-08
-3.83769e-10
4.8137e-08
-1.60391e-09
-7.21957e-08
-2.66865e-09
3.47124e-08
-3.356e-08
-4.71622e-08
2.87751e-08
2.30788e-08
6.97676e-09
-1.28766e-07
-7.48498e-11
-3.59557e-09
-2.14693e-09
3.02864e-09
-4.04447e-11
-4.09247e-09
2.18206e-09
-7.63204e-09
8.58477e-10
7.95608e-09
-1.25921e-09
-1.90716e-08
2.40051e-09
4.15074e-09
2.33823e-09
-2.31628e-09
-7.49909e-09
-6.84835e-09
3.74679e-09
1.91447e-09
-7.30993e-09
-5.17888e-09
-3.24658e-08
6.79984e-08
-9.00433e-09
1.44203e-08
3.8184e-08
4.16406e-08
3.35442e-08
-1.76138e-08
-1.09197e-07
1.07433e-08
-5.88876e-10
1.98512e-08
-1.24437e-08
4.0591e-08
-4.404e-09
-3.70008e-08
3.37876e-08
2.2812e-09
9.54981e-09
-8.46054e-09
-6.39911e-09
-7.50741e-08
-3.47622e-33
-1.03276e-35
8.11149e-35
1.66194e-34
1.7349e-33
1.21559e-33
-8.45301e-32
2.80227e-35
-4.00486e-37
6.75995e-35
3.07344e-35
-9.25489e-35
1.17027e-37
1.06459e-35
-2.23e-36
1.94239e-36
-3.46789e-36
7.75686e-07
4.89554e-08
-1.60452e-06
-8.83907e-08
-6.09477e-07
-2.14063e-07
1.27739e-06
-2.63854e-07
4.92336e-08
3.60259e-07
-3.9944e-07
-1.81167e-06
-2.79062e-07
2.6938e-07
7.53104e-07
1.64707e-07
-8.96802e-07
7.35546e-07
2.31229e-07
-2.69009e-07
7.42605e-07
-1.9888e-07
-4.65065e-22
-4.98899e-24
4.9967e-24
1.74352e-23
7.28733e-22
2.57571e-22
-6.44488e-21
6.01389e-23
-1.47716e-27
8.03449e-24
-1.23127e-22
4.66532e-24
-9.53301e-24
6.51944e-24
1.60975e-22
-8.66593e-22
4.49862e-23
1.17381e-11
-1.83662e-09
7.151e-10
-2.73427e-12
-3.83488e-09
-1.93702e-10
1.3465e-09
-2.04224e-10
-6.21545e-09
-4.30719e-11
-1.74887e-09
1.15295e-09
-1.13637e-09
1.84177e-09
3.01993e-09
-6.25192e-10
2.5537e-10
-1.14574e-12
-6.33256e-12
-1.0433e-11
9.17541e-12
1.77402e-14
-2.78347e-12
-2.75219e-12
-2.18944e-11
8.14928e-13
3.89819e-12
-5.92114e-11
-1.70968e-11
-1.17847e-13
1.67831e-10
5.24426e-10
-9.8123e-10
4.48682e-11
2.31356e-11
5.36288e-11
-5.90779e-11
4.10328e-10
1.40628e-08
6.14959e-09
-3.17859e-09
-1.63534e-08
2.04904e-08
3.44255e-07
-3.32051e-07
-7.41313e-11
4.65582e-08
1.84358e-09
9.13429e-10
-6.07393e-09
7.94956e-08
3.23735e-07
2.03613e-08
-3.00769e-08
4.91845e-09
-1.11308e-07
1.84573e-07
-3.99355e-09
-2.69572e-08
-3.52854e-08
-2.91726e-10
-1.53693e-07
-1.2693e-07
2.81018e-07
-5.46152e-07
2.08499e-07
3.3772e-07
-4.88289e-07
-2.09081e-07
-5.5646e-08
-1.41789e-07
4.06342e-07
-4.14684e-07
2.32501e-07
1.43568e-06
-2.04922e-06
8.16753e-07
-7.27911e-08
-3.86491e-08
9.77153e-08
6.7542e-08
1.61823e-07
-2.99632e-07
1.92347e-07
-1.33156e-07
4.38574e-07
8.07903e-08
-4.39674e-07
2.51939e-07
1.8831e-08
4.895e-08
-3.82852e-07
4.74881e-08
-5.84668e-08
-1.75957e-08
3.46844e-09
2.73406e-08
-2.24865e-08
4.27468e-08
-9.44557e-08
2.96949e-08
-9.21146e-08
1.19748e-07
-5.49986e-08
4.74327e-08
-1.06871e-07
3.26054e-08
1.15137e-08
2.10256e-07
-2.70147e-07
2.59616e-07
9.46333e-09
-2.28396e-08
-1.47e-10
3.16582e-09
-8.18137e-09
7.29845e-09
2.52996e-09
-4.40547e-08
-3.33221e-09
2.19723e-08
2.13649e-09
-6.81937e-08
3.83871e-08
-1.41747e-08
7.06509e-09
2.75835e-09
4.39064e-08
7.85089e-31
9.62871e-30
-8.23315e-29
-4.94681e-30
3.18169e-28
-4.72412e-27
4.52277e-29
-4.43481e-30
7.12133e-29
8.11559e-27
1.16345e-28
-4.97435e-26
9.39796e-28
5.14843e-28
1.35872e-28
9.71314e-29
-9.84001e-28
7.88707e-29
3.30814e-28
-2.74514e-29
1.68931e-29
-2.06888e-28
-5.97822e-20
-5.49642e-22
-7.26392e-23
1.39342e-20
3.54224e-21
-3.5509e-21
-5.11143e-19
-1.14278e-20
9.00566e-23
2.28596e-20
2.47479e-21
-1.94561e-19
1.23549e-21
8.70506e-22
7.83212e-21
-5.93505e-20
1.69669e-21
1.19223e-15
6.74273e-15
-1.46113e-15
-3.51938e-14
3.10924e-16
-4.58584e-15
1.19312e-16
1.36173e-16
1.65925e-15
9.6373e-15
-4.43525e-16
-6.11664e-14
7.61839e-16
1.04233e-15
6.88975e-16
2.6283e-16
-5.50088e-15
5.86151e-17
4.14371e-16
-6.40619e-16
1.9735e-16
-5.63911e-15
6.67568e-07
-3.84679e-08
-1.13487e-06
3.98155e-08
-6.74014e-07
-6.59879e-07
1.25019e-06
-8.89971e-07
-2.62855e-07
1.03833e-06
1.19655e-06
-4.39259e-06
7.33683e-07
1.1143e-07
-1.52466e-07
1.88673e-07
-3.99803e-07
8.74759e-09
-8.9681e-07
5.36173e-08
4.16958e-07
-1.06329e-06
5.23349e-07
8.05726e-08
1.0281e-06
-4.06422e-06
1.11487e-07
-4.22369e-07
7.50597e-08
-3.70809e-07
5.39797e-07
-5.39117e-08
1.60889e-08
1.07137e-07
1.51114e-25
2.29018e-24
-5.76536e-25
-1.88929e-26
9.90341e-23
-1.34434e-23
1.50086e-23
-2.42675e-24
1.3918e-22
8.47501e-25
3.00272e-25
-1.90127e-24
5.07707e-25
-1.08265e-27
1.71643e-23
-3.3344e-23
1.29507e-23
1.0152e-26
6.14394e-27
2.95413e-27
-2.39666e-26
-1.13419e-29
1.39665e-26
2.05427e-27
3.03274e-29
2.13259e-27
-3.64767e-27
2.34383e-27
1.59129e-26
2.58258e-27
-5.57102e-27
1.08303e-27
-4.48112e-31
4.64977e-27
3.74523e-32
4.51576e-31
-5.25822e-32
-2.39047e-30
1.44007e-29
-1.18061e-29
1.69162e-30
-1.74342e-30
1.7166e-29
-3.51926e-30
1.14148e-30
-3.84385e-34
1.25226e-30
-1.09753e-29
1.56552e-29
-3.64232e-29
9.61675e-30
1.87987e-36
-6.41148e-41
-1.35574e-37
9.5731e-38
-9.53923e-40
-7.95537e-39
1.77188e-36
-4.96601e-41
-7.8642e-39
4.02995e-38
-6.95311e-38
-2.24828e-37
-9.38198e-39
1.11913e-38
-1.10363e-38
2.28673e-39
3.17417e-40
1.82893e-39
-4.87432e-38
-7.31179e-38
3.25454e-38
-3.54264e-37
1.50376e-40
-5.40158e-47
-7.60214e-43
-2.50365e-40
-1.18725e-45
-5.67232e-44
1.03948e-40
-7.94781e-47
-1.50415e-44
-2.38583e-44
3.54263e-45
9.16473e-47
6.96143e-45
-1.24953e-43
-1.08406e-42
3.54198e-43
-4.77443e-42
-1.09687e-48
-4.14818e-51
6.81626e-51
5.57399e-50
2.6038e-48
2.41177e-48
-2.23558e-47
3.25933e-49
3.52995e-50
2.16911e-50
-1.8569e-49
6.31046e-51
-2.25872e-50
2.54943e-50
1.57115e-49
4.14276e-49
1.4008e-49
4.5641e-50
2.63738e-49
-6.3429e-50
-3.93877e-48
3.44174e-49
-8.40528e-49
8.78938e-50
-9.96696e-50
3.68517e-49
-3.88075e-48
4.93589e-49
4.48851e-48
-4.93456e-47
2.73199e-50
5.37661e-50
-1.81699e-51
-1.53382e-44
-2.11732e-44
4.55126e-46
7.04323e-45
-3.26439e-44
2.66302e-43
-7.25798e-43
2.6983e-44
-1.43294e-43
1.14741e-45
-4.20805e-45
2.23211e-46
-2.7945e-44
2.01385e-44
-3.08548e-45
1.38211e-43
6.89072e-45
1.13626e-52
2.77653e-52
8.57772e-53
-1.73228e-51
6.83902e-50
3.14891e-49
-4.81181e-49
2.75591e-50
1.64174e-51
3.07266e-47
1.83035e-46
-1.9362e-46
3.48624e-47
-4.57511e-48
-2.1909e-43
-3.32433e-43
-8.0199e-46
-3.57932e-44
2.49633e-44
1.57654e-46
2.17848e-45
6.38803e-48
-1.63017e-51
-9.4055e-47
-6.17808e-52
-1.71694e-50
-1.2141e-40
-4.29089e-40
-6.75288e-40
7.39193e-40
-5.4187e-41
-4.25348e-40
-2.09795e-43
-1.21692e-39
-1.63024e-39
6.90268e-40
-1.87821e-39
-1.35504e-41
-1.31472e-38
8.92952e-39
-2.85828e-39
-4.74973e-38
-1.23329e-38
6.38322e-43
9.74659e-42
-6.12694e-41
-2.85041e-42
3.59056e-42
-1.44452e-41
5.12201e-43
-1.27234e-41
1.23377e-41
8.75283e-41
8.87419e-41
-4.83847e-40
5.37212e-41
-9.66378e-41
-3.82053e-42
3.98636e-41
2.45784e-42
-9.87957e-42
1.18965e-44
-4.0388e-44
-3.66912e-37
-3.49484e-39
5.4388e-38
1.95124e-39
5.31123e-37
2.93872e-37
-2.57395e-36
1.33607e-37
1.95328e-40
-2.18868e-37
-4.15284e-38
1.41805e-37
-9.53245e-37
2.08712e-38
-3.61824e-37
-4.21755e-37
3.44239e-37
-3.4823e-36
4.08572e-37
3.3678e-36
-1.48339e-35
1.51611e-36
-4.5932e-37
-1.19143e-34
-1.70162e-34
5.64161e-38
-5.71905e-37
-1.85611e-34
-1.35912e-35
-5.22215e-34
7.11128e-37
-1.19267e-33
-2.97148e-35
-3.84983e-35
7.25381e-37
4.23216e-35
-1.78509e-34
-2.94967e-33
-8.66434e-34
4.57936e-33
-2.15839e-33
-4.02008e-33
1.43593e-32
-1.0207e-32
-1.14156e-32
-4.41388e-30
-2.22731e-29
-6.12919e-33
5.03709e-35
-3.543e-34
2.63063e-33
-2.97042e-32
2.82919e-30
-9.62384e-30
-5.29487e-29
-8.6063e-29
-1.67834e-28
1.94192e-26
2.91958e-25
-2.20119e-28
2.70759e-27
-9.00911e-30
7.18236e-29
-4.4095e-28
1.61205e-23
-1.32903e-26
2.53249e-24
-2.28636e-27
2.75302e-23
3.49943e-27
-1.99744e-27
-1.43522e-26
-1.21483e-27
2.3965e-27
-1.74526e-27
3.97547e-27
-3.29535e-27
-1.94915e-23
1.7363e-24
9.58252e-24
-6.08789e-25
2.55837e-23
3.09062e-23
-1.0006e-22
1.11621e-24
7.89326e-24
8.86048e-23
-7.19802e-23
3.1881e-23
-1.10287e-23
1.20601e-22
-2.65417e-24
2.66293e-23
-2.83922e-25
6.9929e-21
-4.48562e-22
-1.72986e-20
1.3079e-21
-4.71559e-21
-2.98757e-21
1.19924e-20
-7.91254e-21
2.81012e-20
8.74547e-21
-5.67756e-20
1.79999e-20
5.29964e-21
-1.04076e-20
2.23781e-20
-1.20052e-20
1.08906e-21
1.46902e-21
6.41778e-22
-2.8448e-21
-9.44591e-23
1.55915e-22
1.38444e-21
1.24893e-21
-1.19456e-23
4.18205e-20
-2.38659e-20
1.14676e-20
-5.44992e-21
5.96409e-20
-2.82625e-20
2.48859e-20
-4.75632e-20
-9.9915e-18
5.57549e-19
2.59486e-18
-3.01005e-20
2.02646e-17
-4.26584e-17
5.31781e-18
-3.99713e-19
1.98381e-18
-1.33395e-21
-5.33837e-16
1.40206e-16
4.90394e-16
-4.23721e-16
1.02945e-15
1.99972e-15
-4.50385e-15
1.85965e-16
4.51428e-16
6.31194e-16
-1.11942e-15
3.15994e-15
-4.06428e-16
2.84374e-15
-3.1845e-16
1.69904e-15
-1.57234e-16
-3.62362e-14
3.10361e-15
2.72431e-14
-1.36495e-15
3.24401e-14
4.05959e-14
-1.11541e-13
1.93072e-14
6.76107e-15
-1.01073e-13
-6.99874e-14
2.70863e-13
-3.99035e-13
4.99993e-13
1.93651e-13
-5.68465e-13
1.56598e-13
-5.20388e-11
1.69153e-11
1.0215e-10
-3.05652e-11
5.47593e-11
1.37755e-10
-1.98324e-10
5.79032e-11
4.36856e-11
-6.18022e-11
-1.3135e-10
2.29966e-10
-7.47266e-10
7.84251e-10
4.79239e-10
-1.00335e-09
4.63724e-10
2.68284e-11
8.78003e-11
-4.85046e-11
-1.19006e-10
1.2068e-11
-6.21671e-12
2.92434e-12
-8.41896e-12
7.1335e-11
9.86085e-12
5.4879e-12
-4.87458e-11
3.34953e-12
3.16708e-12
-1.88176e-11
6.8226e-12
-9.21005e-11
3.28483e-14
-2.93668e-13
7.76938e-15
1.9469e-14
-8.64752e-13
5.0671e-14
2.75291e-13
-9.61022e-14
-3.06012e-12
1.64595e-15
-2.1773e-16
-3.96439e-16
2.45581e-15
4.24163e-15
2.70031e-16
2.47666e-17
-7.92232e-16
9.80745e-17
1.23534e-15
-3.71703e-14
3.7635e-14
-2.22424e-13
1.73689e-15
1.16726e-14
2.00103e-14
-1.08448e-13
2.64891e-16
5.7782e-16
-3.62014e-16
1.03376e-15
7.10967e-16
1.88986e-17
1.79204e-16
-3.53382e-17
3.0575e-15
4.59817e-15
2.83264e-17
2.89326e-16
1.08597e-15
4.76428e-41
1.35589e-41
-1.16068e-39
-2.77867e-40
-1.37923e-41
3.83883e-43
3.66568e-42
-1.37538e-39
1.26945e-41
3.81384e-39
-2.67478e-40
-5.94323e-38
5.22344e-41
1.57241e-40
-4.99153e-39
4.28049e-40
-8.31119e-38
-7.78935e-35
-7.93036e-33
-5.66349e-32
7.07625e-33
-7.44193e-33
-7.09135e-39
5.52745e-34
-3.70656e-31
-7.71592e-38
-6.08803e-39
-1.04255e-30
1.14003e-31
-7.80574e-38
-2.56139e-38
-5.80475e-38
-1.57849e-29
-2.13598e-36
5.81763e-26
2.9202e-26
2.21975e-27
-9.61387e-25
-3.32032e-28
1.88206e-27
4.33366e-27
7.96689e-28
-8.42913e-29
-3.50344e-28
3.53017e-30
1.20709e-28
-9.93408e-28
-2.09184e-27
3.49466e-27
-3.6403e-26
6.46442e-28
8.9888e-23
-5.85605e-22
-1.91437e-21
1.17926e-22
-1.38519e-21
-6.4561e-21
8.86643e-22
-1.89205e-20
-2.55745e-20
-1.25534e-21
-2.71585e-20
7.09544e-22
-5.22643e-20
-2.02016e-20
7.38834e-21
-4.81442e-19
-7.48687e-19
-1.31298e-17
1.40017e-19
1.63475e-19
-5.16852e-19
7.58743e-18
6.19069e-18
-2.75571e-16
8.95878e-20
2.42251e-19
8.55871e-19
-1.74674e-17
1.52749e-20
-1.74854e-18
2.56563e-19
5.21139e-16
2.30058e-16
-5.10286e-15
2.09514e-17
7.6508e-17
9.74372e-18
-1.68929e-16
5.36369e-19
-3.45641e-18
-6.44853e-18
-1.43295e-18
1.39626e-18
-1.97611e-18
-6.33765e-17
-2.14333e-16
-1.8595e-18
6.10525e-17
-3.47493e-19
-1.18776e-15
2.93314e-18
-2.4865e-18
3.1849e-18
3.83069e-18
-4.9964e-17
1.50657e-18
-9.10393e-18
1.16151e-16
-8.57513e-16
1.68484e-17
-5.14093e-12
3.54679e-14
3.21621e-13
3.18177e-13
2.0852e-12
2.84797e-12
-4.25731e-11
4.68382e-14
2.22963e-13
-3.19813e-15
-3.76697e-14
-5.13755e-14
1.18485e-16
4.18868e-14
-3.61181e-13
2.67114e-14
4.31248e-14
1.7238e-13
-5.0183e-13
-1.07758e-13
2.1355e-14
-2.93407e-13
-7.29548e-14
-3.61519e-15
1.63994e-14
-1.02338e-12
-1.08177e-14
8.51783e-13
9.09709e-13
-8.37709e-12
8.436e-14
-7.55775e-18
1.41831e-13
-9.35499e-13
1.21995e-13
-3.98984e-13
2.59042e-14
-9.92093e-10
-4.80879e-13
2.76456e-10
1.49516e-10
2.99647e-10
8.19121e-10
1.2647e-11
2.52507e-11
1.54389e-10
8.30663e-11
-6.76381e-11
6.88777e-11
8.1771e-11
4.07298e-09
1.13281e-08
-2.56586e-10
-1.58638e-08
-3.83106e-09
3.06525e-10
5.36728e-09
-9.6049e-09
3.15887e-10
-3.51167e-08
5.26183e-10
-6.0191e-11
-5.4102e-10
-3.83782e-11
-5.19429e-12
-1.10721e-09
-2.06891e-10
5.28908e-11
7.45037e-10
2.49084e-09
-3.10482e-11
-1.41738e-10
-2.27878e-10
2.20322e-09
-5.15139e-10
1.76539e-08
2.27501e-09
7.41748e-09
1.02478e-09
-4.6672e-09
-1.55288e-08
-9.35329e-08
7.70711e-09
-1.8648e-08
-1.38444e-07
-2.297e-07
5.92026e-09
3.01908e-09
-1.19859e-08
4.28246e-10
-2.70347e-09
6.01555e-09
1.31148e-09
3.82297e-10
2.51598e-08
-1.30982e-08
-3.07277e-08
8.10013e-10
-1.85164e-08
1.65421e-08
-4.0079e-08
-2.17963e-07
-1.99918e-08
2.14164e-07
1.72339e-07
-5.62669e-08
3.4865e-09
4.22421e-08
2.69845e-09
8.1197e-08
-8.49183e-08
5.55058e-08
-1.73824e-07
1.10908e-07
1.60794e-07
-1.7365e-07
-4.83715e-08
2.24304e-07
5.94374e-09
-3.85217e-07
1.29156e-07
1.70923e-07
-6.29698e-09
1.93577e-07
4.06215e-07
1.07375e-07
-8.83752e-07
1.69648e-06
3.35128e-07
-4.60151e-07
-2.31205e-07
2.94046e-07
9.37696e-07
6.37225e-07
-1.18149e-06
6.8346e-08
4.29123e-07
3.07302e-07
-4.2386e-07
1.89096e-07
8.38195e-08
6.5454e-07
3.50819e-07
-1.30415e-07
2.04206e-07
7.24842e-09
-4.98758e-07
4.15622e-07
8.17014e-08
-3.16988e-07
9.81659e-08
2.31216e-07
-3.41525e-08
-7.06469e-07
-1.19492e-07
1.52739e-07
3.80743e-07
4.95083e-08
-7.05068e-08
-4.71036e-08
4.07173e-08
-1.94997e-08
-8.70126e-07
7.75796e-08
-6.88062e-07
8.02899e-07
-1.3989e-06
1.7973e-08
8.82203e-07
1.80178e-07
1.44271e-06
-8.62129e-08
-3.03287e-08
7.61888e-09
1.08925e-07
3.60899e-08
1.38586e-07
-2.60883e-07
-1.36018e-07
1.42059e-07
4.87921e-08
-4.52523e-08
4.15192e-09
-1.26038e-07
3.1345e-07
1.18521e-07
1.73707e-07
-4.25704e-07
-1.83029e-08
2.79127e-07
1.79267e-07
-2.41398e-07
2.27098e-07
1.16977e-07
4.06958e-08
1.76096e-07
-3.32669e-07
-5.6959e-08
7.27921e-08
1.01242e-07
1.73198e-07
-4.69138e-08
8.67831e-08
3.29353e-08
-9.68072e-10
-1.71225e-07
1.00005e-06
1.20064e-07
-1.00828e-08
4.90801e-07
1.24097e-07
6.16698e-07
-2.89865e-08
5.94226e-08
-2.76499e-08
-2.78617e-09
7.44265e-08
1.29188e-08
-1.16331e-07
1.24667e-07
9.18224e-09
5.05498e-08
-3.89911e-08
-3.92082e-08
2.01107e-07
-1.37615e-07
-6.87797e-07
1.01358e-06
-7.17556e-07
5.07075e-07
5.87391e-07
-9.92146e-07
-3.16117e-08
-1.0027e-07
5.33276e-07
1.32621e-07
3.7885e-07
3.40277e-08
2.72928e-07
-1.41029e-07
-3.93175e-07
4.71232e-07
-1.16529e-06
1.93135e-08
4.84904e-08
1.79215e-08
-1.04666e-07
2.92818e-08
-1.29089e-07
3.27487e-08
5.83029e-08
8.35642e-09
-1.71928e-08
9.79011e-08
-8.09484e-09
2.92661e-08
-3.29823e-07
4.1558e-07
-1.87346e-07
-6.25116e-08
-5.75861e-09
9.17601e-09
6.32673e-08
5.77513e-08
-1.11018e-07
-3.18922e-09
-1.84797e-08
7.87752e-08
-1.16103e-07
5.21505e-08
6.03378e-08
1.66947e-08
1.42209e-09
8.5921e-08
-1.33193e-07
1.2098e-07
-3.54483e-10
-4.62635e-10
-1.70931e-11
1.63082e-09
-1.77496e-11
-1.94814e-10
2.0956e-10
-1.20305e-12
-1.76597e-11
1.53125e-10
-8.83918e-11
3.89044e-11
-2.73377e-11
1.21226e-10
6.34098e-12
-7.88e-12
-2.23775e-15
5.72612e-20
5.83005e-20
6.83606e-20
-1.37494e-18
-1.10168e-21
1.50714e-21
1.11534e-21
3.59058e-21
-6.97918e-22
2.77806e-21
-1.60572e-19
1.39432e-20
-7.78678e-21
1.24555e-21
-1.56386e-19
2.06456e-20
-1.59936e-18
-3.38109e-18
-2.52246e-16
7.64154e-18
2.69756e-17
-2.53644e-17
-4.60776e-20
-5.12612e-19
-3.89019e-17
-7.62766e-15
6.76631e-19
7.28194e-20
-4.70394e-18
-9.88862e-16
2.25954e-16
-2.60703e-14
9.01692e-15
-1.42092e-13
-2.20594e-17
5.42152e-17
-2.97382e-16
-8.7335e-20
1.06089e-15
-1.38554e-14
1.25748e-15
4.58218e-17
2.50982e-16
5.1993e-14
-1.88602e-15
-1.38501e-13
5.12757e-15
1.77795e-14
1.69718e-15
5.01783e-16
-9.15695e-15
2.79997e-16
2.96935e-15
-1.49639e-16
1.5051e-16
-5.39624e-16
-3.75671e-18
1.64069e-19
5.18764e-19
-1.01767e-22
4.54511e-18
4.54312e-18
-4.52312e-17
1.71191e-19
3.18977e-19
4.59525e-20
-6.13052e-19
-4.20504e-20
8.17093e-20
9.37135e-20
-7.86062e-19
-1.02589e-18
-1.03439e-19
-1.11073e-21
3.36742e-19
2.99001e-19
2.33421e-19
1.43575e-21
6.30546e-22
-7.82832e-24
-1.36323e-21
-1.12648e-22
4.13141e-22
9.25646e-22
-1.43708e-22
2.80523e-22
2.16612e-22
6.376e-23
-2.27463e-21
-2.57216e-23
4.452e-22
6.73033e-22
-9.4037e-21
3.01866e-22
2.8166e-18
-1.32494e-17
1.93788e-17
-3.65101e-17
-1.34541e-17
2.21919e-18
5.60905e-19
1.73212e-17
-9.22579e-17
-1.06012e-18
-1.25675e-17
9.5418e-18
-3.94707e-18
2.12334e-19
5.2449e-19
4.11579e-19
-2.69588e-15
-3.1893e-17
9.74047e-16
2.04784e-16
2.3863e-15
2.18465e-15
-1.18614e-14
-4.95508e-18
6.84828e-16
-6.33022e-16
1.37969e-15
5.96971e-17
7.43205e-15
-7.91402e-15
4.49145e-15
1.3056e-15
5.45296e-15
1.63147e-16
-5.85516e-19
3.88864e-17
-4.42842e-18
1.94637e-16
-1.786e-18
-7.38112e-20
2.31404e-18
-2.1423e-21
-3.66077e-30
2.2123e-30
9.23126e-32
-1.06136e-30
1.70204e-28
-5.81677e-29
-1.38029e-28
-7.38194e-30
1.16528e-28
-9.50471e-31
3.06982e-31
5.69422e-32
3.5441e-31
-5.5352e-30
2.9864e-29
-1.84152e-28
1.65609e-30
-3.6178e-36
-1.88499e-33
-4.99152e-35
1.11959e-33
1.19415e-37
-3.96473e-38
-3.12118e-35
-5.10977e-34
-4.22476e-33
-5.05108e-35
9.59746e-36
1.16054e-36
1.33428e-35
-2.02423e-34
7.48521e-34
-2.25195e-33
3.43864e-34
-3.26103e-43
4.8579e-45
4.27642e-44
-4.31306e-49
3.37689e-43
3.32767e-43
-3.78194e-42
2.46665e-44
3.15313e-45
6.99663e-45
5.54987e-44
-8.47457e-44
6.61648e-45
2.13214e-46
-1.25735e-44
1.28869e-44
7.05705e-46
-2.76267e-53
-7.48685e-53
8.72513e-55
4.96244e-54
6.0902e-53
5.87005e-53
-6.68382e-52
1.03119e-51
-8.08296e-51
4.0484e-55
-3.6227e-54
1.55967e-55
-5.17718e-53
1.39527e-53
2.89268e-54
8.56191e-54
2.80115e-52
1.88351e-50
2.33362e-49
-3.36043e-48
-3.36738e-50
1.0147e-43
-1.88471e-45
-3.58927e-43
-5.25495e-47
3.80365e-44
3.30426e-48
3.15129e-48
-3.88667e-47
3.83489e-49
3.32092e-46
-1.23712e-44
1.0768e-48
-5.43051e-53
-3.03159e-46
-1.35463e-46
1.14743e-46
9.02623e-54
2.50807e-55
-1.10476e-51
-3.19474e-45
2.21776e-47
-1.47016e-51
1.61829e-52
9.99067e-54
7.70867e-52
-1.17447e-50
2.19822e-45
-1.06013e-44
7.40779e-46
3.14041e-46
-3.97922e-47
7.78133e-51
3.95574e-51
-7.10667e-50
5.29943e-52
6.02952e-54
-2.78393e-44
1.15365e-44
-7.49223e-45
-1.22104e-43
6.11256e-48
-9.10554e-48
7.45053e-49
-7.46556e-47
-5.94795e-47
-2.59231e-47
-1.20395e-46
-4.87654e-46
-1.02488e-45
1.41119e-45
-7.53764e-45
5.19069e-46
-6.51628e-45
-1.68228e-46
2.91007e-48
1.37955e-46
5.1239e-46
-4.59209e-51
1.69365e-50
2.94382e-50
4.77833e-41
-1.80979e-39
3.88701e-40
-1.27917e-42
-1.98349e-39
2.56822e-40
3.34685e-41
1.98403e-39
-1.37177e-38
-1.7902e-38
-2.89814e-40
2.60182e-38
-5.03067e-39
2.58613e-39
2.74893e-40
-4.32094e-39
-1.2866e-43
-4.03865e-36
-6.00662e-37
-7.08105e-37
-2.18534e-38
-7.7093e-36
-3.36013e-36
-2.06747e-38
-2.50936e-36
-2.63805e-36
1.0002e-36
9.28759e-38
2.35646e-36
-1.05408e-35
1.02299e-36
-1.66168e-35
6.78534e-38
2.56131e-34
2.00778e-33
-2.03538e-33
-6.13716e-33
1.03372e-33
-2.84493e-33
1.79164e-34
-1.103e-31
6.59324e-32
-5.71603e-33
1.85903e-32
-3.4095e-32
6.6729e-33
-2.60485e-32
3.04322e-35
1.02535e-34
-2.02596e-31
-5.31826e-34
-1.71559e-32
-3.22347e-32
-1.20904e-31
1.18876e-32
-3.86111e-30
1.8859e-30
1.99329e-31
-3.65677e-30
1.1784e-30
2.33508e-32
3.45844e-30
-1.26068e-29
-2.2588e-27
-1.58905e-28
1.62994e-27
-1.88581e-27
-1.63819e-27
2.14655e-28
-1.98596e-27
1.55058e-29
3.74832e-29
1.16489e-27
-1.21005e-27
-5.90338e-27
6.87826e-28
-1.88452e-27
-2.64583e-25
-1.24506e-25
5.40963e-28
-5.17198e-27
-8.85469e-26
-6.59046e-25
-2.93889e-25
1.68332e-23
1.35363e-23
-2.75199e-23
-1.47739e-23
-4.6325e-24
-4.72462e-23
-8.91811e-24
-1.86808e-25
6.74967e-25
-6.33278e-23
-6.15095e-23
-4.20226e-23
-1.95107e-22
-3.02842e-23
4.0612e-21
-5.03797e-21
-2.04956e-22
7.30942e-22
-4.94357e-22
-5.59954e-22
-4.72496e-20
-1.22835e-19
-2.81212e-22
-8.93055e-21
-4.9734e-24
1.16039e-22
-1.36876e-21
3.05666e-20
-1.07755e-19
-2.00419e-19
-2.26114e-18
-2.6971e-18
-1.97909e-18
5.42941e-18
-4.64169e-19
-5.45248e-18
1.07909e-18
-8.10009e-18
-1.32341e-18
-6.92716e-18
-1.73611e-17
1.91508e-17
-1.30372e-17
-1.19949e-18
1.31188e-17
-4.15713e-17
-2.21025e-17
-6.83796e-20
-1.44362e-20
7.46638e-20
3.04167e-21
3.05549e-20
4.41485e-20
-1.11966e-19
-4.29427e-19
2.79313e-19
1.5497e-17
-3.40201e-18
-2.93674e-18
-1.11407e-18
1.86533e-17
8.88302e-22
1.17901e-19
7.87852e-21
5.1212e-19
1.8274e-20
4.68784e-18
-6.64885e-18
4.2975e-18
-2.88304e-20
-3.34169e-19
4.75698e-19
2.9025e-19
-2.50135e-19
1.81558e-19
-8.74062e-21
1.99636e-19
-7.86597e-19
-1.18357e-19
-6.03633e-19
1.20562e-18
-1.29148e-19
7.17319e-20
-9.39532e-21
5.34408e-19
2.37642e-14
1.97503e-14
2.62926e-14
-3.83093e-15
8.39363e-15
1.49473e-14
1.54638e-14
-8.42212e-16
1.28072e-14
-7.04586e-14
-1.70615e-14
5.19255e-14
5.39531e-14
-9.91707e-14
-4.14471e-13
3.45546e-13
2.1834e-13
-1.75269e-13
-2.1407e-13
-1.88777e-12
-4.31757e-13
4.32797e-12
6.95839e-12
-2.148e-12
2.10226e-12
1.63385e-11
4.75353e-12
2.29639e-11
-2.49961e-11
1.14538e-11
1.20841e-11
-5.34504e-12
-6.28381e-11
1.86782e-10
-2.65307e-11
6.76846e-11
1.66427e-11
-4.83551e-11
-4.21863e-11
1.78397e-10
2.02317e-11
-5.52397e-11
3.17168e-10
-1.59961e-10
1.52112e-10
5.4926e-10
-1.0955e-10
1.23161e-10
9.10492e-11
-8.05837e-11
-1.9242e-11
-7.59843e-11
1.51926e-12
2.21547e-10
-1.07564e-11
-1.09963e-10
1.26512e-10
-2.51823e-10
3.39549e-10
-7.64824e-10
-1.66567e-10
1.22141e-10
1.02951e-09
2.10606e-10
-8.86158e-11
-8.4002e-10
6.7894e-11
-1.09948e-11
-8.12752e-11
2.18315e-11