/*--------------------------------*- C++ -*----------------------------------*\
| =========                 |                                                 |
| \\      /  F ield         | OpenFOAM: The Open Source CFD Toolbox           |
|  \\    /   O peration     | Version:  v2012                                 |
|   \\  /    A nd           | Website:  www.openfoam.com                      |
|    \\/     M anipulation  |                                                 |
\*---------------------------------------------------------------------------*/
FoamFile
{
    version     2.0;
    format      ascii;
    class       surfaceScalarField;
    location    "0.1";
    object      phi;
}
// * * * * * * * * * * * * * * * * * * * * * * * * * * * * * * * * * * * * * //

dimensions      [0 3 -1 0 0 0 0];
oriented        oriented;


internalField   nonuniform List<scalar> 
13152
(
9.03911e-07
2.02048e-05
-1.47379e-06
-1.96349e-05
1.86195e-05
-1.71554e-05
-5.60173e-07
-3.48925e-06
4.23135e-05
-3.46687e-05
3.53735e-05
-2.17861e-06
2.11993e-05
-7.55029e-05
2.84978e-05
-2.44539e-05
6.0382e-05
-1.61315e-05
-2.9592e-05
-2.8395e-05
7.41186e-05
3.86564e-07
-1.68348e-05
3.16683e-07
-2.9897e-05
6.9153e-07
7.86415e-06
5.169e-06
-2.98679e-05
7.84336e-06
3.37469e-07
-5.07166e-06
-1.548e-05
-2.97996e-05
-8.64047e-06
-1.46883e-05
-5.13986e-06
2.84686e-05
-5.19807e-08
-8.66506e-06
7.65699e-08
-1.42104e-05
-5.29828e-07
5.64003e-06
-3.05523e-05
1.62472e-05
-2.94368e-05
2.9937e-05
2.93559e-05
-6.10777e-07
3.16732e-08
-1.51742e-05
-2.98934e-05
1.2548e-07
-7.49356e-05
3.18727e-07
1.6005e-05
3.02001e-05
5.56102e-08
7.46737e-05
3.58471e-05
1.26843e-05
2.53449e-05
-7.38763e-05
3.05148e-07
-6.25556e-07
3.61675e-05
1.24292e-05
2.65536e-07
-1.87976e-05
7.35403e-05
7.77519e-05
2.90685e-05
-7.19139e-07
-2.93562e-05
1.00687e-06
-1.63346e-05
-2.69181e-05
7.23211e-05
2.06104e-07
-1.72598e-05
-8.05946e-06
7.97994e-06
2.85632e-07
5.27339e-06
-3.05927e-05
-4.95328e-06
-1.39848e-05
-2.90361e-05
-1.38336e-05
1.34366e-07
2.91141e-05
2.12384e-07
1.00095e-05
1.00375e-05
-7.51222e-06
-1.25348e-05
2.04883e-06
3.59992e-08
7.92468e-06
4.86296e-06
7.22334e-06
-1.23082e-05
-2.06067e-06
1.44048e-05
-9.16173e-07
-1.89042e-05
1.3647e-06
2.33065e-07
3.2652e-06
2.06909e-06
6.51894e-06
-2.03286e-06
2.04128e-06
-2.71597e-06
-4.5275e-07
5.3018e-06
-1.84474e-06
-3.00431e-06
7.8066e-06
-2.97942e-06
-5.27992e-06
-6.0376e-06
-9.05292e-06
1.77304e-06
4.90912e-07
-5.24338e-06
1.28197e-07
-1.99889e-07
-5.87822e-06
-3.11826e-08
-1.44402e-05
-1.88365e-06
-3.43561e-06
-4.18438e-07
5.7377e-06
-3.05884e-07
-1.59761e-06
1.98438e-08
-3.45209e-06
-2.89395e-07
6.19783e-06
4.16391e-06
-1.38138e-05
5.8291e-06
7.93386e-08
-2.89755e-06
8.30822e-06
-3.31253e-07
4.66823e-06
4.36982e-06
4.20722e-06
-1.32453e-05
9.04935e-08
4.21949e-06
3.58231e-07
4.37702e-06
8.32714e-08
-6.56634e-07
4.36276e-06
5.13352e-07
4.29533e-06
-7.44785e-07
-5.08025e-06
1.382e-05
-7.01658e-07
-7.58929e-07
-5.89824e-06
-8.7904e-06
1.54476e-05
-6.55497e-06
-1.48036e-05
2.05997e-05
-5.12047e-06
-7.33274e-06
1.11076e-05
-9.54237e-06
-1.63688e-05
-1.44222e-05
1.67394e-05
-6.29653e-06
-1.32461e-05
-2.31716e-05
2.62766e-06
5.52444e-06
-2.50197e-06
-5.65013e-06
3.21715e-06
-6.48351e-06
5.89403e-06
-8.93397e-06
1.76756e-05
-2.0505e-06
7.22794e-06
-7.6794e-06
9.66022e-06
-1.73608e-05
-2.56959e-06
5.7463e-06
-4.2756e-06
4.87198e-06
-4.38664e-06
3.01438e-07
-7.86776e-07
-9.15621e-06
-2.5902e-06
1.66184e-05
-8.67439e-06
-4.86847e-06
5.69707e-07
1.97621e-06
-1.12203e-05
-1.88398e-06
-2.41478e-06
-9.00626e-06
8.39227e-06
-1.05888e-05
-1.08836e-05
-3.89533e-06
-3.27813e-07
1.51068e-05
7.49658e-06
-3.44809e-06
-1.49321e-05
3.98354e-06
-3.82291e-07
-4.30253e-06
1.84485e-05
-1.75941e-05
1.48623e-07
-1.93833e-05
1.20569e-05
-7.92473e-06
3.01776e-05
-6.43239e-08
7.98956e-08
-6.25005e-09
-9.32163e-09
1.78792e-07
4.37311e-08
-2.86847e-07
1.40225e-07
1.18463e-07
-4.57237e-08
2.46312e-07
-1.56858e-07
2.07585e-08
-7.27323e-08
-3.45581e-07
7.32118e-07
-2.0636e-07
-4.82863e-07
-5.24061e-07
4.30127e-07
5.76798e-07
-1.97299e-07
1.47354e-07
-4.32918e-07
-3.00225e-07
-4.21135e-07
-1.74494e-06
2.32242e-06
-3.02591e-07
-1.74257e-06
-1.15664e-06
-3.08577e-05
3.07133e-05
5.45417e-06
-5.30969e-06
5.06944e-05
3.11173e-05
5.09412e-05
8.83832e-06
7.25694e-05
3.44765e-06
1.07855e-05
1.68842e-05
1.73982e-05
3.69906e-05
-1.08362e-05
3.70728e-05
5.4034e-06
2.73733e-05
-2.84524e-07
-2.44635e-05
-2.62528e-06
-2.50412e-05
-2.78653e-05
8.02797e-05
-5.38637e-09
-2.53203e-05
-2.76708e-05
2.78505e-05
-1.85013e-07
2.67523e-05
-7.97434e-05
-3.17466e-06
3.15984e-06
-8.85828e-07
-4.74173e-06
-1.97335e-05
1.19478e-05
1.25274e-05
-8.84689e-06
4.13794e-06
-3.27791e-08
2.23108e-05
3.28552e-05
7.20544e-06
-3.01942e-05
2.71267e-05
-1.02862e-05
2.94394e-05
2.07459e-05
-2.86293e-05
4.33149e-05
1.70437e-06
4.65642e-06
-1.86239e-06
-4.49841e-06
6.66927e-06
-8.95898e-06
3.99408e-06
-3.76814e-06
1.50938e-05
-5.6284e-06
8.88492e-06
-5.11891e-06
4.42482e-06
-1.45516e-05
1.05924e-05
-1.51266e-05
1.57092e-05
-4.84944e-06
-7.94727e-06
-3.34655e-06
1.61433e-05
1.1938e-06
-9.78449e-07
-5.06479e-06
-9.16391e-06
2.41045e-06
-7.58095e-06
8.01024e-06
-1.40774e-06
4.05555e-06
-1.67013e-05
1.14925e-05
-1.66008e-05
1.61562e-05
-3.03695e-07
4.61336e-06
-4.98493e-06
6.75259e-07
5.409e-06
-5.62103e-06
-9.16646e-08
-5.63169e-06
1.56541e-05
5.95423e-06
4.8053e-06
-1.63806e-05
5.54621e-06
3.16358e-07
-1.85425e-07
9.99375e-08
-3.65056e-07
8.05313e-06
-2.17657e-07
-7.70863e-06
-1.26843e-07
-6.35261e-06
-1.66471e-06
1.60705e-05
1.75885e-07
-6.74615e-06
2.43919e-06
-2.45395e-06
-7.69386e-06
-2.47398e-06
3.24846e-06
-1.01359e-05
9.02618e-06
1.28557e-06
2.51795e-06
-1.94e-05
-2.71822e-06
9.27042e-06
-2.65421e-06
5.2318e-06
5.20798e-07
-5.44501e-06
-3.07588e-07
-2.77299e-06
-6.35944e-06
1.43642e-05
-5.05304e-06
2.80084e-06
5.48308e-06
5.14236e-06
5.95685e-06
-7.81348e-07
1.2418e-06
-1.64439e-06
1.33112e-06
9.99781e-06
1.15702e-08
-6.61569e-06
-3.3937e-06
-3.06858e-06
-4.67981e-06
1.77462e-05
-3.48631e-06
4.29297e-07
4.30374e-06
-7.472e-06
-3.44742e-06
-4.66941e-06
4.29335e-06
1.10823e-05
3.66569e-06
-1.82343e-05
7.61794e-06
3.89363e-06
-1.3711e-05
1.66595e-05
-1.75173e-05
9.81483e-06
3.78638e-06
-5.32801e-06
-8.27321e-06
-3.43256e-06
2.69703e-06
1.05504e-05
4.56672e-06
-4.2129e-06
2.93775e-06
-5.07791e-07
-7.75797e-06
-3.79051e-07
6.01382e-06
-1.1444e-05
5.31612e-06
1.06946e-05
-2.53055e-06
-1.31264e-05
2.87029e-06
-5.90864e-06
7.80736e-06
-1.98529e-06
-1.68261e-06
-3.7067e-06
7.3746e-06
3.96482e-06
-1.94342e-06
-4.00668e-06
-6.00874e-06
8.29095e-06
-2.44287e-07
4.45589e-06
-6.15502e-06
6.2994e-06
5.28936e-06
-6.84221e-06
7.88205e-06
-4.1226e-06
1.54817e-06
4.11548e-06
-1.54105e-06
7.53592e-06
-1.01813e-06
-1.06404e-05
3.68366e-06
5.40043e-06
-7.00068e-06
3.62999e-07
1.07532e-05
-2.82423e-06
-5.7175e-06
6.8235e-06
-1.06659e-05
1.08702e-05
1.89569e-06
1.87014e-06
-1.8936e-06
-1.87224e-06
9.40128e-07
-3.60194e-06
4.5575e-06
-6.34054e-06
9.15081e-06
-1.44595e-08
3.52129e-06
4.97717e-06
-6.86387e-06
-3.8076e-06
5.18283e-06
-6.62686e-06
3.32088e-05
2.16021e-05
1.47097e-05
-6.95206e-05
-8.75812e-06
1.33521e-05
2.86148e-05
1.82622e-05
-5.41826e-06
-2.72095e-05
-2.06737e-06
4.75391e-05
-1.78494e-05
-1.47783e-05
1.52349e-05
-1.83746e-05
2.65196e-05
2.99666e-06
1.42257e-07
-3.11837e-06
-2.05487e-08
-2.34187e-06
-2.05425e-06
7.39279e-06
-4.95365e-06
2.75404e-06
3.93084e-06
1.83001e-06
-8.87923e-06
4.9962e-06
-1.08591e-06
-5.08393e-06
8.02588e-06
-8.20757e-06
4.84648e-06
1.44224e-06
-2.41695e-06
-3.87177e-06
-2.66189e-06
-1.37086e-06
-2.86536e-06
1.6457e-06
-2.60009e-06
-2.20625e-06
3.43548e-06
-2.83202e-07
-4.73384e-06
5.43515e-06
-8.58371e-06
4.8746e-06
-3.72653e-06
-1.04781e-06
3.5585e-06
1.21584e-06
3.86923e-06
3.44409e-06
-1.10398e-05
7.00821e-06
-4.18679e-06
-2.76194e-06
-3.7164e-06
1.00368e-05
-7.70113e-06
6.84079e-06
-1.10978e-05
1.01326e-05
3.55787e-07
-3.87978e-06
5.70434e-06
-2.18035e-06
-4.5432e-06
3.2152e-07
4.57747e-06
5.83818e-06
-1.42612e-05
1.7453e-06
-4.72607e-06
3.30229e-06
-6.16361e-06
1.24864e-05
-2.40114e-06
3.51325e-06
-2.8604e-06
-5.32992e-06
-1.12933e-06
5.17513e-06
1.28412e-06
5.5492e-06
3.4851e-06
6.98227e-06
-2.5624e-06
-5.24862e-06
-2.74964e-06
1.31734e-05
-7.12035e-06
3.15586e-06
-1.55057e-06
-2.29318e-06
1.0941e-06
-2.48784e-06
-6.18307e-06
1.58521e-06
-5.87947e-07
6.2743e-06
-5.18935e-06
-6.06846e-07
4.68054e-07
5.32814e-06
7.48455e-06
2.98015e-06
7.80112e-06
-9.23424e-07
7.84882e-06
-8.16211e-06
-2.96044e-06
1.61374e-05
1.02502e-05
-1.54322e-05
1.50909e-05
4.46058e-06
1.50747e-07
-4.24964e-06
-3.61691e-07
-7.37157e-06
-1.83772e-06
1.36699e-05
-5.99641e-06
-1.22442e-06
6.85428e-06
2.09045e-06
-1.31944e-05
6.35043e-06
1.42157e-07
-8.97292e-06
1.34856e-05
-1.28789e-05
1.28914e-07
-3.55268e-07
6.1862e-08
1.64492e-07
7.507e-08
-5.92995e-08
1.13143e-07
1.74446e-07
-4.54644e-07
4.86421e-08
2.75741e-08
-1.43542e-08
-6.23245e-08
5.16672e-08
-1.15691e-08
3.08704e-08
1.55145e-07
-3.31767e-07
-1.34446e-07
9.75318e-08
-1.28986e-07
-2.06661e-07
-2.98872e-06
-5.84658e-06
-6.87935e-06
1.57147e-05
-1.61511e-05
-2.31976e-07
1.33943e-05
-3.60998e-06
-1.83877e-05
-8.87816e-07
2.12488e-05
-2.0593e-05
-1.81153e-05
1.03482e-05
1.36684e-05
3.97043e-06
-2.28346e-05
-3.80361e-07
-4.13859e-06
-8.20764e-06
1.27266e-05
-6.70566e-08
-1.13358e-05
1.10225e-05
-5.11125e-06
9.05606e-07
5.92703e-06
-1.60583e-06
-9.43246e-06
2.40611e-06
4.42653e-06
1.1914e-05
-5.11419e-06
-1.81356e-05
-9.59149e-06
1.32978e-05
1.76041e-06
-8.48042e-06
-5.42497e-06
-1.80713e-05
3.1479e-05
-1.32893e-08
7.99151e-06
1.88775e-05
9.09653e-06
8.64375e-06
-1.60647e-06
-1.61338e-05
2.50449e-06
-9.68797e-07
7.56084e-06
-4.94375e-06
1.6092e-05
-1.9634e-06
-4.89922e-06
5.89381e-06
1.04317e-06
4.55428e-06
-8.72103e-07
-3.02848e-06
-7.37778e-06
-4.95166e-06
-9.40706e-07
1.91335e-06
3.97902e-06
2.45464e-06
1.70245e-06
-9.10875e-06
2.50119e-06
-9.87246e-07
4.1885e-06
1.88348e-06
-4.36953e-06
3.81748e-08
6.06369e-06
-5.41073e-06
7.95009e-06
-4.51449e-06
5.19729e-05
2.07615e-06
-5.17207e-05
-2.32836e-06
-3.78722e-05
-8.24054e-06
9.80856e-05
-4.06033e-05
4.80726e-06
1.55133e-05
-1.46208e-05
-5.26132e-05
-1.39231e-05
2.11959e-05
5.86689e-05
1.0942e-05
-0.000110214
5.35878e-05
9.88838e-06
-1.62624e-05
5.5927e-05
-1.99411e-05
-5.68272e-06
-7.34741e-07
1.44979e-06
4.96767e-06
8.86101e-06
3.18041e-06
-1.77241e-05
8.57299e-06
-4.46714e-07
6.07119e-06
-8.30006e-06
3.67866e-06
-3.41698e-06
1.44558e-05
1.07745e-05
-1.58942e-05
1.59305e-05
8.82152e-09
-7.66898e-07
1.78594e-06
-1.02786e-06
-1.51584e-06
-2.31907e-07
1.75657e-06
-2.0085e-07
-2.08188e-06
5.46513e-07
-3.38925e-06
2.61083e-06
-1.6327e-06
3.93578e-06
2.42902e-06
-4.26256e-06
8.25712e-07
-2.72429e-06
-2.9226e-06
-4.67338e-07
6.11424e-06
3.19819e-08
-4.73508e-07
-2.28277e-06
-3.91848e-06
1.20222e-07
3.8098e-06
-4.40353e-06
1.61017e-06
-3.77272e-06
4.2868e-06
7.04827e-06
-7.52527e-06
3.49909e-06
2.39789e-06
7.30161e-06
-7.72101e-06
1.38825e-05
1.00791e-05
6.66918e-06
-5.00586e-06
-1.17424e-05
4.13444e-06
3.05527e-05
-2.46081e-05
-1.80851e-07
1.09845e-05
2.13377e-06
1.49475e-06
-8.63438e-06
9.96658e-06
2.27199e-05
5.60678e-06
-1.0366e-05
4.57833e-06
-1.45175e-05
3.11087e-05
-1.15069e-06
-3.40019e-06
-1.00219e-05
1.331e-11
-1.53906e-07
-1.27808e-07
2.81701e-07
-5.48764e-07
2.09478e-07
3.393e-07
-4.92469e-07
-2.10201e-07
-5.68317e-08
-1.40547e-07
4.06857e-07
-4.17139e-07
2.32499e-07
1.44954e-06
-2.08256e-06
8.22202e-07
-7.28406e-08
-3.90011e-08
9.74876e-08
6.80916e-08
1.62902e-07
-3.03834e-07
1.93583e-07
-1.32166e-07
4.38892e-07
8.2403e-08
-4.54671e-07
3.02397e-07
2.32882e-08
4.95321e-08
-4.218e-07
4.80945e-08
-6.10791e-08
-1.0375e-06
2.55502e-07
1.96922e-06
-1.18723e-06
2.70862e-06
-6.44508e-06
2.69896e-06
-4.3663e-06
7.33042e-06
-3.78201e-06
1.71651e-06
-2.3008e-06
3.36151e-06
1.86901e-07
1.32298e-05
-1.79584e-05
1.85606e-05
2.11814e-06
-3.78096e-06
-2.92835e-08
1.6921e-06
-1.39663e-06
2.60861e-06
9.06157e-07
-4.9474e-06
-2.30189e-07
2.3502e-06
6.77548e-07
-7.97515e-06
4.26907e-06
-2.14905e-06
1.22655e-06
2.05961e-06
5.46633e-06
4.45547e-07
5.6385e-06
-5.0382e-06
-1.04584e-06
3.64853e-06
-3.70799e-06
5.05016e-07
-6.15945e-07
9.90299e-06
6.34993e-06
1.12965e-07
-1.01709e-05
4.45238e-06
2.40258e-06
1.66948e-06
1.20422e-06
-2.76072e-06
1.18451e-06
4.93738e-06
-1.67143e-06
2.24001e-06
-5.5054e-06
-9.71812e-06
-5.12316e-06
-7.66439e-07
1.56077e-05
5.46855e-07
-4.94854e-06
-5.31642e-06
-5.38865e-06
8.1235e-07
1.07383e-05
1.19376e-06
-1.73207e-05
6.82951e-06
4.72111e-06
1.07573e-05
-1.4512e-05
1.68203e-05
2.55273e-06
1.53641e-05
-8.6231e-06
-9.29374e-06
7.49459e-06
-7.77291e-06
2.83106e-06
1.63923e-06
2.12195e-05
1.7021e-05
-2.43929e-06
-2.23546e-05
8.47819e-06
1.13739e-05
3.90409e-06
1.5195e-06
-7.86286e-06
1.55798e-06
1.08243e-05
-3.79608e-06
6.99331e-06
-1.08997e-05
3.53993e-05
-3.36619e-06
-3.53339e-05
3.30077e-06
-4.55552e-05
-2.5705e-05
0.000106659
-3.54599e-05
-1.34615e-05
3.83415e-05
3.33939e-05
-0.000107069
3.22477e-05
9.39453e-06
-9.58152e-06
1.61243e-05
-1.16476e-05
4.77109e-07
-3.35513e-05
3.10931e-06
2.99649e-05
-3.80253e-05
3.46111e-05
3.89126e-06
3.7042e-05
-0.000108619
2.73224e-05
-2.98028e-05
5.58969e-06
-2.99798e-05
8.72671e-05
-3.87739e-06
8.5087e-06
3.36183e-06
3.06712e-07
4.52088e-06
-4.55858e-06
-2.69013e-07
6.27426e-06
-6.95524e-06
9.87685e-07
-2.52198e-06
1.33171e-05
6.68858e-06
2.38674e-06
-1.36339e-05
7.04688e-06
-6.27324e-07
8.86286e-06
-1.34314e-05
1.33878e-05
6.98704e-06
4.22397e-06
2.02331e-06
-1.32343e-05
-3.37075e-08
6.0964e-06
9.24344e-07
4.81765e-08
4.14208e-06
-9.08747e-06
1.94197e-06
1.32419e-05
6.42742e-06
-1.34916e-05
7.01264e-06
-5.37049e-07
1.30967e-05
3.8136e-07
4.52576e-06
-3.31068e-07
-4.57605e-06
6.35371e-06
-6.74279e-06
7.70448e-07
-2.46374e-06
1.33432e-05
-6.73127e-06
7.0762e-06
-6.75988e-07
2.4029e-06
-1.37102e-05
8.93117e-06
-1.32711e-05
1.35436e-05
6.11161e-06
-3.24189e-07
-6.11268e-06
3.2526e-07
-4.8015e-06
-1.50011e-06
1.24132e-05
-1.31782e-07
-4.99392e-06
1.81442e-06
-1.83117e-06
-6.09594e-06
-1.78313e-06
2.09742e-06
-7.00415e-06
6.04209e-06
8.30275e-07
1.16736e-06
-1.31654e-05
-1.92271e-06
6.18166e-06
-2.58652e-06
6.31144e-06
-1.86649e-07
-5.88383e-06
-2.40963e-07
-4.1304e-06
-2.03257e-06
1.24744e-05
-1.38396e-07
-4.17865e-06
-6.62661e-06
6.32237e-06
1.65848e-07
1.93649e-06
-1.27417e-05
-8.38257e-06
1.26724e-05
-1.23299e-05
-2.34587e-06
-6.20399e-08
2.6126e-07
2.14665e-06
5.56797e-06
5.16099e-06
-1.30748e-05
4.96938e-06
5.36541e-07
1.18428e-06
-1.26603e-06
3.43008e-07
-8.37178e-07
4.1681e-06
1.07157e-06
2.82338e-06
5.20376e-06
7.20238e-07
4.17157e-06
-5.47367e-07
-4.34444e-06
4.16741e-06
-4.51531e-06
1.06813e-06
-4.96306e-06
1.3302e-05
-4.28087e-06
4.27001e-06
4.94671e-06
-1.3572e-05
1.42543e-07
2.88857e-07
-5.50519e-07
-2.88204e-07
-3.22678e-06
2.11033e-07
3.30395e-06
-4.97721e-06
5.04085e-06
-3.51846e-07
4.11272e-06
-1.23167e-05
1.20008e-06
-1.2204e-06
2.31357e-07
-9.97691e-07
5.50172e-06
-8.94308e-07
4.93747e-06
1.99802e-06
1.24317e-06
3.03783e-06
9.38187e-07
-5.21919e-06
2.54682e-07
1.17949e-06
-1.90994e-07
3.10741e-06
1.85109e-07
8.37486e-07
4.99684e-06
-4.89614e-06
3.8457e-06
-1.82872e-06
-5.36358e-06
-1.81626e-07
-1.86452e-06
-4.99998e-06
1.23662e-05
3.64866e-07
3.0236e-07
1.60271e-07
-4.90908e-06
-1.4733e-07
-1.85943e-06
-1.19877e-05
-2.75688e-06
-3.42992e-06
-6.64102e-07
6.8509e-06
-4.3061e-07
-2.23407e-06
-9.22022e-08
-5.34215e-07
-3.32632e-06
3.62388e-06
-3.8324e-06
-2.02554e-06
-5.81412e-06
8.77389e-06
-5.8321e-06
-5.1624e-07
-1.29908e-05
2.12402e-07
3.26673e-06
-3.24169e-06
-2.37438e-07
1.41387e-06
-1.40021e-06
1.98738e-07
-1.89911e-06
6.57971e-06
4.6314e-06
4.69784e-06
-1.25709e-05
4.4951e-06
-1.01131e-07
-5.7045e-07
3.86809e-06
4.53833e-06
-4.35834e-06
1.87522e-08
-5.82459e-07
-4.02161e-06
-1.4739e-07
4.02566e-06
1.43341e-07
5.82174e-06
3.22179e-06
-1.30651e-05
5.66618e-06
8.16982e-09
-1.53155e-06
-2.58103e-07
5.8153e-06
-1.53313e-06
1.44914e-07
-5.81763e-07
-1.81673e-06
2.14039e-06
-2.77183e-06
6.56941e-07
2.68025e-06
-2.23029e-06
6.5297e-06
-7.47202e-06
-7.226e-06
-5.38022e-06
9.18201e-07
-6.24984e-06
-1.86794e-06
-4.43986e-06
-5.2572e-06
2.1892e-08
-6.4682e-06
-4.4677e-06
-2.08542e-07
2.36382e-07
6.36219e-06
-1.30602e-05
-3.14555e-07
-4.34114e-07
4.97677e-06
-1.76421e-06
-2.77844e-06
7.19784e-06
-2.5995e-06
-5.03245e-06
-7.93239e-06
-5.6063e-06
-1.56185e-06
4.08266e-08
-2.43182e-07
6.71906e-07
-4.83326e-06
5.08823e-06
-1.23487e-05
-4.77249e-07
-2.03564e-07
-4.66278e-06
3.07249e-07
4.5591e-06
-6.10854e-06
6.31196e-06
-4.06983e-07
2.00109e-06
-1.27724e-05
5.68429e-06
-6.28735e-06
9.10317e-07
-1.72701e-06
1.19704e-05
1.65258e-06
-1.91715e-06
-6.02278e-06
-1.87003e-06
1.7956e-06
-1.67178e-06
6.11371e-06
-1.58784e-06
-3.04779e-06
7.63096e-07
4.20072e-06
-1.91603e-06
4.00177e-06
4.84461e-06
-1.18942e-05
5.94763e-07
4.1701e-06
3.63195e-06
-4.36633e-06
1.32914e-06
-4.78939e-06
1.25914e-05
-1.16571e-06
1.64399e-06
-1.75438e-06
3.68313e-06
-6.51997e-07
-3.72224e-06
6.911e-07
-6.8241e-06
-1.56329e-06
1.20705e-05
-6.14695e-06
6.04966e-06
1.87392e-06
-1.16458e-05
5.19822e-06
1.54253e-06
-8.09444e-06
1.17294e-05
-1.23675e-05
4.21431e-06
5.67542e-06
2.49698e-06
-1.23867e-05
-5.05159e-07
4.84922e-07
4.23454e-06
6.61279e-06
-1.44254e-06
5.58197e-06
-6.66784e-06
1.57079e-06
-2.61326e-06
1.24298e-05
-7.8794e-06
1.18789e-05
-1.20503e-05
-4.60426e-06
9.38149e-07
4.23786e-06
-5.7175e-07
9.35565e-06
-1.45479e-05
4.11073e-06
-7.25817e-06
1.25901e-05
-1.55562e-06
-2.8495e-06
1.80043e-06
6.24521e-06
-5.19614e-06
5.54807e-06
8.82289e-06
-1.72205e-05
1.9093e-06
5.43919e-06
1.95966e-06
-6.05049e-06
6.00013e-06
-7.07732e-06
1.44762e-05
-4.72338e-06
7.49578e-06
-5.55549e-06
-7.51345e-06
1.28474e-06
9.96109e-06
-3.73238e-06
6.10679e-06
4.69246e-06
-1.83127e-05
5.50119e-06
1.89033e-06
-4.90751e-06
-5.40081e-06
1.58095e-05
-1.19769e-05
8.95975e-06
1.10812e-05
-1.83657e-05
1.56415e-05
-5.83337e-06
3.8725e-06
1.4307e-05
-1.23462e-05
6.57095e-06
8.04704e-06
-2.04514e-05
6.62087e-06
3.82258e-06
-4.3293e-06
-9.4869e-06
2.04371e-05
-1.93961e-05
1.88894e-05
1.38627e-05
-2.52118e-05
1.86829e-05
3.93749e-06
1.69524e-05
-9.95805e-06
-1.09319e-05
1.01526e-05
-9.50112e-06
3.28597e-06
-4.90579e-06
3.20109e-05
1.61528e-05
3.49405e-06
-2.9148e-05
7.6133e-06
1.18255e-05
-7.50094e-06
1.02085e-05
-1.39649e-05
7.87779e-06
-5.23708e-06
-6.75925e-06
4.11854e-06
-1.8158e-05
4.15224e-06
2.18836e-05
-7.93563e-06
-1.54595e-05
1.50062e-05
-5.31454e-06
-1.64509e-05
6.68749e-06
1.24372e-05
4.55455e-06
4.73071e-07
-1.03422e-05
6.7577e-07
1.05663e-05
-4.81047e-06
9.63849e-06
-1.2273e-05
9.20538e-07
7.4291e-06
1.31443e-05
-2.1494e-05
4.11893e-06
9.18352e-06
-1.23819e-05
6.84696e-06
4.70107e-06
8.57692e-06
1.26332e-05
-1.20266e-05
8.44172e-06
1.32795e-05
1.8401e-06
1.764e-05
1.49829e-05
4.15037e-06
1.19091e-06
-1.19426e-06
-4.14703e-06
-1.68028e-06
5.66212e-07
5.26444e-06
-2.0494e-06
1.56004e-06
5.69438e-06
-2.87993e-07
-7.45579e-06
1.78848e-06
5.46593e-06
-5.16857e-06
7.52326e-06
-6.65083e-06
-7.35865e-07
-1.84446e-06
-2.63014e-06
5.21046e-06
-1.73662e-06
-4.30956e-06
5.31032e-06
-1.50628e-06
-2.07479e-06
-3.68446e-06
-4.21923e-06
5.27356e-06
-2.10854e-06
-5.88547e-06
-1.54649e-06
-4.17901e-06
-5.72981e-06
3.10498e-06
1.56405e-06
1.24563e-07
-4.7936e-06
-7.88183e-07
1.18638e-06
2.70679e-06
1.90351e-06
-1.12764e-06
-4.69612e-06
1.77191e-07
6.42244e-06
-9.78937e-07
-4.84481e-06
3.41087e-06
-4.26523e-06
4.77444e-06
9.04095e-07
-5.48452e-07
-1.53885e-06
1.18321e-06
-1.29889e-06
-1.94304e-06
4.14603e-06
-1.2062e-06
-6.41137e-07
-3.78783e-07
-1.73034e-06
5.70272e-07
-1.31208e-06
-1.00974e-06
4.71376e-07
-3.40791e-06
-1.48184e-06
-1.44692e-06
3.52723e-07
1.40726e-06
-3.13065e-07
8.35651e-07
8.75691e-07
-3.15826e-06
3.20658e-07
8.67724e-07
1.76714e-06
-1.47708e-06
3.06077e-08
-1.39646e-06
4.03132e-06
3.25686e-06
1.4323e-06
-3.81347e-06
1.00234e-06
3.6618e-06
8.24366e-07
-8.69145e-07
4.30253e-07
-2.428e-06
-1.69915e-06
-4.15883e-07
4.54303e-06
-5.17005e-07
-1.88038e-06
-1.92599e-06
-2.9016e-07
5.48972e-07
-1.5093e-07
-2.32403e-06
4.57317e-07
-1.98501e-07
6.92307e-07
8.77531e-07
-1.72076e-06
1.87742e-06
-7.2779e-07
3.44162e-06
-4.44446e-06
4.90317e-06
-3.51034e-06
2.15326e-07
1.56184e-06
1.73318e-06
1.33278e-06
1.85161e-06
-6.69473e-06
2.38279e-07
1.30983e-06
1.52584e-06
-7.6377e-07
-5.23785e-07
9.67127e-09
2.826e-06
-1.57175e-06
1.34447e-06
1.78913e-06
1.42556e-06
-1.1457e-06
-2.71661e-06
4.07075e-06
-2.05481e-06
-8.03702e-07
-1.03137e-06
4.66107e-06
-1.17362e-06
-1.53862e-07
1.00241e-06
8.05226e-07
-2.98126e-06
8.47722e-07
8.30398e-10
5.72908e-07
-1.82249e-06
2.58418e-06
-1.16355e-06
5.62358e-06
-6.74088e-06
-3.45076e-08
4.15349e-06
2.6219e-06
1.65913e-06
4.89783e-06
5.66831e-07
1.05779e-06
3.64213e-06
1.82254e-06
-2.41221e-06
7.11213e-06
3.56382e-06
3.60811e-06
4.82852e-06
-1.18423e-08
-8.42479e-06
-3.83009e-06
4.8278e-06
2.6104e-06
-3.90853e-06
2.55909e-07
-1.33528e-05
8.37958e-07
-4.29067e-07
-4.87837e-07
7.89457e-08
-1.41301e-08
-6.67318e-06
-1.09547e-06
6.5228e-07
8.40643e-07
3.24986e-06
-4.86828e-07
-5.34571e-06
-3.44259e-06
5.59698e-06
-3.27713e-06
6.86653e-06
8.00682e-07
8.62111e-06
8.5582e-07
-9.25861e-06
-2.80581e-06
-1.5358e-05
3.36966e-06
-1.84386e-06
-1.35711e-05
-2.27928e-05
1.20661e-05
5.63542e-06
-3.81895e-06
1.48228e-06
-2.09905e-06
1.26828e-05
5.52559e-06
1.59211e-06
1.20306e-05
-2.99591e-06
-1.28536e-05
-1.81086e-06
-5.08185e-06
8.79658e-06
-6.48565e-06
-1.93042e-05
-4.63096e-06
2.0535e-05
1.05254e-05
-7.10975e-06
2.73428e-07
5.62106e-06
4.3219e-06
5.89363e-06
-1.07308e-05
4.99231e-06
-2.05053e-05
1.01914e-05
1.62075e-05
-2.59837e-05
-5.25233e-06
1.89282e-05
6.10623e-07
-4.55225e-05
6.56609e-06
1.99214e-05
-3.16388e-06
2.55243e-05
4.0716e-07
1.07039e-07
-8.85232e-07
1.69925e-06
3.47763e-07
-4.641e-07
-2.3972e-07
3.56057e-07
9.68241e-07
6.47616e-07
-1.26809e-06
7.02464e-08
4.33895e-07
3.07439e-07
-4.28396e-07
1.91204e-07
8.44455e-08
6.56888e-07
3.50961e-07
-1.31741e-07
1.95686e-07
7.58166e-09
-5.10375e-07
4.20797e-07
8.19958e-08
-3.25446e-07
9.95116e-08
2.33517e-07
-3.50541e-08
-8.00767e-07
-1.1925e-07
1.56395e-07
3.83653e-07
5.23356e-08
-7.20741e-08
-5.8582e-08
4.00275e-08
-1.64997e-08
-9.673e-07
1.07951e-07
-7.28429e-07
8.20792e-07
-1.53933e-06
1.90528e-08
8.85145e-07
1.80495e-07
1.44929e-06
-8.61605e-08
-3.06127e-08
7.67268e-09
1.09101e-07
3.5966e-08
1.38657e-07
-2.60784e-07
-1.37089e-07
1.42442e-07
4.87945e-08
-4.54913e-08
4.36954e-09
-1.26599e-07
3.14051e-07
1.1893e-07
1.73961e-07
-4.2998e-07
-1.83537e-08
2.79726e-07
1.8038e-07
-2.44225e-07
2.27742e-07
1.17047e-07
4.05273e-08
1.77336e-07
-3.3491e-07
-5.75344e-08
7.30926e-08
1.01488e-07
1.74197e-07
-4.65758e-08
8.61152e-08
3.35532e-08
-9.80723e-10
-1.69021e-07
1.00011e-06
1.1278e-07
-1.03819e-08
4.96264e-07
1.2466e-07
6.19943e-07
-2.91484e-08
5.94807e-08
-2.75672e-08
-2.76512e-09
7.47351e-08
1.29328e-08
-1.16816e-07
1.24445e-07
9.77047e-09
5.04978e-08
-3.86148e-08
-3.94502e-08
2.01749e-07
-1.38319e-07
-6.89142e-07
1.01534e-06
-7.17987e-07
5.161e-07
5.94529e-07
-9.97849e-07
-3.00023e-08
-1.08446e-07
6.54548e-07
1.34547e-07
3.79806e-07
3.44672e-08
2.78485e-07
-1.42904e-07
-3.96736e-07
5.66775e-07
-1.16684e-06
9.09102e-06
8.94895e-06
1.75851e-06
-1.97985e-05
3.16011e-06
-7.3942e-07
6.67033e-06
9.57474e-06
2.53432e-06
-6.9203e-07
6.07158e-07
-4.52808e-07
6.43111e-06
-9.29868e-06
1.84206e-05
-6.93301e-06
-1.0378e-05
-9.32786e-07
1.18247e-06
1.01283e-05
1.33109e-05
-1.29933e-05
-1.06955e-05
-2.40179e-06
1.47799e-05
-1.25513e-05
5.66697e-06
4.48255e-06
2.20239e-06
2.61636e-08
1.41193e-05
-2.14457e-05
1.75042e-05
-1.40883e-06
-1.75861e-06
-1.79566e-07
3.34701e-06
-1.61102e-07
-2.46731e-06
1.21958e-06
-3.60156e-08
-1.8837e-06
1.50268e-06
-2.54835e-06
8.66103e-07
-3.86682e-06
2.90219e-06
-4.28218e-07
-2.15616e-06
-6.17874e-06
1.38526e-06
1.42959e-06
1.63588e-06
-4.45073e-06
-1.04591e-06
1.13888e-06
1.29231e-06
3.45005e-06
-3.06636e-06
9.19177e-07
-2.29e-06
2.50972e-06
-1.78668e-06
3.99818e-06
-3.13804e-06
4.80143e-06
-3.79213e-06
-4.11655e-06
-1.05589e-06
1.09382e-06
4.07863e-06
1.46034e-06
-7.52834e-07
-4.82406e-06
1.74023e-06
-1.33578e-06
3.63706e-06
3.66548e-07
-4.75644e-06
-8.06491e-07
5.53735e-06
-4.85627e-06
5.79e-06
-5.82551e-06
1.54907e-06
5.57345e-06
-3.38524e-06
-3.73729e-06
2.56899e-06
-3.06093e-06
2.04102e-06
1.21316e-06
6.92929e-06
7.36134e-06
-1.56022e-06
-8.86206e-06
3.34525e-06
6.05712e-06
1.8923e-06
5.68609e-07
-4.02113e-06
4.56176e-07
4.78137e-06
-1.69496e-06
3.3643e-06
-4.51158e-06
-2.52322e-06
1.41553e-06
4.5144e-06
-3.40671e-06
3.03221e-06
3.01391e-06
-8.56933e-06
1.54404e-06
2.90371e-06
2.03488e-06
-4.22812e-06
-2.37437e-06
7.31296e-06
6.52094e-07
-1.67032e-06
-3.20989e-06
-1.60288e-06
-1.19381e-07
7.22337e-07
6.2127e-07
3.63387e-06
5.31038e-06
2.33384e-06
-2.48009e-07
-7.39621e-06
-1.17658e-06
2.00482e-06
4.48214e-06
-1.78316e-06
2.94042e-06
6.84484e-06
2.027e-06
-9.11985e-06
-8.82429e-07
9.73209e-06
8.35045e-06
-8.10661e-06
1.04084e-05
8.03338e-07
-5.40874e-06
5.72639e-06
-1.12099e-06
-5.46307e-06
5.02414e-06
1.24227e-06
6.98276e-06
-1.78546e-05
-5.16963e-06
-6.12364e-06
1.63174e-05
-4.85825e-06
9.30904e-07
7.1678e-07
3.19549e-07
-7.96793e-06
-2.79463e-07
6.83136e-06
1.41603e-06
6.95607e-06
4.96423e-06
-1.98882e-05
2.13173e-08
6.65529e-06
-4.61011e-07
7.07336e-06
2.19011e-07
6.28188e-06
-1.77866e-06
5.19124e-06
1.11195e-06
1.89199e-05
8.08676e-06
-8.14037e-07
1.9977e-06
-5.92177e-06
1.7257e-05
-5.97928e-06
-7.56519e-07
7.68394e-06
-7.66431e-07
-1.16413e-07
2.95198e-06
1.128e-07
-2.94837e-06
5.87824e-06
-5.65095e-06
-3.43701e-07
-4.2827e-06
1.31129e-05
-2.62675e-06
2.3282e-06
4.11352e-07
9.93457e-07
-6.56857e-06
2.87929e-06
-7.53678e-06
9.24797e-07
-4.74631e-06
-6.93104e-06
-2.05349e-06
1.37308e-05
1.61533e-07
-3.34903e-08
-4.87435e-06
-6.22197e-06
-5.47539e-07
-7.87781e-06
7.01973e-06
8.24583e-07
2.09222e-06
-1.48444e-05
9.09624e-06
-1.3226e-05
1.40625e-05
-3.98118e-06
4.43297e-07
3.90942e-06
-3.71535e-07
4.12643e-06
4.06689e-06
-1.21745e-05
4.05113e-06
5.18602e-07
4.82982e-07
3.89907e-06
-3.15164e-07
4.26636e-06
1.26034e-07
-4.17245e-06
1.24899e-05
2.4522e-07
-2.18252e-06
-3.28579e-07
3.74098e-07
2.137e-06
4.81282e-06
4.63845e-06
-1.16338e-05
4.55854e-06
-7.43098e-08
1.07611e-06
-1.11507e-06
4.13052e-07
-8.48863e-07
4.06197e-06
8.90304e-07
2.63308e-06
4.59998e-06
3.29815e-07
4.09117e-06
-4.10266e-06
-3.1832e-07
4.58692e-06
-3.90098e-06
-3.56137e-07
-4.23847e-06
1.29166e-05
4.03308e-06
3.85345e-06
-1.19892e-05
3.64041e-06
6.79305e-07
-7.2684e-07
8.12284e-08
-1.66169e-06
-5.82589e-06
-5.1117e-06
1.25993e-05
2.74883e-07
8.59878e-09
-1.94518e-06
-5.97595e-06
4.2494e-07
-2.59069e-06
2.44894e-06
1.50344e-07
1.35842e-06
-5.89429e-06
4.11363e-06
-8.73118e-06
4.60836e-06
1.9542e-06
-7.84205e-08
3.90667e-06
1.98832e-06
-1.17893e-05
4.01223e-06
4.47753e-08
-6.71308e-06
1.26795e-05
-6.17368e-06
-4.94637e-07
5.4319e-06
-4.92374e-07
6.57654e-07
-5.59718e-06
-3.23352e-06
-4.40942e-06
-5.77328e-07
-3.14856e-06
-6.62247e-06
6.8072e-06
-7.62058e-07
3.34864e-06
-1.31197e-05
-4.24001e-06
4.88245e-07
1.03507e-05
1.29179e-05
-4.26957e-07
5.08018e-06
2.73942e-06
4.74269e-07
-3.83922e-06
3.8636e-06
-4.98645e-07
-4.20949e-06
4.14304e-06
5.40722e-07
4.21456e-06
-1.22633e-05
-4.02397e-06
-4.4496e-06
1.26166e-05
-4.07422e-06
5.90969e-07
2.15947e-07
-7.56112e-08
-3.70057e-07
-4.5701e-06
-4.25998e-06
-4.23507e-06
-1.54305e-07
-4.1724e-06
-2.43393e-07
-8.41082e-08
-4.33018e-06
-4.54918e-06
4.09051e-06
3.74566e-07
4.07123e-06
-1.29506e-05
5.4941e-07
-6.50583e-07
4.04846e-07
5.21239e-07
4.1141e-06
-4.61833e-07
-4.17351e-06
4.14249e-06
-4.33529e-06
7.14048e-07
-4.68121e-06
1.29378e-05
-3.88932e-06
4.24569e-06
-8.18195e-07
4.53453e-06
-1.25974e-05
4.60685e-08
1.5317e-07
-3.8944e-07
-2.32594e-07
-2.78904e-06
-5.24316e-06
-1.28655e-05
2.48108e-08
-4.38566e-06
3.94846e-06
4.12383e-07
-4.15617e-06
4.09938e-06
8.16033e-08
3.93632e-06
-1.24782e-05
-4.33708e-06
-4.00811e-06
1.24446e-05
-3.98053e-06
-2.74951e-07
4.48887e-07
-4.93095e-07
3.89244e-07
1.36702e-07
4.26999e-06
-4.25604e-06
-1.50644e-07
6.28519e-06
-6.62574e-06
-6.72922e-06
-8.50606e-06
1.90506e-06
-1.27868e-05
-6.05052e-06
-8.29345e-07
-1.26515e-05
8.19636e-06
6.58958e-06
-2.4397e-06
-1.23462e-05
-5.83897e-06
-6.00656e-06
-3.73476e-06
-7.87243e-08
8.48951e-08
-5.6172e-06
-4.74258e-07
-3.72859e-06
-1.17855e-05
-2.67727e-07
4.66082e-06
-1.82683e-06
-2.56626e-06
6.44305e-06
-2.37702e-06
-4.33375e-06
-7.70178e-06
-5.69713e-06
-1.35423e-06
-4.10653e-07
-6.19519e-08
5.60766e-07
-4.29201e-06
4.9849e-06
-1.21259e-05
-1.12287e-06
-2.11672e-06
-2.73517e-06
-8.5694e-07
5.70883e-06
-4.70404e-07
-2.65589e-06
1.00957e-06
-2.76748e-06
-4.38087e-07
-3.37772e-06
-5.76966e-06
8.29044e-06
-4.4461e-06
-1.5875e-06
4.47921e-06
-1.16928e-05
-1.72854e-06
-5.4397e-06
-1.27433e-07
5.36568e-06
2.01462e-07
2.43735e-06
3.53069e-06
-1.14077e-05
-1.65193e-07
2.47511e-06
6.00746e-06
-6.04099e-06
-1.31661e-07
-2.74606e-06
1.12286e-05
4.56661e-08
4.99204e-06
3.27971e-07
3.43792e-06
1.38428e-07
8.32548e-06
-1.09286e-05
1.05714e-05
-5.28618e-07
-4.68801e-06
3.23221e-06
1.98441e-06
-3.50474e-06
3.29712e-06
-3.21006e-07
2.79113e-06
-1.09839e-05
-4.26025e-06
-2.60326e-06
1.01606e-05
-3.03872e-06
1.69181e-06
-1.93939e-06
2.32076e-06
3.55965e-06
2.95047e-06
3.62248e-06
-1.32507e-06
1.55009e-06
3.33462e-06
6.09335e-06
-4.46795e-06
2.45193e-06
-7.74404e-06
-3.42491e-06
9.21146e-06
5.91527e-06
-2.70108e-06
-4.14359e-06
4.20924e-06
2.63543e-06
-2.07907e-06
-8.37998e-06
-1.21313e-05
-1.52841e-06
1.17515e-05
8.91438e-06
-9.2574e-07
3.00773e-06
6.83239e-06
3.30947e-06
4.9514e-06
-9.18661e-06
3.24759e-06
3.0696e-06
-8.09045e-07
-9.17358e-06
1.32302e-05
-4.54392e-06
6.80448e-06
3.42903e-06
-7.65121e-06
-6.36065e-06
8.78688e-06
3.76916e-06
-6.19539e-06
2.01456e-05
-6.06918e-06
6.77987e-06
2.21526e-05
-1.2896e-05
5.37493e-06
1.12902e-05
-7.22623e-06
-1.18651e-05
-4.41899e-06
1.48428e-07
9.64548e-06
-3.56902e-07
-1.12883e-05
5.35502e-06
-1.17811e-05
1.22833e-05
-2.36944e-05
-8.03029e-06
1.19431e-05
1.97816e-05
9.32594e-06
-3.89521e-06
-2.91251e-05
5.77168e-06
-4.47602e-06