/*--------------------------------*- C++ -*----------------------------------*\
| =========                 |                                                 |
| \\      /  F ield         | OpenFOAM: The Open Source CFD Toolbox           |
|  \\    /   O peration     | Version:  v2012                                 |
|   \\  /    A nd           | Website:  www.openfoam.com                      |
|    \\/     M anipulation  |                                                 |
\*---------------------------------------------------------------------------*/
FoamFile
{
    version     2.0;
    format      ascii;
    class       volVectorField;
    location    "0.1";
    object      U;
}
// * * * * * * * * * * * * * * * * * * * * * * * * * * * * * * * * * * * * * //

dimensions      [0 1 -1 0 0 0 0];


internalField   nonuniform List<vector> 
6576
(
(0.0314858 -1.48278 -0.0573216)
(-0.084023 -1.52903 0.0707292)
(-0.02839 -1.56474 0.0126997)
(0.0405975 -1.4532 -0.0560741)
(-0.00288231 -1.50513 0.00562371)
(-0.0714197 -1.5912 0.0727035)
(-0.0137787 -1.54344 0.0298235)
(0.0131671 -1.49749 -0.00026874)
(0.0141412 -1.24811 -0.0105318)
(0.0145362 -1.46025 -0.0014421)
(-0.0112875 -1.51755 -0.0165349)
(-0.0157685 -1.55994 -0.0135522)
(-0.00203663 -1.54896 0.00372629)
(0.00615245 -1.48797 -0.00156414)
(0.0540722 -1.45636 0.0220228)
(0.00990549 -1.82148 -0.0313305)
(0.0565601 -0.863439 0.0324586)
(0.0156199 -1.7159 -0.0161862)
(0.0493656 -1.55895 0.0572714)
(0.0146721 -1.48124 0.00219731)
(0.0421438 -1.37524 0.0443751)
(0.00189418 -1.51793 0.0115598)
(0.00905786 -1.46523 0.00700333)
(-0.0048429 -1.50003 -0.012573)
(0.00252366 -1.60414 0.00949951)
(0.0476656 -1.5283 0.04946)
(0.0583249 -1.49564 0.0590825)
(-0.000494902 -1.45777 0.0142546)
(-0.00593084 -1.58112 -0.0305458)
(0.00148157 -0.962077 -0.00660252)
(-0.047167 -1.56988 0.0567714)
(-0.0247036 -1.45405 -0.00871015)
(-0.00875139 -1.55285 -0.000711258)
(0.00876904 -1.45299 0.0282647)
(0.0133286 -1.464 0.0322649)
(-0.0172894 -1.25149 0.010188)
(0.00435654 -1.63281 0.0122449)
(-0.0113085 -1.56322 0.0105654)
(0.0163766 -1.47972 0.0232432)
(0.00878369 -1.47419 0.0166672)
(0.000807082 -1.3212 0.0300215)
(-0.0151193 -1.47518 0.00658884)
(-0.00208239 -1.40699 0.00471571)
(-0.113794 0.112696 0.175002)
(-0.1651 0.185772 0.279618)
(-0.124492 -0.168967 0.429145)
(-0.210055 0.242668 0.257586)
(-0.166104 0.221433 0.14162)
(0.0798028 -0.130903 0.463107)
(0.0167479 -0.186885 0.374532)
(0.250589 0.249775 0.113055)
(0.305806 0.453276 0.296453)
(-0.00512987 0.272123 -0.0142724)
(0.0037275 0.269808 0.0251313)
(0.00373271 0.265969 0.00552185)
(-0.00580972 0.273945 0.0302443)
(-0.00683661 0.262686 0.00325586)
(-0.0089288 0.258658 0.0021047)
(4.40965e-05 0.272895 0.0149998)
(-0.00793425 0.268667 -0.00568991)
(-0.01981 0.262303 0.0201209)
(0.00452951 0.272898 -0.0182714)
(0.00139097 0.260274 0.00884182)
(0.0092585 0.259615 -0.00161707)
(0.00207886 0.267533 0.0191029)
(-0.0138699 0.268923 0.0327756)
(-0.00262622 0.24918 0.0130645)
(0.00467848 0.247377 0.00683005)
(0.0024791 0.240708 -0.0129802)
(0.0146762 0.263093 0.010711)
(-0.0039086 0.26301 0.0216967)
(0.00168058 0.259825 0.0118187)
(-0.0177572 0.265393 0.0341953)
(-0.0243548 -0.29406 0.383541)
(-0.00549516 -0.282501 0.381901)
(0.00060283 -0.376754 0.317369)
(0.00769277 -0.303531 0.379093)
(0.00311093 -0.320412 0.319856)
(0.0238521 -0.404023 0.246262)
(-0.00652204 -0.436976 0.324895)
(-0.00133531 -0.154304 0.311232)
(-0.0316439 -0.0759072 0.324415)
(0.0193703 -0.111652 0.336657)
(-0.00866117 -0.140724 0.348217)
(-0.00810493 -0.167642 0.332475)
(-0.0274971 -0.0738454 0.357499)
(0.0460914 -0.0881211 0.376202)
(-0.11983 -0.00241825 0.368126)
(-0.0392478 -0.163365 0.391011)
(0.0447329 -0.409537 0.553786)
(0.2025 -0.00807566 0.198769)
(-0.0693501 0.00559028 0.00501039)
(-0.0487433 0.199928 0.191532)
(-0.246978 0.175652 0.0607334)
(-0.129933 -0.28764 0.361908)
(0.148355 -0.756324 0.82054)
(-0.176713 0.00393394 0.0552531)
(-0.604228 -0.325954 0.770539)
(0.292604 -0.0425886 0.0770613)
(-0.355658 0.348844 0.479507)
(-0.346423 0.221867 0.574844)
(0.00428201 -0.00216275 -0.00751553)
(0.00146704 0.000988448 -0.0127494)
(0.000671946 0.0107265 -0.00509109)
(0.00174862 0.00703242 -0.00620237)
(-0.000141276 0.0034649 0.00534154)
(-0.000461978 0.0117447 0.00158868)
(-0.0085659 0.00680032 -0.00161073)
(0.0185986 0.0223486 -0.0139221)
(0.000744822 0.0142019 -0.0132174)
(-0.00871739 -0.000599335 -0.0167222)
(-0.026612 0.0613593 -0.0429097)
(-0.0412919 0.0104509 -0.0845364)
(-0.0116844 -0.00717125 -0.0188671)
(0.106751 -1.17436 0.109541)
(-0.00242452 -1.53811 0.0360308)
(0.106188 -1.4897 0.049586)
(-0.024069 -1.62105 0.058779)
(-0.0127826 -1.70152 0.0427616)
(0.111697 -1.68907 0.0388246)
(0.0870062 -1.58664 0.156792)
(-0.0311645 -1.43609 -0.00039126)
(0.076216 -1.54581 0.0742544)
(-0.0279537 -1.47207 -0.0188511)
(0.00552431 -1.58103 0.00567654)
(-0.0718827 -1.56019 -0.0258591)
(0.0756484 -1.71338 0.129146)
(-0.103311 -1.56464 -0.0114076)
(0.63137 -0.683167 -0.215019)
(0.559477 -0.620074 0.0950365)
(0.132657 -0.787147 0.0418896)
(-0.686362 -1.25933 0.587946)
(0.222545 -0.947218 0.382694)
(-1.21841 -1.39166 0.408606)
(-0.319457 -1.13306 0.447607)
(0.00281499 0.244611 0.0907451)
(-0.0241285 0.288394 0.0745385)
(0.000825767 0.284791 0.0655469)
(0.00871739 0.272091 0.0959433)
(-0.0182207 0.274339 0.0909581)
(-0.0276776 0.286264 0.0773516)
(0.00284573 0.297995 0.0662417)
(0.0166191 0.32141 0.0164223)
(-0.000327045 0.264887 0.0427601)
(-0.0286337 0.309404 0.050715)
(0.0279573 0.308867 0.0292905)
(-0.0175794 0.31514 0.0540758)
(-0.02026 0.314522 0.0483424)
(0.0316848 0.340631 0.00394446)
(-0.00276293 0.275748 -0.00970766)
(-0.00039894 0.309063 -0.0154808)
(-0.00579754 0.297472 -0.0159908)
(0.00606247 0.307628 0.0179069)
(0.00625422 0.321562 0.00669087)
(-0.00077041 0.318615 0.00240736)
(0.00377451 0.284536 0.00550591)
(-0.00748147 0.300953 0.000697692)
(-0.00208107 0.307099 -0.00392082)
(-0.00441637 0.323442 0.00144241)
(-0.0153541 0.307629 -0.00491328)
(-0.00255847 0.320228 -0.0105959)
(0.00736712 0.358952 -0.0214321)
(-0.0154762 0.366151 -0.0142972)
(0.00971286 0.354905 -0.0149217)
(-0.015388 0.346837 -0.00286528)
(0.000651283 0.306864 -0.0367289)
(-0.0103596 0.27679 -0.0626478)
(0.0234587 0.227776 -0.070444)
(0.00138724 0.297053 0.00596687)
(-0.00244923 0.321346 -0.00874134)
(-0.023237 0.308692 -0.0281144)
(0.0185846 0.261577 -0.0384253)
(-0.046639 0.311315 -0.0518748)
(0.0246374 0.347322 -0.0837751)
(0.00257869 0.284785 -0.0338321)
(-0.0384229 0.373929 -0.0631273)
(0.0617944 0.428766 -0.150481)
(-0.0177672 0.342137 -0.0591588)
(0.00443841 0.313005 -0.0732143)
(0.0178378 0.332411 -0.0652945)
(-0.0122466 0.332399 -0.0395212)
(0.0177146 0.215888 -0.156565)
(0.0264865 0.200526 -0.174043)
(-0.00357192 0.182825 -0.20364)
(0.0179079 0.219431 -0.163477)
(0.0217929 0.213614 -0.174305)
(-0.0228896 0.226612 -0.19474)
(-0.00895291 0.237628 -0.188005)
(0.00416708 0.221911 -0.138351)
(-0.00836519 0.23017 -0.166198)
(0.000182518 0.122169 -0.138563)
(0.0104129 0.201451 -0.0761666)
(-0.0613609 0.16299 -0.104785)
(0.0226115 0.195868 -0.108445)
(0.0344408 0.190753 -0.138487)
(-0.0512009 0.167151 -0.124265)
(0.00116526 0.147899 -0.145166)
(-0.000296749 0.0679538 -0.216111)
(0.0296596 0.102446 -0.208027)
(-0.00401308 0.0976908 -0.22207)
(-0.0242263 0.0785626 -0.182218)
(0.0045976 0.111178 -0.201428)
(0.0257925 0.165278 -0.201181)
(-0.0118587 0.130222 -0.191341)
(-0.000136665 0.115916 -0.0977457)
(-0.0146793 0.0779064 -0.178672)
(0.0371757 0.108957 -0.163989)
(0.0129172 0.0962572 -0.155955)
(-0.000697332 0.0922102 -0.119364)
(-0.0120179 0.0872589 -0.156532)
(0.0131618 0.125318 -0.173469)
(0.0796655 -1.32307 -0.229216)
(0.068108 -1.20678 -0.475028)
(-0.00626044 -1.00218 -0.504821)
(-0.0598877 -0.9701 -0.533561)
(-0.0741749 -1.02386 -0.381215)
(0.0655524 -1.32769 -0.284234)
(-0.0304347 -0.944559 -0.572591)
(-0.00264077 0.17549 -0.00897667)
(-0.0142786 0.127547 -0.0549528)
(0.0319855 0.135725 -0.0507779)
(0.0159533 0.16564 -0.0455172)
(-0.0103899 0.177706 -0.0154751)
(-0.00418484 0.147413 -0.0477923)
(0.0327639 0.154124 -0.0570427)
(0.00890676 0.157955 -0.0738517)
(0.00912615 0.166457 -0.0724781)
(3.73198e-08 0.149048 -0.0764416)
(0.015 0.176462 -0.0797711)
(0.0266811 0.162784 -0.0899322)
(0.00886277 0.15747 -0.106617)
(-0.00583222 0.163293 -0.0859237)
(-0.00263508 0.225427 -0.0720104)
(0.00342786 0.201217 -0.0876051)
(-0.0116581 0.20101 -0.0705424)
(0.0104332 0.202017 -0.107669)
(0.0395671 0.20505 -0.119466)
(0.0198167 0.205697 -0.125839)
(-0.00399551 0.188179 -0.110766)
(-0.0180985 0.280748 -0.0333279)
(-0.00206088 0.268017 -0.0342895)
(-0.0100687 0.261175 -0.0457545)
(0.0521691 0.17683 -0.113537)
(-0.00508308 0.241934 -0.0761513)
(0.0104114 0.227639 -0.0718134)
(-0.0391466 0.269802 -0.0469004)
(0.00238533 0.263494 -0.0571746)
(-0.0111167 0.26652 -0.0659942)
(0.00203411 0.262265 -0.050464)
(-0.00653048 0.2498 -0.0513068)
(-0.00920892 0.256802 -0.0575589)
(-0.00449208 0.253019 -0.048418)
(-0.0138722 0.268514 -0.0650545)
(-0.00466543 0.264696 -0.0583778)
(0.00551922 0.25745 -0.0435835)
(-0.000398165 0.295914 -0.0334529)
(-0.00632968 0.295153 -0.0174263)
(0.00891064 0.288685 -0.0203193)
(-0.000741682 0.315518 -0.0216788)
(0.00100259 0.303968 -0.0247548)
(-0.00596973 0.290901 -0.00928342)
(0.000734462 0.28671 -0.0128966)
(0.00321046 0.234572 -0.00969383)
(-0.0103934 0.247302 0.0120339)
(-0.0230055 0.249305 0.0211401)
(-0.0108243 0.25022 0.0209217)
(0.0137401 0.248006 -0.000357266)
(-0.0045677 0.249291 0.0196463)
(-0.0238535 0.242735 0.0283758)
(-0.00770622 -0.00574291 0.0088667)
(0.0103682 0.00835851 0.0173987)
(0.0079121 -0.0450619 0.00177017)
(-0.0114247 0.00900974 0.00717937)
(0.00637474 0.00393981 0.00721824)
(-0.0174465 0.0554193 -0.0200506)
(0.0316008 -0.0266253 -0.00408554)
(-0.00708893 -0.0170374 -0.00163716)
(0.00827225 0.00323684 -0.00546407)
(0.459808 -1.24492 -1.1043)
(0.00982475 -0.931839 -1.38495)
(0.14189 -2.07195 -1.25078)
(-0.684488 1.62848 -0.138476)
(-0.239849 -0.645798 -0.00931653)
(-0.725961 1.11457 -0.512148)
(-0.110003 -0.28326 -0.598824)
(0.137471 0.270588 0.290488)
(0.0256814 0.189475 0.213455)
(-0.0344234 0.366512 -0.0394903)
(-0.107721 0.278734 -0.428262)
(-0.0269512 0.257083 -0.261692)
(-0.079601 0.244944 0.163858)
(0.0349218 0.267987 0.207493)
(-0.0823016 0.356881 -0.0795298)
(0.0625533 0.332412 0.0366394)
(0.0578797 -0.113675 0.488837)
(-0.321234 -2.01056 -0.280506)
(-0.371604 1.37206 0.418769)
(-0.0101098 0.180165 -0.305722)
(0.230442 -0.0198599 -0.148484)
(0.0680262 0.31381 0.184391)
(0.0328902 -0.450099 -0.195226)
(0.119913 -0.410035 0.390885)
(-0.0552965 0.172843 0.13848)
(-0.0516641 -0.101301 -0.50822)
(-0.0209719 0.0712373 -0.154047)
(0.0228084 0.0832445 -0.167845)
(0.00168122 0.0566575 -0.13436)
(0.0600723 0.144854 -0.216531)
(-0.00620989 0.120528 -0.182681)
(-0.00120751 0.101611 -0.152966)
(0.0287924 0.116375 -0.174114)
(-0.0246133 -1.9255 -0.0773945)
(-0.00817053 -1.86216 -0.136148)
(0.0301036 -1.95878 -0.171523)
(0.0190615 -1.98127 -0.0447236)
(0.0192815 -1.94432 -0.124161)
(0.0404375 -2.07153 -0.113602)
(0.0393029 -2.02151 -0.175403)
(0.0331771 -2.02677 -0.163601)
(0.00496755 -2.01936 -0.0856324)
(-0.00270087 0.0506371 -0.285341)
(-0.00271399 0.00523335 -0.327642)
(-0.0182422 0.00730566 -0.319412)
(0.0271088 0.0671355 -0.274837)
(0.0113225 0.0680807 -0.270058)
(0.00247323 0.0413105 -0.297987)
(-0.0110067 0.0310672 -0.301083)
(0.087099 0.0864938 0.00548563)
(-0.0343306 -0.0219801 0.0992238)
(-0.0534574 0.0349154 0.0456424)
(-0.0228329 0.0831088 0.110887)
(0.0444537 0.108383 0.036576)
(-0.0398042 0.0531942 -0.0134996)
(-0.125597 0.188415 -0.0261841)
(0.103665 -0.178543 0.0385452)
(-0.0168231 -0.180398 0.0189051)
(0.00992203 -0.0960013 0.0287774)
(0.027165 -0.0674071 0.0701962)
(-0.0418541 -0.0663929 0.0489792)
(0.00437658 -0.116148 0.126042)
(-0.102106 -0.0584373 0.147249)
(0.0268797 -0.188251 0.00480477)
(0.159034 -0.286873 0.0343548)
(0.0603343 -0.198981 -0.168224)
(0.160632 0.44611 -0.789298)
(-0.0278658 0.101621 -0.466797)
(-0.129983 -0.132308 -0.118555)
(0.174871 0.534463 -0.84785)
(-0.0892401 0.0645095 -0.19732)
(0.0300598 0.372421 -0.609601)
(0.06938 0.493711 -0.719271)
(-0.168655 0.159213 -0.230356)
(0.0123101 -0.00107659 -0.0210668)
(0.00374461 0.0250368 0.00729926)
(0.0147702 -0.00242713 -0.0231737)
(0.0204919 0.0248974 0.0042847)
(-0.00134139 0.00741582 -0.0281687)
(0.0204407 -0.0161536 0.0471064)
(0.0184557 -0.0118768 0.0174471)
(0.00551321 0.00204493 -0.00176628)
(0.0131222 0.00289264 0.00716073)
(0.0013912 0.000751133 0.00767541)
(0.00850937 0.00727359 0.00750945)
(0.00455638 0.00608417 0.0092062)
(-0.0105924 -0.00415102 -0.0239191)
(0.00109904 0.00505692 -0.0120369)
(0.00185563 -0.0129388 0.000856796)
(0.000877984 0.00216299 -0.00145223)
(0.131562 -0.0157701 0.0450122)
(0.160943 0.0812756 -0.213729)
(-0.122026 -0.491812 0.0331531)
(-0.224292 0.178438 0.250054)
(0.2335 -0.0339684 -0.00753367)
(0.0634935 0.0244179 -0.398609)
(0.0142915 -0.175372 -0.353704)
(0.171422 0.127949 -0.0760106)
(0.0629919 0.114085 0.0913282)
(-0.0498939 -0.00506213 -0.197044)
(-0.119486 0.124708 -0.0076145)
(0.0381549 0.0204497 -0.187153)
(0.0735234 -0.0271256 0.0110558)
(0.0288999 -0.0180434 -0.138366)
(-0.0021284 -0.0200673 -0.193382)
(-0.000539786 -0.0189533 -0.177705)
(-0.000513508 -0.0229597 -0.185892)
(0.00529706 -0.0563445 -0.186269)
(-0.0083515 -0.0425821 -0.187011)
(-0.00577038 -0.0321681 -0.186906)
(-0.0117999 -0.0335254 -0.186345)
(-0.00769303 -0.0288558 -0.184742)
(-0.00215478 -0.0313027 -0.192402)
(0.0210535 -0.0822129 -0.290501)
(0.0632898 -0.101763 -0.319424)
(-0.00205714 -0.0513136 -0.263995)
(0.0062513 -0.118972 -0.329475)
(-0.0267581 -0.0906901 -0.314769)
(0.055276 -0.110969 -0.324406)
(0.0155408 -0.0967874 -0.317604)
(0.0332534 -0.155739 -0.443227)
(-0.00267261 -0.122438 -0.351205)
(0.00615382 -0.152339 -0.392819)
(0.012166 -0.274191 -0.404354)
(-0.0233405 -0.211072 -0.395675)
(0.00969945 -0.171862 -0.340525)
(-0.00422777 -0.16438 -0.355868)
(0.00517795 -0.139783 -0.35229)
(0.020949 -0.13886 -0.368528)
(-0.00111454 -1.91595 0.207091)
(0.0413387 -2.02821 0.406267)
(0.0600035 -2.17884 0.343724)
(-0.0105332 -2.033 0.0736301)
(-0.00244946 -1.93351 0.144266)
(-0.0483365 -1.95805 0.283659)
(-0.0128798 -2.1547 0.214702)
(0.0629644 -1.87507 0.0981212)
(0.00157907 -2.03091 -0.0414549)
(0.124432 -2.04549 0.047067)
(0.116339 -1.62387 0.100941)
(-0.0419403 -1.71012 -0.0352831)
(0.00270526 -1.97469 -0.141075)
(0.216962 -1.99398 0.0587587)
(-0.00078499 0.257535 -0.0205407)
(-0.00179222 0.244548 -0.0171051)
(0.00343288 0.250103 -0.0184959)
(-0.00170232 0.254665 -0.0106873)
(0.000130425 0.26393 -0.00978608)
(-0.00960088 0.242678 -0.0171679)
(-0.00284674 0.250959 -0.0161458)
(0.00389141 0.249476 -0.0200323)
(-0.0107964 0.248688 -0.0179793)
(-0.00243338 0.223071 -0.00681515)
(-0.00929341 0.260292 -0.0238721)
(0.00716978 0.254148 -0.0153037)
(0.0169089 0.247571 -0.00964378)
(0.000126397 0.24668 -0.0149865)
(-0.00204184 0.250598 -0.0168745)
(0.00830477 0.249368 -0.0156177)
(0.00799719 0.251334 -0.0192484)
(-0.00402729 0.260619 -0.011737)
(-0.00322023 0.255201 -0.0100185)
(-0.000121362 0.249557 -0.0110097)
(-0.00015848 0.254543 -0.0146866)
(0.0171792 0.238332 -0.00760831)
(0.00652042 0.234638 -0.00799601)
(-0.00348057 0.236091 -0.00486715)
(0.0109661 0.242762 -0.00338461)
(0.000256641 0.237663 1.09974e-05)
(-0.0128771 0.247107 0.0144604)
(-0.00161812 0.247891 0.016703)
(-0.0120011 0.243367 0.0114877)
(-0.00694408 0.246281 0.00729934)
(0.0152527 0.235017 0.00779177)
(0.00417348 0.233782 0.00092774)
(-0.00315845 0.230141 -0.0112721)
(-0.00240217 0.249422 0.00585851)
(0.00398954 0.243942 0.0109237)
(-0.00662628 0.237236 0.00742276)
(-0.000779417 0.231119 0.00779374)
(-0.00410737 0.128222 0.00316139)
(-0.00814664 0.244936 -0.000467467)
(-0.0222386 0.241686 0.0116028)
(0.00777597 0.241495 -0.0145678)
(-0.00206245 0.19596 0.00384553)
(-0.00352918 0.275014 -0.0091911)
(-0.0224309 0.26203 0.0154929)
(0.000948988 0.238447 -0.0397688)
(0.0193363 0.259811 -0.0216532)
(-0.012764 0.253722 -0.00677172)
(-0.0118111 0.254306 0.00217118)
(0.00698208 0.257844 -0.0156421)
(0.00818566 0.266 -0.0065262)
(-0.0327398 0.264545 0.0271324)
(0.00187463 0.272737 0.0196813)
(0.00728494 0.245842 -9.26781e-05)
(0.00323771 0.232508 0.000735502)
(-0.00198262 0.23021 0.012766)
(0.00092446 0.267504 0.0178101)
(0.00969708 0.24635 -0.0109604)
(0.000653358 0.217478 -0.00567055)
(-0.00717279 0.259782 0.000258687)
(0.00356248 0.238483 -0.0126073)
(-0.000125278 0.268049 -0.0187809)
(-0.0111392 0.249275 0.0159171)
(0.000445383 0.191896 -0.000126924)
(-0.000234299 0.232942 0.00365777)
(-0.00990573 0.257772 0.014705)
(0.0026411 0.236903 0.00265937)
(-0.0101301 0.13428 -0.00142556)
(0.0129179 0.233513 -0.0230432)
(-0.0122896 0.225653 0.0157549)
(-0.00373182 0.116351 0.00277546)
(-0.00954665 0.22244 0.00728165)
(0.0103179 0.250907 -0.00498868)
(0.0319026 0.259516 -0.0241398)
(-0.00730688 0.239752 0.0196137)
(0.0239176 0.255794 -0.02192)
(0.000723374 0.250951 -0.00815605)
(-0.0160632 0.242302 0.0130231)
(0.0033314 0.24891 -0.00252434)
(0.000559139 0.251245 0.0270585)
(-0.00662436 0.253022 0.0034764)
(0.00482576 0.25214 0.0166206)
(-0.00330625 0.23724 -0.00214748)
(0.00169737 0.242205 -4.77484e-05)
(-0.00446042 0.237535 -0.00997361)
(0.0105148 0.243711 -0.0112968)
(-0.00680606 0.256292 -0.00184225)
(0.00437908 0.251823 0.00204341)
(0.00794207 0.245065 -0.013778)
(0.00159268 0.251777 -0.00890919)
(0.00212748 0.245791 0.004258)
(0.00460731 0.248068 0.000341295)
(-0.0024702 0.246648 -0.0107363)
(-0.00444182 0.241299 -0.00113951)
(-0.00047508 0.241743 0.00195519)
(-0.00294662 0.239723 0.0063179)
(-0.00237133 0.243225 0.00680202)
(0.00188159 0.245635 0.00357365)
(0.00128954 0.24374 0.0026569)
(0.00564 0.243488 0.00756328)
(0.0059965 0.242673 0.0136842)
(-0.00804094 0.242092 0.00185699)
(-0.000569625 0.242667 0.0033502)
(-0.00117806 0.245269 0.0144668)
(-0.00887441 0.244771 0.00716953)
(-0.00213047 0.244821 0.00608902)
(0.00216526 0.245753 0.0074184)
(-0.00444813 0.255823 -0.00656591)
(0.00404819 0.242737 0.00898263)
(-0.00159981 0.241999 0.00471662)
(-0.0126535 0.242638 0.0137842)
(-0.00548032 0.238817 0.0143915)
(0.00225479 0.229479 0.00282056)
(-0.0108807 0.236067 0.0104734)
(5.32891e-05 0.228755 -0.0121671)
(0.000976763 0.238658 -0.00843933)
(0.00895414 0.239769 -0.0111968)
(0.000678129 0.232759 -0.0180884)
(5.81413e-06 0.22683 -0.0134444)
(0.003852 0.236306 -0.0206514)
(0.00286395 0.23259 -0.013201)
(-0.00104912 0.235526 -0.0101405)
(0.00231872 0.232126 -0.0160688)
(-0.00259852 0.222217 -0.0369029)
(0.00348554 0.223289 -0.0315179)
(-0.00259559 0.227427 -0.0387435)
(0.00688588 0.254928 -0.0265986)
(0.00554122 0.235864 -0.0345276)
(0.00522597 0.225437 -0.0316888)
(0.00519433 0.212698 -0.0394642)
(0.000168167 0.205025 -0.0403894)
(-0.0130654 0.227012 -0.0366683)
(-0.00467243 0.250153 -0.0209874)
(0.014759 0.237597 -0.019739)
(0.00863468 0.20194 -0.0272347)
(-0.000276967 0.220168 -0.0241028)
(0.00217313 0.237 -0.016021)
(-0.0028707 0.228777 -0.0301738)
(-0.00123883 0.243505 -0.0330179)
(0.00180495 0.236753 -0.0265939)
(-0.0046787 0.223156 -0.0296417)
(0.00145003 0.233409 -0.0297098)
(-0.00326773 0.22257 -0.0342712)
(-0.0119523 0.213939 -0.0388229)
(-0.000429151 0.245179 -0.0443334)
(0.00211632 0.27225 -0.0813846)
(-0.00820346 0.273562 -0.0742318)
(0.00070945 0.239103 -0.0331637)
(0.00666192 0.246317 -0.0305339)
(0.00670502 0.309678 -0.113513)
(0.0115684 0.325645 -0.112596)
(-0.00105712 0.312974 -0.100817)
(-0.00170554 0.305798 -0.113891)
(0.0256951 0.271438 -0.124596)
(0.0235527 0.275539 -0.144557)
(0.0441798 0.233155 -0.154355)
(0.00946069 0.333383 -0.0635237)
(0.00117444 0.346213 -0.0872894)
(0.00123635 0.351761 -0.10178)
(-0.0130376 0.299032 -0.155693)
(-0.0453555 0.292209 -0.170019)
(-0.042695 0.298652 -0.144271)
(-0.0159037 0.296978 -0.121207)
(0.000583008 0.35401 -0.222336)
(0.0159616 0.39421 -0.200216)
(0.00471083 0.417499 -0.204572)
(-0.0326553 0.385272 -0.324172)
(-0.0981698 0.420249 -0.38705)
(-0.0746557 0.38554 -0.350487)
(-0.0184896 0.355311 -0.315212)
(-0.0647462 0.669891 -0.206622)
(0.00313683 0.57726 -0.116502)
(-0.0272083 0.6018 -0.19204)
(0.027503 0.558465 -0.262613)
(0.0128606 0.533538 -0.214233)
(0.00390923 0.519668 -0.193276)
(-0.0327259 0.595789 -0.243611)
(0.0022097 0.367598 -0.211493)
(-0.00351497 0.402107 -0.262245)
(-0.000744617 0.403759 -0.280419)
(0.000535923 0.314391 -0.260028)
(-0.0207988 0.329439 -0.23388)
(-0.00899809 0.339406 -0.266362)
(-0.0291021 0.340601 -0.244923)
(-0.033289 0.363251 -0.27473)
(-0.019797 0.340925 -0.287779)
(-0.000702054 0.239095 -0.400128)
(0.00740355 0.235393 -0.397233)
(-0.00444576 0.251268 -0.401722)
(0.0447991 0.227885 -0.348656)
(0.0104256 0.230293 -0.360319)
(0.0319487 0.274051 -0.345048)
(-0.00924768 0.287496 -0.32472)
(0.0152931 0.0842466 -0.106167)
(-0.00581257 0.0790509 -0.0987168)
(0.00279582 0.0774698 -0.0989982)
(0.0144031 0.105677 -0.154388)
(-0.00794349 0.105185 -0.135641)
(-0.00556284 0.118787 -0.145298)
(0.0313361 0.108601 -0.155972)
(0.00393399 0.109042 -0.0987135)
(0.000922488 0.0977709 -0.0937235)
(-0.000542635 0.0929502 -0.105629)
(-0.00419295 0.0876905 -0.101249)
(-0.0113815 0.0811597 -0.0957336)
(-0.00204044 0.0779296 -0.103519)
(-0.0119115 0.0740661 -0.0956065)
(0.00579839 0.0938504 -0.0601143)
(-0.0106964 0.0938414 -0.0500475)
(0.00218052 0.0940512 -0.0535262)
(-0.00421916 0.122517 -0.0902605)
(0.0198627 0.124987 -0.111143)
(0.026584 0.121035 -0.105741)
(-0.0100876 0.133292 -0.0929718)
(0.00740586 0.0845623 -0.0224185)
(-0.0027224 0.0790819 -0.0185399)
(-0.000582336 0.0704465 -0.0331289)
(0.00320153 0.0837621 -0.0110886)
(-0.0124565 0.0796821 -0.00502625)
(-0.00161238 0.0647851 -0.0195655)
(-0.0068846 0.0661844 -0.0210963)
(-0.0104214 0.0511422 -0.00625261)
(-0.0041991 0.0609911 -0.00710398)
(-0.000657118 0.0755839 -0.0274503)
(0.0130285 0.0699909 0.0017845)
(-0.000707167 0.0781751 -0.00388128)
(0.0113959 0.0723133 0.0154057)
(-0.0153945 0.0863523 0.0285599)
(0.0058447 0.077281 0.0167096)
(-0.0220969 0.093488 0.0323705)
(0.00449307 0.0863524 0.00868805)
(0.0228546 0.086659 -0.00370159)
(0.000984188 0.0969978 0.0191498)
(0.00281893 0.114479 0.013088)
(-0.00540677 0.0875167 0.00832027)
(0.0223841 0.103941 -0.0208446)
(-0.00130504 0.0785622 -0.00144599)
(0.0276559 0.112806 -0.0299305)
(-0.00510732 0.0961189 -0.0212324)
(-0.0184139 0.104478 0.0281965)
(-0.00267334 0.121357 0.0294033)
(0.000116502 0.139425 -0.0241244)
(0.0161224 0.0866845 0.0315942)
(0.0138907 0.0956177 0.00707608)
(-0.00596149 0.0954736 0.035085)
(0.0319092 0.130081 0.0546464)
(0.0128565 0.13624 0.0752365)
(0.0474059 0.152821 0.0815105)
(0.00234006 0.0885068 0.00863481)
(-0.0172622 0.0765735 0.00189601)
(-0.0274627 0.127979 -0.0074106)
(0.00543096 0.118711 -0.0106243)
(0.00740415 0.123627 0.0398777)
(0.00238076 0.104542 0.000706259)
(0.00510273 0.109515 0.0341249)
(-0.0265968 0.286288 0.0116211)
(0.0467724 0.238151 0.169519)
(0.0067075 0.137004 -0.0309975)
(0.0236665 0.191112 0.0746132)
(-0.0720523 0.151864 -0.0681613)
(-0.0736381 0.238114 -0.0150055)
(-0.0495806 0.324028 -0.0157113)
(-0.0493314 0.507091 0.209229)
(0.0577635 0.384001 -0.0548937)
(-0.0678061 0.453633 -0.244036)
(-0.114354 0.31049 -0.479137)
(-0.0712685 -0.109967 0.09871)
(0.10777 0.00620711 0.179808)
(0.0333897 0.174322 0.0392795)
(0.116385 0.0813406 -0.101215)
(0.272419 0.17508 0.1833)
(0.0890739 -0.00391196 -0.0763853)
(-0.0721246 -0.159244 -0.0117389)
(0.00297942 0.337113 0.102091)
(-0.00976481 0.451604 0.262426)
(-0.056891 0.322882 0.115454)
(0.0358972 0.325685 -0.146424)
(-0.119094 0.302252 -0.443714)
(-0.0338819 -0.0718366 -0.116124)
(0.0612914 -0.599286 -0.12455)
(0.0132983 -0.175374 -0.373197)
(0.00144293 -0.229247 -0.148703)
(0.270345 -0.370222 -0.303649)
(-0.00857236 -0.432974 0.260865)
(0.00646412 -0.000454792 -0.243918)
(0.246762 -0.242053 -0.290286)
(0.0900506 -0.297218 -0.159022)
(-0.0542987 0.123443 -0.190446)
(0.0753593 0.107382 -0.478841)
(0.291157 0.23298 -0.606573)
(0.160275 0.203185 -0.439416)
(-0.473021 0.0659552 -0.0624548)
(-0.281429 0.164115 -0.103914)
(-1.01804 -0.0814477 -0.225059)
(-1.28611 -0.883261 -0.884716)
(0.577441 0.062805 0.881286)
(0.869304 0.0216604 0.837558)
(0.134244 0.128896 0.534634)
(-1.17765 -0.219076 -1.08301)
(-0.2505 -0.721386 -0.688903)
(-1.31938e-05 0.0359788 -0.0141205)
(-0.00195403 0.0312069 0.00813676)
(-0.00732121 0.022369 0.00946487)
(-0.0257704 0.0295679 -0.00296882)
(0.0464677 -0.056602 -0.0276717)
(0.0132863 0.0170898 0.0216595)
(-0.00907055 -0.0149298 0.00432905)
(-0.0161344 0.0205028 0.0123147)
(0.0249887 -0.0602859 -0.0167447)
(0.0247414 0.0296236 0.0217082)
(-0.0273779 0.00590916 0.0236376)
(-0.00808367 -0.00660035 -0.00267243)
(0.00389864 -0.0245257 -0.0183023)
(-0.0364768 -0.0191549 0.0190689)
(-0.0102667 0.00185011 -0.000902054)
(-0.0111808 -0.00374496 -0.000466331)
(0.0218577 -0.0176235 -0.0107215)
(0.0162421 -0.0102391 0.0133649)
(0.0301741 0.0326734 0.000528105)
(-0.0146074 0.00851225 0.0147492)
(-0.0245007 0.00107899 0.00618425)
(-0.031824 -0.012365 0.017979)
(0.00570386 -0.00214177 0.00546908)
(-0.00207743 0.00906368 0.021142)
(-0.00480061 0.00235337 0.00437156)
(-0.000959889 0.00143142 -0.00148435)
(0.00695665 0.0168499 0.00302107)
(0.020168 -0.000395755 0.00770163)
(-0.00478027 0.00229558 0.00712137)
(-0.00717954 0.0011225 -0.0116199)
(0.00994222 0.0126552 -0.000621513)
(0.00244994 0.00389443 0.0170735)
(-0.00374244 0.00236089 0.0115738)
(0.00688732 0.00194036 0.0102932)
(-0.0026675 0.00166399 0.00197007)
(-0.00901884 0.0171851 0.0177464)
(0.000882416 0.0038521 0.0152027)
(0.0101742 0.00770944 0.0034464)
(0.0106599 -0.00654738 0.0172722)
(-0.000308962 0.00796246 0.00192694)
(0.00169148 0.0127441 0.010837)
(-0.00413628 -0.00219819 0.000754079)
(-0.000110414 0.000698523 0.00649364)
(5.34357e-05 0.0061037 0.00407212)
(0.000517286 0.00341815 -0.00556615)
(-0.00460352 0.00711734 0.000636685)
(-0.00665077 0.0334366 -0.0128513)
(0.00418306 0.00663169 -0.0116328)
(-0.0228652 0.0173242 -0.000366834)
(0.0188514 0.0340063 -0.0143123)
(-0.00735182 -0.0315522 0.0309973)
(0.000691136 0.0065648 0.00388523)
(0.0170901 0.0160061 0.0113169)
(0.0111909 0.012663 -0.00309442)
(-0.0208939 -0.00191687 -0.0158718)
(-0.2237 -0.158921 -0.167645)
(-0.0238279 0.196438 -0.223854)
(0.10668 -0.0351734 -0.452106)
(0.070715 -0.0109261 -0.0411771)
(0.248821 -0.378068 -0.171606)
(0.157194 0.172688 -0.37756)
(0.187074 0.189584 -0.296823)
(-0.149126 -0.36426 -0.242667)
(-0.165851 0.0753902 -0.284597)
(-0.19054 -1.12928 -0.240284)
(-0.0431164 0.629764 0.23467)
(0.330014 -0.0716634 -0.0994758)
(-0.103321 0.146411 -0.279806)
(-0.127215 -0.35664 -0.370002)
(0.0354513 -0.0460271 0.0060332)
(-0.00226122 -0.121851 -0.0161857)
(0.00251654 -0.0928784 0.00352516)
(0.0989317 -0.064003 -0.0803811)
(0.00680568 -0.12203 -0.0567446)
(0.0230141 -0.0940781 -0.0587969)
(-0.00251556 -0.112864 -0.0763932)
(0.00367543 -0.0497124 -0.0869216)
(0.000325072 -0.0608808 -0.0739927)
(-0.00121557 -0.0577227 -0.0933365)
(0.0142892 -0.0464613 -0.065503)
(-0.00326771 -0.0633308 -0.0748616)
(-0.000575733 -0.0528646 -0.0910843)
(0.0223196 -0.0285156 -0.0951172)
(-0.00828318 -0.0971057 -0.0749052)
(0.0148114 -0.092656 -0.102017)
(-0.00149731 -0.0861206 -0.0647248)
(0.0257873 -0.0898295 -0.117747)
(0.00630043 -0.0998571 -0.0965062)
(-0.000855658 -0.110725 -0.0956676)
(0.0206064 -0.0944069 -0.107103)
(0.00447708 -0.0699132 -0.14124)
(-0.000185517 -0.0926888 -0.127876)
(-0.00147841 -0.0786561 -0.132069)
(-0.000281132 -0.113411 -0.162103)
(-0.00486856 -0.113701 -0.15753)
(-0.0106521 -0.0840347 -0.160015)
(-0.00884711 -0.0975096 -0.15736)
(-0.0024958 -0.0809029 -0.138187)
(0.0040756 -0.0751009 -0.148864)
(-0.00410002 -0.0644732 -0.159031)
(0.00760103 -0.0677855 -0.15786)
(9.96183e-06 -0.0722482 -0.14659)
(0.00708805 -0.0702334 -0.14562)
(0.00184576 -0.0628113 -0.138948)
(0.00947668 -0.0692099 -0.152455)
(0.00526728 -0.0598554 -0.14514)
(0.0119582 -0.0616306 -0.155945)
(0.00067498 -0.0595194 -0.154409)
(0.00931662 -0.0939825 -0.140835)
(-0.0187353 -0.0830537 -0.135769)
(4.47779e-05 -0.0887756 -0.129507)
(0.0375399 -0.143592 -0.170828)
(-0.0162158 -0.155393 -0.201125)
(0.0325789 -0.152717 -0.181737)
(-0.00948904 -0.162989 -0.204805)
(-0.0245661 0.345896 -0.0122962)
(-0.00221407 0.284199 0.050509)
(0.00900235 0.337097 0.0501271)
(-0.014709 0.3122 -0.00928505)
(0.0594309 0.298125 0.0224261)
(0.0489369 0.348552 0.021308)
(-0.0477438 0.375149 -0.0602373)
(-4.70407e-05 0.397792 0.0302101)
(-0.00757435 0.373194 0.0532956)
(-0.00138893 0.39067 -0.0116164)
(0.00660034 0.388495 0.00601936)
(-0.0268261 0.336891 0.00732342)
(-0.0233532 0.325793 -0.045363)
(0.00395649 0.361556 -0.0443638)
(0.0128899 0.346312 -0.0336359)
(0.0136402 0.329799 -0.0374864)
(-0.00599003 0.320356 -0.0434763)
(-0.0228187 0.30758 -0.00987404)
(-0.0146581 0.289243 -0.0136967)
(0.00147514 0.212909 0.00019936)
(-0.00557615 0.254993 0.00785433)
(-0.00731911 0.247097 0.0127577)
(-0.00604486 0.275003 0.0262758)
(0.00790283 0.248283 0.0149865)
(0.000247382 0.265948 0.0139917)
(-0.00341812 0.27379 0.0226925)
(0.0165156 0.258872 0.00400949)
(-0.00291905 0.259846 -0.000603992)
(0.0204695 0.25231 0.00940044)
(-0.0119543 0.28486 0.0198477)
(-0.00648782 0.271575 0.0153168)
(0.00240316 0.250436 0.00569926)
(-0.000363324 0.264662 0.0072582)
(-0.0123122 0.232173 -0.00837017)
(-0.00281441 0.232042 -5.60664e-05)
(-0.00168434 0.224011 -0.0282413)
(0.00857506 0.241719 0.0159431)
(-0.0241028 0.245175 0.00229636)
(-0.000710459 0.23751 -0.000527086)
(0.0267043 0.238182 0.023978)
(0.00671544 0.127212 0.00452382)
(-0.00607307 0.216445 0.00159107)
(-0.0199215 0.22139 0.0205531)
(0.00924854 0.220642 -0.0193177)
(0.0071478 0.190186 0.00151576)
(0.000795464 0.242456 -0.00855841)
(-0.0160598 0.23709 0.0191877)
(-0.00304824 0.22361 -0.018898)
(0.0250774 0.243735 0.00554167)
(-0.00423181 0.244946 0.0119686)
(-0.00588168 0.225227 0.00294001)
(-0.0156417 0.22618 0.0192375)
(-0.000474629 0.236316 0.0150321)
(-0.0368888 0.24606 0.0434746)
(0.0138507 0.233938 0.00433442)
(-0.00271769 0.146489 -0.00110587)