/*--------------------------------*- C++ -*----------------------------------*\
| =========                 |                                                 |
| \\      /  F ield         | OpenFOAM: The Open Source CFD Toolbox           |
|  \\    /   O peration     | Version:  v2012                                 |
|   \\  /    A nd           | Website:  www.openfoam.com                      |
|    \\/     M anipulation  |                                                 |
\*---------------------------------------------------------------------------*/
FoamFile
{
    version     2.0;
    format      ascii;
    class       volScalarField;
    location    "0.15";
    object      alpha.water;
}
// * * * * * * * * * * * * * * * * * * * * * * * * * * * * * * * * * * * * * //

dimensions      [0 0 0 0 0 0 0];


internalField   nonuniform List<scalar> 
6576
(
1
1
1
1
1
1
1
1
1
1
1
1
1
1
1
1
1
1
1
1
1
1
1
1
1
1
1
1
1
1
1
1
1
1
1
1
1
1
1
1
1
1
1
0.939367
0.712889
0.980789
0.521451
0.978107
0.99998
0.98605
0.99998
0.99998
4.91149e-58
5.35932e-58
1.2283e-57
4.6935e-58
3.94968e-58
3.75939e-58
1.89386e-57
3.92586e-50
4.40393e-50
4.05803e-50
8.21981e-49
1.29728e-49
1.72809e-49
3.54542e-49
6.49157e-44
5.25182e-44
6.56145e-44
5.25182e-44
8.19268e-44
5.96802e-44
7.38789e-44
0.000769013
0.00109148
0.000193184
0.00110399
0.00062777
0.000345293
0.000199779
3.49513e-05
0.000247964
2.81912e-05
4.50862e-05
0.000114952
9.46191e-05
9.53104e-05
9.56449e-06
9.34313e-06
3.5698e-05
5.34883e-07
0.000164411
5.33471e-07
2.01734e-05
0.981478
0.974979
0.973882
0.839382
0.943969
0.998125
0.971
1
1
1
1
1
1
1
1
1
1
1
1
1
5.81423e-09
-1.10584e-118
9.45003e-10
-1.9292e-118
-4.3581e-118
2.22051e-10
-1.19929e-28
0.102245
0.788757
0.961089
0.966346
0.870459
0.999648
0.997478
-1.91804e-52
-3.76407e-52
-5.67816e-102
-3.0216e-17
-1.44453e-17
-1.98321e-17
-1.12565e-17
4.51891e-27
4.71298e-27
4.29298e-27
1.39256e-26
4.76254e-27
8.70567e-27
5.55917e-27
6.06194e-24
1.15527e-23
4.40057e-24
1.36864e-23
1.63239e-22
2.11877e-23
1.12231e-23
5.35202e-27
8.58997e-26
1.41255e-26
1.72001e-24
1.46187e-25
1.51505e-27
1.57838e-25
2.50974e-25
8.97099e-22
2.33484e-21
3.54313e-22
1.54338e-22
6.73826e-22
1.83942e-21
6.77274e-22
1.24563e-21
3.29742e-23
9.64375e-24
9.57241e-24
6.92636e-22
6.08049e-23
3.4084e-24
6.30992e-23
6.75893e-21
7.84337e-21
6.6064e-21
7.5356e-21
6.74426e-21
6.6064e-21
6.6064e-21
6.61401e-21
6.73665e-21
4.39769e-13
2.2572e-12
4.17852e-12
2.07599e-12
1.62359e-12
2.54479e-11
1.88814e-12
3.12294e-12
1.63092e-12
6.7664e-13
8.04784e-13
6.43754e-13
1.61576e-12
2.32704e-12
5.97643e-13
7.30959e-13
8.11183e-10
2.80733e-11
1.37343e-08
8.26311e-10
9.54912e-10
6.4339e-10
1.20887e-09
7.84511e-07
4.6002e-06
6.18572e-06
3.13215e-07
5.6354e-07
1.29587e-06
1.97655e-06
4.85411e-14
5.00875e-14
5.13875e-10
2.6109e-12
5.61932e-13
5.28431e-13
3.35782e-13
2.82138e-15
4.5497e-13
1.12802e-13
2.96113e-15
2.76807e-13
2.64367e-13
2.93399e-15
3.47345e-16
2.72474e-15
5.07788e-16
3.95206e-15
2.00482e-15
6.81436e-16
1.82956e-14
6.58449e-15
6.19996e-17
3.94951e-16
3.93467e-14
9.03819e-13
6.19996e-17
1.53911e-16
7.02343e-22
1.65229e-21
4.59196e-22
1.43203e-21
2.51498e-21
1.32472e-21
1.85395e-21
2.37643e-24
6.51768e-24
2.79124e-24
7.48232e-24
2.37663e-24
8.38136e-24
1.47998e-23
8.46969e-25
1.81259e-24
5.35822e-29
7.07216e-28
4.25566e-29
1.16239e-25
3.6432e-27
1.91219e-27
1.25119e-26
1.88234e-42
2.43997e-42
7.65396e-40
1.11994e-42
1.20907e-43
1.75783e-41
1.64009e-41
1
1
1
1
1
1
1
1
1
0.996418
0.996428
0.996428
0.994859
0.99667
0.986133
0.667723
0.00417492
0.00672527
0.00364681
0.00368806
0.00365768
0.00620786
0.0077785
0.00207379
0.00659381
0.991344
0.996679
0.978911
0.00164872
0.00138342
0.00135933
0.00140155
0.00140136
0.00138388
0.00182675
2.06179e-21
2.46353e-19
8.0527e-21
2.28877e-20
1.09505e-20
4.31275e-21
7.90317e-21
0.162175
0.0586743
0.00110304
0.0346456
0.000468861
0.0018295
0.00111466
0.000373895
0.000471012
1.21303e-14
1.75714e-14
9.96424e-14
4.44127e-15
6.44651e-15
4.44127e-15
3.22879e-14
0.000935666
0.000663313
0.00194834
0.00182894
0.00129401
0.00377382
0.00328091
0.00221332
0.00191263
0.00192707
0.00254598
0.00198781
0.00345614
0.00139142
0.0016019
0.00340265
0.000734968
0.121871
0.00476974
0.000734319
0.000822693
0.00362815
0.00541702
0.00174529
0.00108356
1
1
1
1
1
1
1
1
1
1
1
1
1
1
1
1
0.926262
0.797567
0.953918
0.986233
0.970408
0.920512
0.905089
0.00127792
0.00450672
0.00873889
0.00943312
0.0843544
0.0172993
0.0190613
2.52012e-12
4.04129e-12
1.6561e-11
6.08931e-12
6.46945e-12
4.09201e-12
4.93184e-12
5.00575e-11
3.88712e-12
1.24211e-09
3.54668e-09
2.56452e-09
6.81751e-09
8.1863e-09
2.81118e-08
4.93883e-09
9.75888e-07
1.01029e-05
6.2128e-08
7.56421e-06
7.53524e-05
1.41964e-06
1.9946e-07
1.91193e-07
4.7301e-07
0.0207759
0.058376
0.260493
0.0944184
0.01637
2.60402e-05
0.0247329
0.978205
0.978198
0.978205
0.964416
0.978198
0.97159
0.97811
3.01941e-35
2.57177e-30
2.92213e-33
3.01941e-35
5.24656e-37
1.23216e-33
1.44033e-32
2.83604e-39
1.15834e-34
9.31749e-37
2.83604e-39
1.84951e-39
2.29743e-40
4.18274e-37
5.64894e-41
3.40161e-41
3.40161e-41
1.31624e-40
1.742e-39
1.09597e-40
6.58082e-41
4.65306e-51
2.86519e-50
8.10975e-52
2.35681e-51
2.26941e-51
6.82072e-52
1.7787e-50
1.25444e-51
1.7228e-51
5.56625e-54
2.13557e-59
1.07192e-59
7.85839e-62
1.07192e-59
9.06264e-55
7.39766e-54
1.74045e-64
1.15883e-62
1.22759e-63
2.09258e-65
1.37218e-65
9.34729e-64
4.1207e-64
4.60863e-64
1.36959e-58
3.23673e-60
4.29013e-64
4.60863e-64
1.02697e-57
1.76994e-65
1.33919e-65
1.57506e-65
1.88203e-64
1.10683e-65
7.84643e-65
1.25897e-65
2.82439e-65
3.20158e-68
2.96249e-68
2.96249e-68
1.7627e-66
9.42155e-68
3.40017e-64
2.96249e-68
9.66743e-65
1.10683e-65
1.10683e-65
5.12351e-65
1.20391e-67
2.83449e-66
5.08645e-54
3.46456e-54
5.22471e-54
3.53196e-56
1.59865e-54
1.463e-52
3.45992e-53
1.29444e-57
9.00681e-58
1.14888e-57
3.46022e-57
3.46022e-57
1.14888e-57
1.821e-57
1.56591e-58
3.49841e-54
1.12784e-56
5.35881e-51
2.37741e-50
2.36298e-51
5.44312e-51
5.44312e-51
5.29152e-51
5.621e-51
6.8686e-51
2.57723e-51
1.56368e-49
5.621e-51
2.64783e-48
9.33154e-47
1.56715e-50
2.26358e-48
1.91281e-49
5.14313e-48
1.11628e-49
3.45666e-45
2.97871e-45
2.63928e-40
1.63304e-42
3.4567e-45
2.32505e-39
6.68436e-40
4.1737e-36
1.2053e-39
8.96949e-38
3.64336e-31
2.12848e-33
4.26513e-38
4.26513e-38
3.84392e-38
2.4314e-37
6.73531e-33
7.21072e-33
7.21072e-33
1.11404e-28
1.77536e-29
5.95096e-33
1.3985e-33
7.80825e-28
5.67987e-28
5.14519e-28
7.47779e-28
7.09193e-26
5.64723e-28
6.5645e-28
1.62501e-30
1.62501e-30
6.69804e-32
7.49056e-26
4.9936e-28
2.08244e-27
1.53546e-26
1.82749e-23
8.46969e-25
1.21374e-24
8.37553e-24
3.03602e-27
3.75409e-19
1.44202e-19
8.99776e-19
7.50952e-19
7.43791e-19
8.38262e-18
3.52646e-19
2.75306e-16
4.77438e-16
3.57363e-16
3.48005e-16
3.48005e-16
4.77301e-16
4.77438e-16
1.16946e-12
8.10483e-12
1.18668e-12
7.98064e-10
2.67062e-09
2.69661e-09
1.0131e-09
6.65584e-10
1.03469e-09
9.3658e-10
7.41496e-10
9.21539e-10
5.55233e-10
6.6508e-10
1.04398e-14
9.19453e-15
4.05428e-14
3.2937e-14
7.55888e-15
8.00165e-14
2.90575e-14
2.81483e-14
8.00144e-14
9.39323e-14
1.19574e-14
2.3816e-14
1.75656e-18
2.04903e-14
1.57707e-19
1.21499e-14
3.5514e-22
9.79213e-23
3.89452e-23
3.84315e-23
3.29285e-23
3.84315e-23
8.10949e-23
4.53875e-26
1.73807e-25
8.77719e-26
4.53875e-26
6.0031e-24
1.45594e-25
2.6855e-24
2.12083e-21
2.12083e-21
1.67364e-21
1.63658e-21
1.12964e-20
6.83294e-20
3.03398e-21
2.93919e-13
4.27825e-13
5.264e-13
3.18812e-13
6.88724e-13
1.23751e-12
6.82559e-13
9.09785e-08
3.62549e-10
1.40114e-10
5.01636e-10
1.38181e-10
3.75811e-09
3.35265e-10
7.84216e-09
4.61548e-10
1.60294e-11
8.63995e-11
6.93743e-11
4.07364e-11
2.92017e-11
2.92716e-11
2.93364e-11
5.24443e-11
6.61119e-11
2.96256e-05
9.32147e-05
4.25578e-07
4.25578e-07
4.33782e-07
2.84308e-06
8.54832e-06
4.2845e-07
1.08808e-06
2.10633e-07
5.56007e-07
1.44785e-05
6.59558e-07
8.83798e-06
1.8948e-06
5.18901e-07
0.000133996
0.00539653
0.000195451
0.00021292
0.000237501
0.000148077
0.00135934
0.00148604
0.00324712
0.00137591
0.00366301
0.00385296
0.00392224
0.00394038
0.00468708
0.00108886
0.0061364
0.00546115
0.00135354
0.00135354
0.00135354
0.00391542
0.00197942
0.00140208
0.00295719
0.00378757
0.00330435
0.0019931
0.00216968
0.0027545
0.000734471
0.061212
0.00468278
0.00303438
0.171048
0.00665716
0.00245801
0.00138514
0.997525
0.981154
0.973059
0.862668
0.859824
0.945131
0.936143
1
1
1
1
1
1
1
1
1
1
1
1
1
1
1
1
0.999978
0.999993
0.999519
1
1
1
1
1
1
1
1
1
1
0.999999
1
1
1
1
1
1
1
1
1
1
1
1
1
1
1
1
1
1
0.999439
0.989674
1
1
0.999999
0.998628
0.99976
0.927509
0.923808
0.429031
0.958485
0.970017
0.962866
0.97551
0.884019
0.888578
0.970556
0.983207
0.969997
0.84193
0.962456
6.56203e-05
6.49263e-05
0.000163961
0.000331238
0.000180278
0.0021546
0.000403364
7.47805e-05
8.82871e-06
9.6572e-06
1.56642e-05
8.89493e-06
1.28672e-05
2.37474e-05
0.00038184
0.000493997
0.000227622
0.000494437
0.00015557
0.000194248
0.00041017
1.21053e-05
4.0957e-06
2.49775e-05
5.71964e-07
4.69439e-05
5.71993e-07
2.86525e-05
0.000124521
2.1598e-06
2.50214e-07
7.20302e-09
1.61863e-06
1.32198e-05
1.68359e-06
2.09898e-05
1.16839e-05
7.23033e-09
1.13803e-07
0.000439405
6.94924e-05
2.18102e-05
0.000203366
2.72707e-05
1.405e-05
1.54136e-05
1.59439e-21
2.13464e-21
2.13464e-21
1.50119e-21
1.58424e-21
2.09491e-21
1.40516e-21
1.7115e-18
1.19825e-19
2.09816e-18
1.69362e-18
1.28337e-18
1.87095e-18
2.16115e-18
5.71196e-23
5.65508e-23
2.2817e-22
1.49201e-21
3.48195e-22
1.92538e-40
1.41766e-40
5.2481e-41
1.01456e-41
8.5057e-39
1.00687e-41
2.8418e-42
2.31422e-46
2.16896e-46
2.69295e-44
9.25284e-50
1.89297e-45
3.03033e-44
7.32559e-45
7.65588e-55
8.59162e-54
4.0392e-55
2.30202e-56
1.60605e-56
7.33343e-56
6.05883e-56
7.19147e-69
1.32403e-66
1.10177e-67
2.81544e-69
2.81544e-69
3.76677e-69
2.81544e-69
3.42175e-63
3.18335e-60
4.34161e-61
2.32816e-63
3.40562e-67
1.09106e-62
3.07176e-66
6.24803e-72
6.24803e-72
2.33156e-66
6.24803e-72
-5.80454e-72
-9.55996e-69
7.34287e-72
1.68636e-65
1.2143e-70
7.34287e-72
8.20719e-65
2.8417e-58
-5.87006e-66
4.46525e-62
2.31852e-62
2.36283e-62
8.46594e-62
3.14586e-62
2.36084e-62
1.40558e-62
4.26545e-62
1.43949e-65
6.56747e-65
1.37016e-65
7.56384e-55
2.12811e-54
1.16975e-52
3.14215e-55
3.94927e-55
1.75674e-55
1.68423e-57
4.15267e-50
8.74425e-51
1.25333e-50
1.42344e-50
1.25372e-50
4.01331e-51
3.32063e-51
5.96521e-45
3.763e-45
4.05396e-45
4.08116e-44
5.98765e-45
1.91814e-44
1.35677e-43
6.22867e-45
2.37804e-45
4.76784e-45
4.85011e-42
4.84361e-42
6.89561e-42
9.53043e-43
3.31203e-42
9.53043e-43
1.39311e-43
1.02214e-39
6.75222e-40
3.25373e-36
1.02214e-39
1.37835e-32
1.79026e-38
1.19447e-30
5.12326e-31
4.37878e-31
1.06076e-30
4.37103e-31
7.12501e-31
2.32636e-29
2.05194e-29
1.81115e-24
9.37845e-26
2.32637e-29
5.85207e-24
3.54111e-24
1.38913e-21
2.94797e-22
1.50983e-21
1.51e-22
4.23546e-23
1.51e-22
1.98417e-20
6.58311e-26
2.83651e-26
2.83651e-26
1.26946e-20
6.72899e-24
2.66138e-26
2.71499e-22
3.70122e-21
4.67957e-22
1.82906e-24
9.54896e-25
4.95236e-24
3.39374e-24
2.58365e-25
1.64565e-24
3.15787e-24
1.71329e-16
1.28197e-15
5.89765e-16
1.9968e-13
6.66697e-16
7.05111e-16
6.09344e-16
1.35732e-12
1.3622e-12
3.23427e-12
1.36157e-12
6.82583e-12
5.89749e-11
2.74632e-10
4.57373e-11
1.27733e-10
4.57373e-11
3.18412e-10
3.97065e-10
1.40707e-09
6.08157e-09
4.11764e-09
3.55486e-10
1.53193e-12
3.93926e-12
6.63113e-12
7.83939e-09
6.85463e-09
0.000299692
2.36687e-05
1.47885e-05
2.46926e-06
1.2427e-05
3.11309e-06
2.46324e-06
1.25615e-06
1.07418e-06
2.99465e-22
5.93505e-19
3.89485e-18
3.83629e-22
2.92238e-22
1.48092e-23
7.58717e-23
4.67833e-26
1.96335e-21
6.96961e-24
1.44161e-23
1.44161e-23
3.67782e-22
1.45058e-20
1.38092e-22
1.48956e-27
1.37881e-25
1.48957e-27
9.09919e-28
6.01607e-26
9.79547e-29
7.67398e-28
5.95735e-26
9.47706e-33
5.29078e-32
3.55418e-32
4.63739e-31
4.82274e-32
6.45617e-33
1.97914e-33
4.1025e-23
1.70999e-23
7.8535e-23
1.28558e-23
2.71319e-23
1.30561e-23
1.31332e-23
2.84957e-19
4.03359e-17
7.34703e-18
2.70376e-19
1.72571e-18
5.62928e-20
2.53363e-19
7.99388e-18
1.01765e-18
4.21351e-19
2.47124e-19
1.89359e-19
1.07673e-19
8.24313e-20
4.80384e-20
4.17583e-20
3.12179e-15
8.06056e-15
1.74968e-14
3.40629e-15
1.26919e-14
6.26679e-13
2.49547e-11
3.06412e-15
2.25702e-14
3.28082e-15
2.92017e-11
2.56181e-08
5.56125e-10
1.79037e-06
0.000126373
1.84483e-05
0.000442861
0.00365238
0.00368231
0.00376502
0.00127775
0.0028196
0.00186867
1
1
0.99999
1
1
1
0.999995
0.999766
0.997938
0.999996
1
1
0.999999
1
1
1
1
1
1
1
1
1
1
1
1
1
1
1
1
1
1
1
1
1
1
0.999992
0.869336
0.937796
0.972082
0.98491
0.9721
0.987273
0.936109
0.888839
0.798928
0.974158
0.981389
0.993568
0.951497
0.970783
0.0027962
0.0214948
0.017987
0.0355802
0.280908
0.0220114
0.0211067
0.000346175
0.000428351
0.000380211
0.00227985
0.000457961
0.000166527
0.000212646
0.0837946
0.00785271
0.185416
0.0230403
0.762847
0.0270795
0.0488355
0.738665
0.469787
0.715398
0.158912
0.369228
0.441373
0.188594
0.00085846
0.00469126
0.006083
0.0338478
0.0136948
0.00780736
0.0159766
0.000279224
0.000280424
0.000278905
0.000278921
0.000279072
0.000278905
0.000278921
3.54053e-05
0.000126438
4.49208e-05
0.000599182
0.000156012
3.70854e-06
2.72476e-05
1.86821e-27
5.65965e-27
2.71574e-27
1.26376e-27
1.43774e-27
4.67385e-27
3.04138e-27
9.22946e-39
1.07605e-38
5.86854e-38
6.55931e-39
8.28545e-39
1.8996e-38
8.99663e-39
3.96403e-41
1.85252e-42
1.85252e-42
2.70987e-42
1.42267e-41
2.31185e-42
3.4624e-42
7.89019e-46
1.815e-45
1.26021e-45
3.89887e-45
2.31366e-44
7.53596e-45
3.51053e-45
1.24882e-53
6.64207e-54
4.05144e-49
8.0001e-55
6.64207e-54
5.6093e-52
3.77165e-52
1.73701e-53
1.8433e-53
3.88709e-53
2.81164e-53
5.76097e-53
1.28982e-49
4.20847e-53
5.74075e-53
5.22342e-53
6.37725e-58
1.27274e-55
7.91327e-57
1.84923e-58
1.47762e-58
2.43095e-58
2.06541e-57
1.81591e-56
6.78842e-55
2.23967e-56
1.08165e-56
3.1775e-55
7.4292e-57
5.31146e-58
1.93047e-62
3.24863e-62
5.27413e-62
7.70477e-63
7.05946e-63
6.87725e-63
7.02791e-63
2.78556e-66
3.0947e-66
1.03568e-65
1.49154e-63
5.54616e-66
3.70321e-66
2.78948e-66
1.402e-62
4.40914e-59
6.16442e-62
2.81662e-66
6.4819e-66
2.78082e-66
1.49611e-69
7.67941e-67
2.99046e-69
9.56565e-57
1.75242e-56
1.88734e-56
1.50333e-56
1.45969e-57
2.44933e-56
5.90561e-57
1.64708e-50
2.75007e-55
7.3044e-51
2.70315e-50
1.70528e-50
3.96142e-52
3.90697e-52
1.3289e-51
3.15793e-51
7.40525e-51
4.05286e-52
3.83876e-52
5.93304e-48
1.62547e-47
5.36414e-50
1.15059e-47
1.15059e-47
2.39194e-46
2.12538e-44
1.0127e-47
3.90477e-47
6.7803e-48
5.23887e-47
6.66703e-47
1.56111e-46
1.33878e-47
4.23977e-37
4.65548e-38
4.26513e-38
4.54322e-37
2.1192e-36
8.21518e-30
3.80125e-29
7.33674e-35
9.96144e-35
7.33674e-35
5.16017e-34
7.21513e-35
2.23958e-36
4.7198e-37
2.23958e-36
1.41421e-33
1.41421e-33
1.33336e-34
4.09452e-31
1.0512e-28
1.07411e-28
3.37133e-27
7.66489e-29
9.40515e-29
5.03364e-28
9.40515e-29
3.36112e-29
3.04766e-29
1.69112e-29
2.65138e-23
2.65786e-23
2.92116e-23
2.65964e-23
2.67142e-23
2.8915e-23
6.31817e-23
3.53139e-24
5.75338e-22
1.16262e-22
9.97649e-18
3.91252e-16
9.39541e-18
4.90564e-20
9.78592e-20
9.69225e-19
1.21085e-19
4.1777e-20
4.1777e-20
5.93052e-17
4.1777e-20
4.90564e-20
7.77181e-16
5.26204e-16
4.74309e-20
4.91468e-20
2.97568e-19
1.03277e-15
9.25218e-16
2.21256e-13
3.61224e-13
1.03277e-15
4.80882e-12
1.40081e-13
1.14055e-14
7.62718e-14
1.27892e-14
5.90417e-14
5.37062e-14
1.47744e-13
1.94336e-11
3.00942e-10
2.37526e-10
2.85193e-10
2.33078e-10
1.98589e-10
5.67021e-10
8.26261e-09
6.7002e-11
6.7002e-11
3.59339e-12
2.42976e-12
3.59339e-12
5.87598e-09
1.62578e-08
7.35411e-05
6.17652e-05
6.27026e-05
3.05607e-05
3.75238e-05
6.13037e-05
0.000109036
0.00152595
0.000953806
0.00148348
6.61952e-05
0.000106318
0.000668127
0.000343393
0.000150179
1.12454e-05
9.41694e-06
1.17704e-05
4.44886e-05
0.000651281
4.34387e-05
8.09069e-07
3.45651e-08
1.31011e-05
3.2655e-08
5.19333e-08
8.40525e-08
5.90427e-08
9.10584e-08
1.04843e-07
1.25961e-07
1.42618e-07
1.07358e-07
1.52417e-06
2.59979e-07
3.37499e-08
1.55985e-09
2.37567e-13
5.46738e-13
2.23073e-12
2.68901e-15
9.11576e-13
2.28241e-14
1.16225e-13
2.01129e-22
3.70401e-22
2.2877e-23
1.9836e-23
2.80638e-23
2.2877e-23
8.79609e-23
8.79609e-23
2.3226e-21
4.57464e-26
5.88419e-26
3.09019e-24
6.33664e-25
3.44001e-28
1.47486e-24
6.45449e-25
4.1729e-25
4.46193e-25
4.30682e-26
1.96795e-22
2.27864e-20
1.1728e-26
8.95947e-23
2.77265e-26
1.17098e-21
1.46365e-37
5.92309e-37
4.98427e-37
1.45663e-37
1.35879e-37
1.1916e-36
1.59017e-37
6.29431e-37
7.84746e-37
4.92469e-37
2.96923e-36
6.06891e-37
5.21931e-37
7.19304e-36
2.84831e-31
3.7091e-31
6.91508e-31
5.70709e-32
1.63866e-31
3.81817e-31
9.07609e-32
1.17754e-34
5.45983e-33
3.23708e-34
2.60305e-33
1.87473e-33
3.60159e-34
3.60159e-34
3.21955e-31
7.05152e-31
1.73674e-30
8.03213e-31
4.25982e-30
2.89773e-31
6.98197e-31
3.06195e-27
3.06195e-27
3.06195e-27
1.81446e-26
9.10669e-26
4.3292e-27
1.90135e-25
1.07223e-30
5.52215e-31
1.4803e-30
2.71999e-31
2.78185e-31
4.34083e-31
2.78175e-31
4.47301e-27
3.17631e-27
1.28547e-24
1.72308e-26
3.37382e-23
6.67307e-26
6.18695e-20
1.38095e-21
1.57961e-23
5.49294e-23
1.1993e-20
2.371e-22
5.56964e-21
4.82718e-22
2.17734e-20
1.36709e-23
3.39129e-16
4.7976e-18
8.24313e-20
0.0544759
0.00103801
0.241672
7.97432e-05
0.000146511
0.0216846
0.0319627
1
1
1
1
1
1
1
1
1
1
1
1
1
1
1
1
1
1
1
1
0.985003
0.998068
0.990455
0.962674
0.997251
0.997198
0.770975
0.956704
0.979187
0.678737
0.973551
0.994618
0.979292
0.403538
0.000112282
0.000739939
0.00011814
0.000127513
0.000106878
0.000132245
0.00012113
0.563649
0.522927
0.188738
0.884982
0.64178
0.167286
0.289185
0.56164
0.63753
0.000177471
0.000158621
0.00017834
0.752927
0.403411
0.758429
0.422022
0.0001336
0.000381005
0.00017149
0.000130238
0.000134182
0.000295834
0.000295598
0.000130314
0.000128665
0.000638443
0.000118955
1.76056e-06
6.31054e-07
1.31534e-05
2.42771e-06
6.68919e-07
1.72672e-06
6.31054e-07
2.9623e-05
1.42989e-06
2.48853e-09
2.91196e-07
9.70752e-07
1.80623e-08
9.48374e-10
5.23409e-42
1.95418e-41
3.35009e-42
1.06187e-38
2.37758e-38
1.11422e-42
3.04249e-42
1.09832e-42
3.0349e-43
2.67616e-43
1.58894e-42
4.92147e-42
6.58476e-44
1.95055e-43
3.55239e-54
2.62998e-53
4.82051e-54
1.67121e-53
4.63738e-52
4.46219e-53
4.31989e-54
1.30158e-57
1.19319e-57
1.30158e-57
1.19319e-57
5.87704e-57
9.62492e-57
1.95581e-55
1.55573e-53
1.55573e-53
1.17011e-53
1.18693e-52
2.17459e-52
1.19319e-57
7.59988e-55
1.19319e-57
6.08887e-54
3.79584e-55
2.5828e-51
2.29237e-53
4.01451e-51
8.17493e-53
8.17493e-53
5.14745e-55
2.75904e-54
4.47401e-54
3.17772e-54
4.45097e-55
2.58354e-58
1.47263e-58
5.23131e-58
5.98467e-53
6.50054e-53
1.01055e-49
3.8505e-52
7.1712e-53
3.14786e-47
4.46403e-49
3.14786e-47
9.81705e-45
1.00586e-43
2.50241e-44
1.79247e-45
8.6138e-50
9.25816e-50
7.98671e-50
6.60568e-50
3.91333e-50
1.611e-49
2.01104e-49
9.37469e-46
4.83966e-44
7.39484e-46
7.14769e-43
3.25398e-44
1.95327e-47
4.10925e-46
3.86804e-45
2.44978e-45
2.44978e-45
2.44978e-45
3.92971e-45
2.05812e-45
1.48946e-45
3.20185e-34
8.18693e-34
1.65749e-33
4.8394e-33
6.91008e-33
1.8925e-32
1.73593e-33
1.03025e-18
7.37503e-19
7.37503e-19
2.27099e-14
8.91253e-19
9.27486e-19
7.37503e-19
8.03252e-16
2.30138e-15
1.10646e-14
3.86423e-11
5.15479e-11
5.61252e-11
6.40044e-11
7.12174e-11
1.05232e-10
2.71509e-09
5.0741e-12
1.91385e-10
1.12243e-10
2.03778e-07
2.24019e-07
1.79987e-06
8.59561e-07
2.50646e-06
5.07852e-06
3.85097e-06
1.70459e-07
2.04735e-07
1.6417e-06
1.75017e-07
9.46335e-07
1.58638e-06
3.74992e-06
5.09137e-06
2.42929e-07
-5.56396e-17
-4.80912e-17
-5.4707e-17
1.27005e-06
1.02936e-07
5.9235e-07
1.68465e-06
1.28905e-07
3.25524e-07
3.74447e-07
0.183652
0.739712
0.999641
0.999641
0.999648
0.999641
0.999599
3.81976e-09
3.62106e-09
3.81976e-09
3.81976e-09
0.000680988
6.99988e-09
0.0950509
0.00112717
0.0224203
3.79078e-05
0.000966284
0.000961442
0.183948
0.00129307
7.9067e-11
8.58391e-11
7.82307e-10
5.70154e-10
4.06232e-10
7.09758e-11
5.03651e-11
0.000126085
3.99911e-06
0.000224203
1.2726e-05
8.70657e-08
9.40574e-05
0.000625866
4.20829e-08
5.88858e-07
9.24388e-07
4.58249e-08
8.00346e-08
6.73069e-07
5.44433e-08
6.77908e-13
6.74965e-13
2.27343e-12
4.0006e-12
2.26282e-12
6.98267e-13
1.79055e-12
2.50121e-12
2.38094e-17
6.56794e-11
1.21007e-11
6.47301e-12
1.49611e-12
6.27487e-12
5.27581e-13
1.31738e-12
5.44323e-15
6.22807e-14
1.03473e-14
5.40533e-15
9.17456e-15
5.2377e-15
1.63272e-15
4.01578e-24
3.56201e-21
5.12118e-24
3.52697e-20
8.55249e-23
9.94787e-24
9.94787e-24
3.85627e-29
1.02913e-28
4.61309e-29
1.58403e-29
2.08139e-29
1.97436e-29
7.03267e-29
3.25434e-42
2.07397e-41
3.5083e-41
2.9868e-41
1.35136e-40
1.01308e-41
2.39175e-41
2.07576e-42
8.36179e-43
3.61845e-42
2.63956e-42
6.29041e-43
6.30059e-43
7.06838e-43
3.51241e-37
2.15072e-37
4.85617e-40
7.1055e-42
4.89028e-38
5.4746e-38
7.89831e-40
1.32677e-40
4.01529e-41
1.19745e-38
7.1055e-42
7.10382e-42
7.1055e-42
7.53305e-42
7.3699e-42
3.6917e-41
1.71118e-38
7.91792e-39
8.50728e-39
2.35666e-38
7.91792e-39
2.15836e-36
3.94843e-38
7.91792e-39
8.56583e-39
7.91792e-39
3.45189e-35
3.45189e-35
2.95541e-35
6.88813e-35
2.86286e-35
1.93243e-35
1.93263e-35
8.03213e-31
3.90868e-29
2.38632e-29
5.52338e-29
3.98551e-27
1.61772e-30
3.16656e-28
4.77274e-35
2.96712e-32
2.33363e-34
5.41612e-31
6.16006e-30
1.79669e-30
2.60231e-26
2.06634e-26
7.91993e-26
1.75663e-26
1.69539e-26
1.75847e-26
2.54802e-25
0.0013463
0.00107275
0.000165332
0.000154113
0.000182608
0.000419457
0.000605938
0.00477081
0.0081908
0.00106897
0.00106897
0.00110991
0.0177949
0.00518844
0.995142
0.968647
0.96796
0.798494
0.804869
0.898766
0.970662
1
1
0.999637
1
1
1
1
1
1
1
1
1
1
1
1
1
1
1
1
1
1.63226e-34
1.04321e-37
1.0146e-39
2.41727e-34
4.23129e-35
1.0146e-39
2.88173e-41
1.85822e-41
3.18164e-43
2.55625e-43
3.67805e-40
2.2045e-42
1.57546e-43
4.9629e-44
5.20237e-46
2.4935e-47
4.81308e-44
1.64117e-47
1.64117e-47
3.87608e-43
5.33621e-44
6.27876e-47
1.11028e-46
1.43264e-47
1.20833e-46
1.12671e-46
1.39082e-45
1.64183e-47
2.40989e-49
7.23968e-49
5.4599e-49
1.70677e-45
5.2265e-48
2.28847e-48
2.38064e-48
2.47852e-48
2.28606e-49
2.87294e-49
8.69363e-48
1.09872e-47
2.82474e-45
1.67082e-48
5.54305e-48
3.82458e-45
3.91716e-44
4.5215e-44
7.98705e-43
1.92648e-39
4.5215e-44
3.08272e-45
1.83827e-39
1.77394e-38
5.14277e-39
5.14277e-39
5.54601e-39
7.39244e-39
1.16374e-38
1.06065e-37
1.27599e-38
1.24256e-33
1.37183e-33
7.76929e-34
8.0829e-34
9.38263e-35
5.60457e-32
6.13444e-34
1.15966e-11
3.12675e-11
2.04946e-15
2.08238e-11
2.82187e-11
1.86705e-15
1.90675e-12
4.2268e-12
4.15113e-16
1.07477e-12
6.96607e-12
4.15819e-12
1.17786e-12
1.08963e-12
7.71737e-10
4.2074e-09
7.66862e-10
6.88765e-09
4.58702e-11
2.0693e-07
2.08132e-07
3.48236e-07
5.01434e-07
1.08681e-06
1.13469e-07
3.14795e-08
0.570566
0.574347
0.995395
0.806857
0.60985
0.0501343
0.871952
4.2168e-05
5.28369e-05
0.000383317
0.000104465
3.92941e-05
3.79078e-05
0.000111042
4.12091e-05
2.35098e-05
2.31066e-05
8.55e-05
1.77552e-05
2.19759e-05
8.99439e-05
4.64153e-11
-3.98506e-31
5.50325e-29
5.73927e-09
-3.38454e-31
3.67036e-09
-1.55248e-29
6.57337e-09
-1.21857e-31
4.13009e-09
1.16844e-08
-1.9104e-57
6.53059e-09
4.34413e-07
4.35253e-07
6.75189e-06
6.24949e-07
3.56476e-05
9.23413e-06
6.72596e-11
1.56255e-09
6.85251e-10
2.15394e-09
2.1552e-09
2.15457e-09
2.22722e-10
1.62616e-13
1.12595e-13
4.11318e-13
3.39146e-13
2.29226e-13
2.68339e-13
4.11547e-13
4.297e-24
1.88674e-23
4.29828e-24
1.42277e-27
9.06826e-24
5.46468e-24
3.78052e-28
1.55673e-29
1.69642e-29
1.69642e-29
2.03634e-29
1.53651e-29
3.0506e-29
5.14024e-29
1.1477e-34
1.01031e-34
6.5834e-35
1.73768e-35
2.49493e-35
4.74869e-35
6.31285e-35
2.77315e-35
6.81562e-41
7.38577e-38
2.65823e-42
4.60074e-38
3.54545e-41
1.48048e-37
6.81562e-41
6.81562e-41
2.56753e-48
2.43393e-48
2.23364e-48
2.14749e-47
4.48542e-47
4.67263e-47
9.02196e-49
3.39471e-49
7.30153e-46
1.52708e-48
8.11008e-48
1.20563e-49
1.61656e-46
1.29265e-49
1.45253e-47
5.79906e-46
8.51097e-45
4.45756e-49
2.14231e-49
4.52268e-49
7.72883e-50
1.24369e-48
7.37895e-50
1.66524e-49
9.0387e-42
3.02734e-43
4.49018e-43
7.17927e-46
6.92298e-46
2.25495e-46
4.92801e-41
7.7825e-43
2.02368e-39
3.6336e-39
2.26619e-40
1.44818e-42
1.36447e-42
1.44818e-42
2.06735e-38
8.02306e-43
6.09516e-40
7.3699e-42
2.11855e-39
2.11531e-36
1.6126e-37
5.35121e-37
1.56408e-36
2.23605e-37
5.42052e-35
7.26058e-36
5.90472e-27
1.00606e-24
1.26913e-26
1.71346e-27
5.28847e-27
2.40494e-27
5.12969e-27
4.84911e-06
5.81662e-06
1.41637e-06
7.23457e-09
2.11503e-05
0.000521927
0.000405252
0.000521927
0.000521927
0.000413394
2.63359e-05
0.000301623
2.96425e-06
2.0026e-06
2.01281e-06
2.88447e-06
1.08763e-05
2.71934e-06
9.67533e-06
5.72557e-07
7.70341e-05
0.00025611
5.71616e-07
5.29665e-06
7.38309e-05
6.37208e-05
9.90262e-05
6.76625e-05
0.00063474
6.58609e-05
0.000196228
0.00423157
0.010703
0.000343606
0.00015802
0.000159299
0.00471375
0.0028906
0.0399637
0.0416127
0.041769
0.0390436
0.0297285
0.0415842
0.0404036
1
1
1
1
1
1
1
1
1
1
1
1
1
1
1
1
1
1
1
1
1
1
1
1
1
1
9.39684e-41
9.39684e-41
8.34256e-41
5.83267e-41
6.17234e-41
3.02017e-40
1.30834e-39
1.21159e-40
7.18351e-36
2.6888e-39
3.99809e-40
1.09996e-40
5.5744e-40
4.00955e-39
1.26856e-38
7.23615e-40
7.23615e-40
1.58516e-24
5.75758e-24
7.87843e-24
1.05072e-23
9.32403e-24
1.11108e-22
5.63643e-24
1.65662e-27
1.98526e-27
1.98526e-27
1.65662e-27
1.65662e-27
2.68484e-25
1.12801e-24
1.78207e-07
5.15177e-07
1.3313e-07
2.17525e-08
2.07908e-08
2.05616e-08
2.06914e-08
1.57121e-08
4.66429e-06
1.80181e-08
5.23491e-05
4.09213e-05
1.77801e-05
1.2444e-05
3.10709e-05
1.48632e-05
1.48789e-05
1.49027e-05
2.583e-05
8.54151e-05
1.55109e-05
2.54279e-05
2.37022e-06
4.30337e-06
1.12488e-05
5.98093e-06
1.49638e-06
1.56305e-06
0.000241746
2.62995e-05
2.50884e-05
0.000103358
0.000105366
8.88126e-05
0.000214386
0.000242973
0.000197982
0.000210261
0.000161378
0.000152469
1.83736e-08
2.31785e-05
1.83736e-08
1.36716e-08
3.48232e-05
5.26652e-05
2.87975e-06
1.73505e-05
1.25393e-05
5.01333e-05
1.03846e-05
9.73826e-10
1.71033e-11
1.83502e-09
1.10192e-13
5.47183e-10
1.57845e-09
1.10104e-13
3.26516e-10
6.70574e-11
6.70574e-11
4.02299e-15
3.6796e-15
2.86086e-14
3.58249e-15
3.62092e-15
4.93393e-15
2.6731e-14
2.92847e-10
3.57919e-15
3.5792e-15
8.98499e-21
8.61678e-20
7.0892e-17
9.2812e-18
5.92568e-16
1.13796e-20
2.68842e-21
3.99508e-21
2.68842e-21
5.1163e-21
5.1163e-21
2.77105e-21
2.69014e-21
6.80156e-37
6.9373e-37
2.42806e-36
6.9373e-37
7.54547e-37
1.95793e-36
1.38024e-36
1.27936e-36
6.70056e-37
1.95746e-49
2.21262e-46
2.29452e-43
1.04356e-52
1.00842e-46
1.95746e-49
1.51477e-49
6.65218e-52
6.65218e-52
5.8891e-52
3.69963e-51
1.2805e-51
1.20735e-51
5.73949e-52
1.70014e-62
1.70014e-62
1.70014e-62
2.45613e-61
9.22096e-62
2.38901e-61
1.70014e-62
1.10217e-58
6.17176e-58
4.00688e-58
7.29453e-58
1.28492e-58
1.3828e-57
1.11826e-54
1.03563e-58
9.01892e-58
1.10217e-58
2.5865e-53
7.75195e-51
3.76328e-53
9.86354e-52
1.94172e-53
1.24587e-53
2.40123e-48
2.08566e-49
2.48356e-48
1.0331e-40
1.12048e-40
2.83585e-40
1.86928e-40
1.38228e-40
1.2857e-39
4.20565e-40
1.44063e-27
9.81633e-28
2.0836e-27
1.44063e-27
1.91802e-27
9.64512e-27
1.37742e-26
1.61727e-24
1.34634e-22
8.0098e-25
3.42703e-25
1.87094e-23
9.09878e-25
1.02654e-25
1.5652e-20
7.10487e-21
8.02851e-21
2.71848e-19
1.50591e-20
6.66615e-21
9.31812e-21
3.04535e-18
8.58034e-19
1.07062e-18
7.991e-19
7.50235e-19
5.91531e-18
7.95815e-19
1.47459e-11
6.85817e-12
3.7169e-10
4.76661e-12
3.2929e-12
4.35572e-12
4.59237e-12
6.23387e-11
6.63177e-11
1.74384e-10
2.45596e-10
7.41898e-11
1.38728e-10
1.52373e-10
4.59552e-11
1.73164e-11
5.2476e-12
4.84313e-12
5.08556e-12
1.36913e-08
1.40083e-08
1.24471e-08
1.65377e-08
1.65377e-08
1.49047e-08
3.97676e-08
3.9323e-07
2.11668e-08
3.16262e-07
1.54216e-08
1.85661e-08
1.72004e-07
1.18714e-08
6.43516e-07
1.17039e-06
3.59095e-06
6.99896e-07
5.69059e-07
3.46056e-07
7.77148e-07
1
1
1
1
1
1
1
1
0.999999
1
1
1
1
1
1
1
1
1
1
1
1
1
1
1
1
1
1.75245e-25
1.62546e-25
1.90002e-25
2.07966e-26
7.69444e-24
8.10236e-26
4.31869e-25
8.5345e-31
1.21859e-30
1.03245e-30
6.1846e-31
8.5345e-31
1.2468e-31
7.10973e-31
2.57401e-36
3.3716e-36
3.06896e-36
2.43006e-33
1.74176e-34
2.57401e-36
3.42554e-36
8.5345e-31
1.13988e-27
1.57026e-27
5.82737e-37
1.63452e-34
2.21558e-36
1.82493e-39
5.80483e-36
1.03229e-39
1.03229e-39
1.03229e-39
7.31643e-39
1.9258e-39
4.86755e-32
3.06801e-32
1.05369e-33
7.94533e-34
1.09945e-33
1.29758e-32
1.28673e-33
4.94784e-31
5.09794e-32
0.000432627
0.000432898
0.000432627
0.00042345
0.000100709
0.000432577
0.000267629
0.000364132
0.000462144
0.000339252
0.000340122
0.000340122
0.000340122
0.000339252
6.17554e-16
1.13428e-19
1.38947e-15
1.85393e-17
1.87325e-17
8.78367e-17
1.93419e-17
2.68842e-21
2.69947e-21
2.68995e-21
3.13542e-26
3.13542e-26
3.13542e-26
7.00538e-26
9.63376e-26
2.15577e-25
1.05294e-25
1.39957e-28
4.18285e-28
1.22497e-27
1.3551e-27
5.60333e-27
1.39957e-28
1.39957e-28
2.58289e-28
1.39957e-28
1.63845e-21
1.50943e-28
1.39957e-28
2.19823e-29
5.37131e-29
3.16953e-29
1.25439e-33
4.10278e-33
9.46207e-29
4.35262e-29
4.03555e-29
3.17576e-29
9.54048e-29
3.58944e-36
2.90015e-34
5.02457e-34
1.37116e-33
1.26343e-33
2.6663e-34
6.25799e-40
9.66752e-40
6.0445e-40
9.08884e-40
9.63941e-40
8.74519e-40
4.00904e-40
3.57483e-49
1.97959e-49
3.00611e-49
3.1529e-49
4.13011e-48
2.08885e-48
5.77945e-49
1.16665e-57
2.82178e-56
8.66213e-58
1.84023e-57
5.38327e-58
4.79451e-58
8.7463e-62
8.76475e-62
8.7463e-62
9.31912e-56
4.29735e-58
9.01205e-62
4.49505e-57
4.1619e-56
8.90505e-62
1.89618e-62
3.04449e-60
2.14208e-44
7.95513e-45
3.31224e-46
1.84574e-45
5.17125e-41
1.84574e-45
3.68793e-46
3.34093e-46
6.29255e-47
7.70598e-52
2.42191e-52
7.70598e-52
2.04168e-46
5.3645e-46
2.94773e-47
5.21082e-47
2.78645e-47
8.57302e-48
4.79796e-48
1.05422e-47
6.82576e-48
5.82e-47
5.80961e-47
5.82e-47
6.08361e-46
1.49743e-45
8.89236e-44
2.13489e-43
5.20687e-44
5.42071e-44
2.36517e-43
2.58054e-41
1.02038e-43
8.94895e-44
5.82634e-44
8.0137e-34
1.26817e-33
1.09843e-33
7.98283e-34
5.13754e-33
1.42083e-33
4.07549e-33
1.23093e-35
2.4353e-35
2.69191e-35
2.84767e-33
4.86621e-36
7.87352e-36
2.79734e-34
1.25639e-26
1.70986e-23
3.10373e-26
3.1994e-26
1.06173e-26
1.09553e-26
1.25639e-26
1.88987e-30
2.99598e-28
3.69163e-30
1.32444e-30
9.53875e-29
2.93671e-31