/*--------------------------------*- C++ -*----------------------------------*\
| =========                 |                                                 |
| \\      /  F ield         | OpenFOAM: The Open Source CFD Toolbox           |
|  \\    /   O peration     | Version:  v2012                                 |
|   \\  /    A nd           | Website:  www.openfoam.com                      |
|    \\/     M anipulation  |                                                 |
\*---------------------------------------------------------------------------*/
FoamFile
{
    version     2.0;
    format      ascii;
    class       surfaceScalarField;
    location    "0.15";
    object      alphaPhi0.water;
}
// * * * * * * * * * * * * * * * * * * * * * * * * * * * * * * * * * * * * * //

dimensions      [0 3 -1 0 0 0 0];
oriented        oriented;


internalField   nonuniform List<scalar> 
13152
(
9.02441e-07
2.01998e-05
-1.47107e-06
-1.96311e-05
1.86144e-05
-1.71465e-05
-5.65475e-07
-3.48406e-06
4.22983e-05
-3.46754e-05
3.53483e-05
-2.14399e-06
2.11911e-05
-7.54976e-05
2.84888e-05
-2.44442e-05
6.0353e-05
-1.61443e-05
-2.96119e-05
-2.84056e-05
7.41618e-05
3.84194e-07
-1.68428e-05
3.1435e-07
-2.99036e-05
6.75915e-07
7.86878e-06
5.16842e-06
-2.988e-05
7.84973e-06
3.33399e-07
-5.07461e-06
-1.54813e-05
-2.98098e-05
-8.64595e-06
-1.47125e-05
-5.1484e-06
2.85069e-05
-6.36259e-08
-8.65688e-06
7.45616e-08
-1.42237e-05
-5.52454e-07
5.64196e-06
-3.05615e-05
1.62627e-05
-2.94652e-05
2.99587e-05
2.93766e-05
-6.41001e-07
2.74324e-08
-1.51753e-05
-2.98902e-05
1.07847e-07
-7.49456e-05
3.11868e-07
1.60254e-05
3.02828e-05
-1.21781e-08
7.4815e-05
3.58348e-05
1.26677e-05
2.53589e-05
-7.38613e-05
3.09029e-07
-6.28467e-07
3.61542e-05
1.24113e-05
2.86172e-07
-1.8774e-05
7.34835e-05
7.77333e-05
2.89791e-05
-7.37605e-07
-2.93106e-05
1.06905e-06
-1.63291e-05
-2.68393e-05
7.21475e-05
2.01725e-07
-1.72684e-05
-8.07692e-06
7.98949e-06
2.89153e-07
5.27966e-06
-3.0625e-05
-4.93851e-06
-1.39113e-05
-2.89694e-05
-1.37757e-05
1.53486e-07
2.90828e-05
2.66889e-07
-5.06425e-07
1.29214e-07
-1.91381e-06
2.41619e-06
-6.01213e-07
-2.91958e-07
3.6597e-07
-6.52632e-07
1.19095e-07
1.43933e-06
-1.37131e-06
-4.06126e-07
-5.23735e-07
3.10922e-08
9.24321e-08
-4.34395e-07
-3.10651e-07
-1.89814e-07
3.99464e-07
-1.05189e-07
-1.45591e-06
-1.0633e-06
-5.54631e-64
4.50044e-63
-1.12896e-63
-3.49611e-63
1.76131e-62
-1.20558e-62
-7.11672e-63
-8.24655e-63
-2.0303e-62
1.77342e-63
2.85142e-63
-1.74539e-62
3.54686e-65
-5.54677e-65
-1.02848e-62
1.01206e-65
-3.32644e-62
-1.13319e-55
-1.94706e-55
-1.00909e-55
2.74866e-55
-5.60885e-57
-3.40803e-55
5.46231e-57
-8.59883e-55
-9.64101e-57
3.05109e-54
3.35906e-54
-1.61972e-53
1.18539e-54
-1.3974e-56
-1.24455e-54
1.54764e-54
5.88924e-56
3.7947e-49
3.67641e-49
3.7913e-49
-2.24763e-49
-3.36458e-51
2.98293e-49
8.30153e-50
3.47277e-49
4.19763e-51
2.85136e-51
2.8696e-49
6.9562e-51
4.67304e-49
1.70986e-50
-4.08982e-49
9.82067e-49
1.56282e-50
-3.82128e-08
-8.51592e-09
-4.90001e-09
5.24634e-08
-1.56937e-09
-1.77536e-08
-1.14586e-08
-1.47655e-09
-1.11709e-08
4.38445e-08
-3.70196e-09
-5.2743e-08
1.10582e-08
2.60907e-08
-1.51927e-08
8.35287e-09
-3.24543e-08
-2.32577e-09
-2.92097e-10
1.21059e-09
1.45956e-09
2.03843e-09
1.49068e-09
-6.51213e-09
1.88861e-09
-2.75903e-10
2.09249e-11
-1.39271e-09
2.98639e-09
3.29921e-09
-2.44018e-10
-1.62928e-09
7.18467e-09
-2.95605e-10
-4.693e-11
-7.27884e-11
-2.67588e-11
1.88295e-10
6.31186e-11
-2.16412e-11
-3.07993e-12
-2.63275e-11
1.35888e-10
5.15334e-11
1.38065e-12
-8.01036e-11
4.11064e-11
4.93062e-10
-8.70106e-12
-1.23703e-11
1.68362e-10
-8.67752e-07
-6.95502e-08
5.54195e-07
3.93613e-07
1.13621e-06
-6.5884e-07
-1.37581e-06
-7.70567e-07
1.81762e-06
-8.30247e-07
3.19844e-07
-5.51543e-08
-6.87258e-07
-1.52094e-06
-2.35708e-07
-1.22387e-06
6.26844e-07
4.83903e-08
-2.18649e-08
-6.83935e-08
4.18681e-08
-1.87482e-07
-1.01474e-08
2.4602e-07
-9.24287e-09
-2.00104e-07
-5.83287e-08
-1.91438e-07
2.39619e-07
-2.65154e-07
1.38432e-07
-2.73828e-07
7.31471e-08
-7.39086e-07
-7.95138e-08
1.7043e-09
-2.35284e-07
3.13094e-07
-1.08747e-08
2.9886e-08
-9.85251e-08
1.63903e-08
-2.55607e-08
-2.27276e-07
2.1878e-08
4.73517e-07
-6.84403e-07
3.49432e-07
4.15311e-123
6.38008e-14
2.8355e-15
-5.20167e-14
-6.55944e-123
-3.80945e-123
-6.138e-123
4.09017e-15
5.10111e-14
-7.18102e-124
-2.38445e-123
-3.54327e-123
-8.50769e-123
-1.73043e-122
-2.67851e-15
6.08504e-15
1.56989e-16
1.28107e-05
3.61067e-07
-1.42526e-05
-2.74278e-07
-2.34285e-05
-2.7172e-05
6.23723e-05
1.44431e-07
-2.31408e-05
-2.64841e-05
2.63747e-05
2.94359e-07
1.94572e-05
-6.9189e-05
-3.96629e-06
3.16931e-06
1.23969e-06
2.68897e-57
5.88041e-106
-6.83252e-57
-1.44013e-56
3.78139e-106
-9.401e-57
-1.2977e-56
-4.48928e-106
-6.19179e-106
-6.35007e-22
-3.72829e-22
4.6619e-22
4.95608e-23
-8.81752e-22
-1.14068e-21
-6.71997e-22
-1.82536e-21
8.97631e-34
2.2928e-32
-5.15211e-34
-5.03894e-32
3.37686e-32
-5.82485e-32
2.64311e-33
-1.5222e-32
6.16365e-32
-1.11851e-31
2.79664e-32
-1.17949e-30
8.54411e-32
-2.63281e-31
8.58386e-32
-1.86757e-31
8.19601e-32
-5.22644e-29
-3.74364e-29
-1.82705e-29
6.51986e-29
-4.52856e-31
1.26322e-30
-3.16919e-28
-7.8984e-29
1.67903e-30
-5.95556e-28
7.21593e-29
-1.37617e-29
3.9589e-28
-2.7234e-27
1.87572e-28
-1.49841e-28
1.17575e-28
2.58554e-33
3.18818e-32
-1.36365e-31
-1.59928e-33
3.2519e-31
-2.43473e-30
-1.94326e-33
-4.52781e-32
4.53628e-32
2.59803e-30
2.63351e-30
-2.46097e-29
1.0248e-31
4.37229e-34
-4.11926e-32
5.57496e-34
1.04422e-32
1.78657e-27
1.95363e-30
-1.78152e-27
-3.8753e-32
-1.10635e-26
-2.14491e-28
1.0631e-26
1.10528e-27
-8.97423e-27
4.00623e-28
-1.22977e-27
-2.19482e-27
-6.26454e-28
2.79722e-28
-1.25423e-26
4.33507e-27
4.18717e-27
1.56563e-27
-1.92665e-26
-2.10219e-27
4.32683e-27
-3.68576e-27
1.34045e-28
-3.98116e-30
-9.19218e-28
1.50749e-29
-4.97015e-29
-2.28648e-29
8.69892e-29
-1.15883e-28
-1.5795e-29
1.07742e-27
1.09561e-27
4.16438e-29
1.23197e-29
-6.63202e-29
3.10355e-30
-5.81356e-30
3.74025e-26
1.28092e-27
-4.29739e-26
4.53576e-27
-1.63672e-26
-2.75657e-26
8.17253e-26
-2.05423e-26
5.19791e-28
-1.29086e-26
-3.67355e-26
4.9721e-27
-2.52237e-26
-2.02001e-26
5.24787e-26
2.03886e-26
-9.87565e-26
3.74713e-26
9.35729e-27
-1.20538e-25
1.29106e-25
-1.44063e-25
-1.55421e-18
-3.76164e-18
-6.1707e-18
1.02955e-18
-7.78608e-18
-7.41307e-18
1.27099e-17
-1.07805e-17
-7.75932e-18
-7.1581e-19
-4.40411e-18
-3.10327e-18
-2.32714e-18
-4.49516e-18
1.71859e-18
3.1038e-18
-6.50545e-16
6.00252e-18
-8.07145e-18
-1.14395e-18
5.30071e-18
8.85262e-19
4.28312e-18
2.74095e-17
-1.23333e-17
-2.57079e-17
2.40103e-18
4.5527e-18
-3.65867e-18
2.29543e-18
1.82631e-17
-1.06128e-17
-1.89304e-19
1.47093e-17
-4.59383e-18
-8.50457e-18
5.00643e-18
-3.48435e-17
2.2677e-15
-4.77484e-18
-1.95195e-15
9.39702e-16
1.31045e-15
-9.60518e-16
2.15125e-15
-1.4089e-14
-5.57816e-13
4.72104e-15
1.72954e-14
-2.38929e-14
6.04542e-15
2.5479e-15
-1.0372e-14
1.41155e-14
-2.68594e-14
-7.52559e-12
-2.75904e-11
3.55436e-12
1.40183e-11
3.16092e-12
3.8099e-11
-8.94857e-11
4.63292e-11
-1.18115e-10
4.28562e-12
-6.86704e-12
-1.02392e-12
4.98289e-12
1.20616e-12
8.51198e-12
1.62886e-11
3.55992e-18
2.1412e-18
1.94978e-18
1.58949e-22
-1.48618e-15
1.9586e-16
1.29899e-15
2.17488e-14
-1.80752e-18
-8.64133e-17
9.66387e-17
2.16485e-14
-2.62357e-17
-8.44377e-18
2.7296e-17
3.60596e-18
3.53616e-16
7.04083e-16
-7.23036e-16
-1.50518e-20
1.86935e-17
-2.00372e-15
2.76986e-17
2.65974e-15
-6.51152e-17
-2.66899e-15
3.25352e-20
-8.93102e-20
-1.07038e-19
1.50325e-18
1.40963e-18
-1.82089e-18
2.00353e-17
-6.71732e-17
1.45094e-22
-2.76497e-21
-6.61638e-21
2.74478e-21
-2.01e-20
-2.67921e-19
-4.49699e-21
-3.9933e-20
7.18684e-20
-8.2456e-19
3.06769e-19
-3.90894e-20
3.60486e-20
-4.02747e-20
-9.01898e-21
-1.68451e-18
-1.70028e-22
2.07402e-20
1.57321e-19
-5.31175e-19
4.34988e-22
-1.76811e-23
-1.72772e-21
6.89097e-22
1.0645e-21
-1.53828e-18
6.52803e-21
5.63281e-20
-8.3991e-20
2.81532e-21
-8.79644e-20
4.90615e-21
-1.89757e-27
-2.41539e-27
2.37957e-27
2.04472e-27
-1.57814e-27
-6.9011e-27
8.36646e-27
1.48638e-27
-3.64104e-26
3.72681e-26
-2.52246e-26
-1.1869e-26
-1.46204e-27
4.53288e-26
4.36713e-27
-8.40895e-26
8.86519e-27
-2.85374e-29
1.77284e-30
1.005e-29
-1.17745e-29
3.36338e-29
3.29333e-30
1.69166e-29
3.53435e-30
-3.34249e-29
-3.63849e-30
8.11363e-29
-8.87273e-29
8.19396e-28
-2.44906e-29
-3.34022e-30
2.41273e-29
-1.20836e-30
-4.13005e-29
1.64202e-30
-4.52505e-30
1.03533e-29
-3.07023e-33
4.21153e-35
-1.47804e-32
1.69984e-32
7.55114e-33
3.88079e-33
7.49477e-33
4.0693e-35
-1.48971e-31
-2.72142e-31
-2.46198e-32
7.69933e-32
9.31213e-32
-2.59605e-32
1.6318e-31
9.63075e-47
-2.0867e-48
-1.29403e-46
7.01451e-50
6.81673e-47
-6.00762e-47
6.34454e-47
-1.52645e-45
-1.95431e-44
1.28175e-46
5.11504e-46
-7.79734e-46
1.27253e-46
6.9867e-50
-3.27665e-46
2.52548e-46
-1.52836e-45
9.61712e-08
-5.07197e-08
-4.35164e-08
-1.93509e-09
-1.01848e-07
1.92556e-08
1.78764e-07
4.8578e-08
-2.01145e-07
5.7036e-08
-7.06905e-08
-2.98616e-08
-1.44981e-09
7.77418e-08
-5.59584e-07
-1.00084e-07
7.08246e-07
1.5228e-08
-7.75957e-07
-1.25287e-07
2.3755e-08
-1.80749e-07
-2.27713e-09
2.63749e-07
-1.05662e-07
-1.55095e-07
-1.3554e-06
-4.68737e-07
1.8228e-06
-1.18289e-07
-9.70044e-07
7.68543e-07
1.08026e-06
-2.31193e-06
1.89475e-06
-1.22925e-06
-9.16625e-07
1.90137e-06
-1.01029e-08
6.59102e-08
2.85403e-08
-1.01739e-07
-2.31285e-09
3.34459e-08
-1.30754e-07
2.49777e-07
4.98889e-08
3.81629e-09
-1.05621e-08
-2.16224e-09
5.87064e-08
1.20563e-08
-2.66779e-08
2.70844e-08
-1.96404e-08
-5.13126e-08
-8.37847e-08
3.52512e-08
6.6082e-09
-1.79399e-08
-5.7358e-08
6.53621e-07
-1.12379e-06
2.29666e-06
-7.22832e-07
-4.12414e-06
1.87214e-08
5.17931e-08
-2.24094e-08
-3.95059e-08
1.17688e-08
-2.2191e-09
9.33753e-09
-1.46378e-08
7.81122e-08
4.75615e-10
-2.25848e-09
-1.04922e-10
9.48855e-09
4.17778e-10
-1.68018e-08
1.17159e-08
-3.30646e-08
-6.22021e-26
-6.04587e-26
-7.01732e-27
7.7375e-26
1.88098e-25
-1.3206e-24
-1.08564e-23
1.31731e-26
-4.25322e-25
5.1799e-25
-2.74733e-25
-2.30407e-24
-1.40026e-25
2.78306e-25
-3.87408e-25
2.90049e-26
-1.35328e-24
4.52169e-06
4.58504e-08
-2.51846e-06
-2.08698e-08
-8.0594e-08
-2.68337e-07
5.28799e-06
-5.62619e-08
-3.09304e-09
2.3312e-07
-6.29128e-08
-2.33204e-06
-2.53236e-08
-1.50563e-08
5.93408e-08
3.40992e-08
-1.42802e-07
3.93599e-08
-1.04738e-09
-3.53692e-09
1.49191e-08
-3.7608e-08
-8.67967e-22
-4.56788e-19
9.79891e-20
9.46639e-21
-5.32593e-19
1.11421e-19
4.20778e-21
5.94626e-19
-2.56774e-18
-5.65833e-20
-3.95288e-20
1.06818e-19
-1.49876e-19
3.26099e-21
-3.7917e-20
5.16215e-20
3.75494e-22
4.34137e-09
6.49002e-09
-1.11826e-08
-4.22665e-09
-2.06769e-09
8.72349e-10
2.73073e-09
-4.96106e-08
5.54969e-08
-1.7396e-09
1.96589e-09
2.05676e-09
2.81689e-09
-1.00071e-09
4.28999e-08
-8.24636e-08
3.10346e-08
4.79481e-09
-3.2214e-08
-2.97942e-08
8.00637e-08
6.46352e-09
-1.23909e-08
6.87289e-09
-2.82598e-08
4.5144e-09
-2.73781e-08
2.69866e-10
-5.13165e-09
9.01953e-09
-1.10631e-08
-1.65286e-08
2.59972e-09
1.59441e-09
-1.97427e-08
2.65344e-08
-3.38004e-08
-9.61745e-09
5.41956e-09
2.04474e-09
-1.51247e-08
4.78756e-09
7.4322e-08
4.72749e-09
4.6928e-07
-1.05964e-08
8.56784e-08
3.87235e-09
-2.75277e-09
-1.70493e-08
-1.69617e-09
9.35596e-09
1.06008e-07
-2.28211e-08
-1.13973e-07
1.86439e-08
1.73339e-07
-1.56675e-08
3.05434e-08
-4.72052e-08
-3.26746e-08
8.33952e-09
-1.83346e-08
4.26696e-08
3.08589e-08
5.49021e-08
-1.18435e-07
4.24293e-08
-3.22991e-09
-3.67991e-08
1.54991e-08
7.62022e-08
-8.81408e-08
3.30073e-08
-1.11916e-07
1.69844e-07
-2.03285e-07
1.02076e-07
1.41402e-07
-2.7334e-07
-1.18204e-08
8.62016e-08
2.7695e-08
1.27648e-07
-8.34851e-08
3.89898e-07
8.0459e-08
3.70646e-07
-5.77667e-08
-2.89124e-07
-1.21037e-07
5.72143e-07
-1.51108e-07
-6.05197e-07
1.55585e-06
1.55336e-06
-9.45348e-08
-2.95848e-06
8.98256e-07
-8.0361e-07
7.8914e-07
1.07904e-06
1.40121e-06
3.05824e-07
3.73206e-07
4.20914e-07
-2.62316e-07
2.02283e-06
8.31227e-07
-1.32734e-06
4.60536e-07
1.63613e-08
-7.47756e-10
8.45412e-09
-2.43504e-08
-6.23919e-08
4.37389e-08
3.66958e-08
-5.53995e-08
-2.5545e-08
3.17858e-09
-8.85263e-08
1.55775e-08
-2.86679e-07
3.12016e-07
-2.93742e-07
2.2049e-07
-6.19891e-07
-4.77946e-17
-5.2127e-17
-3.74888e-17
4.34346e-17
6.54239e-17
-5.31656e-17
-2.2087e-16
-7.46344e-16
2.44739e-16
-1.18697e-16
1.13953e-16
-3.25577e-16
7.92706e-16
-1.29606e-15
-2.37331e-17
2.81193e-17
6.6467e-17
2.34466e-16
4.84353e-16
4.32478e-17
-9.45939e-16
-7.57598e-18
3.15174e-14
-3.0347e-15
-1.43707e-14
-3.49262e-15
-5.12299e-14
-8.32988e-14
1.76468e-13
-2.38716e-16
-3.71001e-14
-2.37759e-13
2.18621e-13
4.49381e-14
3.09249e-14
-1.09551e-13
-1.01629e-13
8.17369e-13
-4.29318e-15
-1.26464e-11
-3.77539e-12
1.14511e-12
1.93078e-11
-1.79008e-12
7.4401e-11
-2.2512e-11
-3.90318e-12
-1.78432e-12
-9.50521e-11
2.97386e-11
2.46203e-10
-1.12302e-11
1.21345e-09
-1.22569e-12
-1.90228e-13
7.42652e-12
1.02011e-13
-1.26249e-11
2.89258e-13
-4.01639e-12
6.81905e-12
1.29036e-06
9.72607e-08
-1.51651e-06
-1.63591e-08
-1.65094e-06
-4.83849e-07
3.39087e-06
-3.0839e-06
1.37914e-06
5.80899e-07
4.07537e-06
-6.74094e-06
5.24382e-07
-6.75156e-10
4.11594e-08
-5.15203e-10
6.5863e-07
9.53354e-07
-3.92512e-05
-1.24503e-06
3.9562e-05
-4.03465e-05
3.8641e-05
2.66845e-06
3.74778e-05
-0.000117061
4.17548e-05
-3.87406e-05
-4.22491e-06
-3.8387e-05
0.000119718
-2.31919e-06
2.61853e-06
-3.57198e-06
-4.12495e-37
4.13881e-37
-7.68345e-39
3.9179e-39
5.78786e-37
-5.23262e-37
8.69654e-35
-3.20659e-38
1.0021e-36
1.4503e-38
6.26274e-38
-8.60036e-38
1.8372e-38
3.30731e-41
1.89388e-37
-7.01419e-37
2.75843e-37
7.51584e-42
3.04426e-43
5.88174e-44
-7.92123e-42
2.21057e-42
2.87735e-41
-4.93989e-39
7.51462e-43
5.47362e-42
-1.53216e-43
9.47089e-43
2.79305e-41
2.59627e-44
-1.3741e-43
7.80047e-43
1.15108e-45
6.8409e-42
-1.169e-47
3.48861e-46
3.49396e-47
-2.86392e-45
8.38802e-46
-8.47683e-46
-1.23152e-45
-1.61431e-46
5.28357e-46
-5.82642e-45
1.10078e-45
6.41447e-47
3.85179e-45
-4.21904e-44
9.38557e-46
4.4953e-46
7.1529e-46
3.63925e-54
1.55986e-54
-6.89722e-55
-4.59117e-54
-1.54902e-54
-2.42854e-56
4.63967e-54
1.74038e-58
-6.48725e-56
1.26712e-56
-9.58607e-56
-5.93254e-55
-4.00513e-57
7.20467e-57
-5.15574e-56
8.01295e-57
1.16596e-59
1.84048e-56
-8.65771e-55
-5.207e-57
1.18451e-56
-8.52677e-56
-2.16288e-61
-3.76479e-63
-4.29081e-59
-1.83509e-58
-1.06825e-64
-9.86136e-61
7.6573e-61
2.36987e-66
-4.20721e-63
-9.52144e-63
9.51806e-63
3.06919e-66
2.74801e-61
-2.88696e-61
-3.32993e-59
1.08177e-59
-2.26593e-58
-3.66457e-69
-3.16897e-70
5.23505e-71
-4.0995e-71
2.31995e-68
1.10422e-68
-2.17017e-67
3.92492e-69
-5.7093e-71
4.39339e-71
-1.32137e-70
1.4762e-71
-1.94329e-70
8.55851e-71
1.39777e-69
2.02658e-69
2.16773e-69
1.96726e-70
2.38535e-69
-1.56259e-70
-1.9742e-68
2.58934e-64
-5.62705e-63
1.61073e-64
-1.91473e-65
6.69079e-65
-1.15869e-68
3.58163e-69
1.29243e-66
-1.33675e-66
1.91424e-65
-4.1306e-62
-1.75906e-69
5.31452e-71
-4.34144e-70
1.59558e-72
2.26291e-70
-5.60401e-69
1.08197e-69
4.40689e-69
6.2738e-70
-5.11842e-69
2.38174e-71
-3.86001e-71
1.64731e-72
-6.77616e-71
5.14261e-70
-9.59572e-71
1.08018e-69
8.88654e-71
2.21674e-73
8.96906e-73
9.62589e-73
-2.54945e-72
8.38753e-75
6.45635e-74
-1.86318e-74
1.14452e-73
9.85811e-75
4.18643e-72
2.62711e-71
-1.08842e-70
4.67567e-73
-4.33959e-73
-4.41494e-73
2.51683e-71
-2.64926e-71
-7.51413e-71
1.44439e-69
5.09538e-72
9.51213e-70
6.65196e-73
-7.00943e-71
-4.55838e-69
-7.07506e-72
-7.96166e-71
-1.73922e-59
-2.36211e-59
-4.1205e-60
4.18819e-59
-1.91126e-60
-4.34497e-60
-1.27488e-61
6.46838e-60
-3.96519e-59
4.71471e-59
-5.04538e-59
-1.18889e-60
-9.0902e-59
1.29654e-58
-3.34806e-58
-1.80038e-57
-6.1359e-58
1.13502e-63
2.25738e-62
-1.87544e-62
-1.79039e-62
2.28869e-63
-3.67101e-63
6.68797e-64
-1.61651e-61
1.8208e-61
1.62826e-60
4.55758e-62
-1.72603e-60
1.37264e-60
2.10548e-61
-1.64602e-62
5.58317e-62
6.25185e-62
-6.51654e-62
6.68191e-65
1.1336e-63
-8.49655e-56
-4.30675e-58
2.82423e-56
2.36456e-58
4.69656e-56
3.73883e-55
-5.79357e-55
4.4243e-56
6.77135e-58
-2.59169e-56
-1.58229e-57
4.10273e-56
-5.24157e-56
1.561e-56
-7.57448e-57
-1.21999e-56
1.59976e-56
-7.24644e-55
6.58467e-55
7.99495e-56
-4.67036e-55
1.10218e-55
-6.54511e-55
-7.30704e-53
2.30289e-53
2.30007e-55
-8.77124e-55
-4.54256e-53
-3.8556e-53
-7.90595e-52
-4.35681e-52
-8.35465e-52
-5.74803e-53
-6.01342e-54
2.72043e-54
2.94836e-51
-3.00932e-51
2.00437e-51
-1.63568e-51
3.65197e-48
-3.56587e-48
-9.83783e-50
8.24233e-50
-5.33778e-50
-4.60666e-50
-9.1303e-45
-3.8168e-45
-4.42362e-50
2.38277e-48
-5.04561e-50
1.15577e-48
-1.27194e-48
1.05834e-44
-3.88493e-44
-6.12681e-46
1.31604e-42
-5.71196e-43
-3.65053e-38
3.69879e-38
-6.80916e-43
4.33001e-43
1.48997e-43
1.05536e-43
-2.64192e-42
2.03354e-37
-4.49678e-42
-6.21421e-36
-5.46274e-44
1.14292e-37
2.05542e-43
-6.1596e-43
-4.24015e-42
-1.54896e-43
1.51886e-43
-2.85571e-43
4.40934e-43
-2.30943e-42
-4.55106e-38
-1.90782e-38
2.44046e-37
1.21099e-38
6.65346e-38
1.04536e-36
-8.97614e-37
-3.28888e-35
3.32825e-35
3.0821e-34
-1.79086e-34
-7.84422e-34
-2.3876e-35
3.70158e-35
2.39704e-35
-2.02004e-34
2.24978e-37
5.07859e-33
1.33115e-33
-1.06921e-32
-1.11034e-32
-4.16468e-33
-2.72154e-33
9.74091e-33
-5.03285e-33
3.59231e-32
6.06379e-33
-6.01811e-32
5.15013e-32
-6.1146e-31
-2.24163e-32
5.27797e-32
-2.41417e-32
6.90169e-34
1.7051e-34
2.29029e-33
-3.21909e-33
1.02675e-33
-5.84032e-32
5.79303e-32
1.19239e-33
2.74636e-36
2.29274e-31
-3.32844e-31
-3.61666e-30
-2.42949e-33
2.70334e-31
-1.12934e-31
3.26564e-32
-8.59686e-31
-4.55197e-30
-3.55896e-30
4.58443e-29
5.49907e-30
7.49166e-30
-3.39583e-29
9.29361e-28
-1.57172e-29
7.42876e-29
1.98998e-32
-7.08083e-25
-3.11896e-25
1.28697e-24
4.89296e-25
4.96122e-25
2.75539e-25
-1.18508e-23
-4.37275e-25
3.06267e-24
3.89869e-24
-2.99557e-23
2.4825e-23
-2.33923e-24
8.42522e-24
1.77573e-24
3.4411e-22
5.66929e-25
-2.2458e-21
-2.15816e-22
1.25488e-21
2.56333e-22
1.34013e-21
8.18564e-22
-3.81552e-21
9.23612e-22
-1.27452e-22
-1.41515e-21
-6.19476e-22
2.76323e-21
-2.35895e-21
5.23845e-22
2.9593e-21
-3.91219e-21
4.18381e-21
-1.50799e-17
-1.75977e-19
1.5465e-17
-5.33973e-19
6.64954e-18
1.5244e-17
-7.27257e-17
9.66333e-18
-6.91068e-18
-2.09952e-15
-1.04183e-15
5.56392e-15
-7.19604e-15
6.95714e-15
7.19189e-15
-5.66157e-15
9.49099e-15
5.91974e-16
1.53798e-15
7.83996e-16
-1.08939e-15
2.84157e-15
-2.05117e-15
1.08378e-15
9.55255e-16
3.89049e-15
3.87061e-15
-4.17378e-16
-4.02218e-15
1.45129e-15
2.64959e-15
-2.60702e-15
2.0736e-15
-4.01553e-16
4.28713e-20
-1.17368e-20
-1.23434e-19
1.21331e-20
-6.29373e-20
-6.51687e-22
7.14152e-20
-4.99263e-19
5.19352e-19
9.6285e-20
4.09207e-20
-2.35878e-19
1.16743e-19
4.93119e-21
1.42837e-19
1.41716e-19
-1.84241e-19
3.97459e-20
1.45831e-19
-1.38506e-19
7.50722e-20
-4.3766e-19
-1.21604e-19
-5.20669e-20
1.50608e-19
8.99342e-19
6.24845e-20
6.51943e-21
-5.12502e-19
-2.73703e-22
9.50792e-20
4.22872e-20
1.25453e-21
-3.70227e-20
1.81595e-20
2.98938e-19
9.7993e-22
-1.52572e-24
1.36952e-19
8.72735e-27
6.49443e-27
2.6819e-26
-6.1345e-26
-1.97339e-27
9.0459e-28
6.07061e-27
-2.52166e-28
1.67582e-27
4.09646e-28
-3.60071e-27
1.49353e-27
-1.73388e-28
3.63145e-28
-1.05244e-27
3.38188e-28
1.92171e-26
1.0552e-31
-4.03775e-31
-1.25136e-30
1.98137e-31
-7.8345e-31
-1.47159e-29
3.12415e-30
-1.00647e-30
-7.13816e-30
-1.47498e-29
-3.99378e-29
5.20848e-29
-1.13912e-28
-2.12496e-28
8.02924e-30
-5.58228e-29
-3.33672e-28
4.75804e-25
5.17182e-26
6.54738e-26
-6.30754e-25
-3.46178e-27
1.12141e-26
4.42874e-25
8.97222e-27
-1.13754e-26
-3.56973e-26
-5.11351e-27
1.22133e-26
-2.07391e-25
-9.11871e-27
3.83829e-26
-9.77593e-25
1.05337e-26
9.11484e-19
-9.94522e-19
-2.8721e-18
4.60461e-19
-3.31826e-18
-2.24303e-18
2.95367e-18
-8.87542e-18
-1.60539e-18
-3.51149e-19
-5.81557e-18
8.0999e-19
-2.24764e-18
-2.48523e-18
1.58564e-17
-3.69386e-17
9.9891e-18
5.84224e-14
8.2893e-16
-1.21317e-15
-7.68153e-13
3.4551e-15
4.29784e-14
7.37996e-15
4.14115e-16
1.24975e-15
1.00526e-15
-1.45378e-14
-2.02232e-16
-1.58446e-15
6.05884e-16
2.06632e-14
9.45794e-15
-9.84172e-15
3.0493e-16
1.68149e-14
7.84109e-15
-2.16508e-13
7.01313e-16
-5.2105e-17
-2.82893e-16
-5.67141e-17
1.10848e-16
-3.81837e-17
-2.79291e-15
-2.1983e-15
-1.7598e-17
1.64294e-16
2.74541e-16
-2.82171e-15
6.22859e-17
-5.63966e-17
1.36637e-16
-6.64443e-17
6.36547e-17
8.10313e-17
-1.28813e-16
1.75374e-15
-5.26548e-15
5.60806e-16
5.46185e-12
2.5143e-13
5.31923e-11
-6.00498e-10
7.77771e-12
1.10853e-10
-5.72105e-10
1.45948e-14
2.71072e-12
5.94399e-13
-4.08396e-12
-2.48137e-13
-7.79679e-14
1.07015e-12
-2.60546e-11
-5.43898e-13
1.27492e-11
-9.37405e-12
-1.85801e-11
-3.17205e-12
-2.28477e-13
-2.88488e-11
-2.04274e-12
-3.41663e-13
4.29102e-13
-8.86006e-12
-1.56148e-13
5.76689e-12
3.77172e-11
-1.22063e-10
2.90652e-12
-7.8009e-13
8.44234e-12
-5.10638e-11
1.67872e-11
-2.1345e-11
4.89509e-12
2.70819e-10
6.89338e-10
5.55034e-11
-1.04147e-09
3.76436e-09
5.79069e-09
4.17969e-10
1.5309e-09
2.07246e-09
4.2897e-12
-1.99328e-09
2.02561e-09
-2.77524e-09
2.23877e-08
2.4966e-08
-6.04716e-09
-4.13292e-08
2.44278e-09
1.56141e-08
-1.44222e-09
-6.39799e-09
6.16965e-09
4.36401e-08
-1.60453e-08
-2.34267e-08
-7.74576e-09
4.44906e-08
-1.12088e-08
-2.22897e-08
-5.96701e-08
-3.73125e-09
-3.53128e-08
-6.56304e-08
-4.36177e-08
-2.80219e-08
4.47061e-09
-7.41381e-08
-5.96648e-08
3.60664e-08
5.63428e-10
2.60898e-08
8.22814e-09
-7.19718e-09
-1.7878e-08
-1.07108e-08
4.82129e-08
-3.5742e-08
1.9359e-08
-5.97057e-08
3.73623e-09
-2.0543e-08
4.27652e-10
-2.55796e-08
4.28351e-09
1.92303e-08
-1.2048e-08
-3.838e-08
-1.6767e-09
3.1224e-08
-5.23466e-08
5.51702e-09
-7.45402e-09
2.93689e-07
9.71383e-09
1.59029e-07
-3.71875e-08
2.56755e-08
1.32004e-07
-4.15363e-07
9.77948e-09
2.14516e-08
-5.02203e-09
4.1489e-07
-1.27941e-06
1.55595e-06
-1.62228e-06
3.96778e-07
1.65111e-06
-1.97255e-06
-9.21848e-07
9.31319e-07
6.41428e-08
-2.91317e-06
-7.32121e-07
3.12263e-06
-3.54293e-06
4.6523e-06
8.18584e-08
-6.18038e-09
-2.65284e-07
4.23345e-07
4.26579e-07
-9.99278e-08
-4.57858e-07
1.31207e-07
-1.5462e-07
-2.28496e-07
8.09695e-07
-8.57723e-08
-1.68776e-07
-1.27039e-07
5.42769e-08
-1.301e-08
-1.14365e-08
-2.84378e-07
-3.85065e-07
2.10846e-07
-8.5436e-07
6.45244e-10
9.93757e-08
-7.94511e-08
-2.05699e-08
6.05907e-08
-5.91166e-08
-8.28778e-10
6.12456e-08
9.87215e-08
-3.99223e-09
2.17648e-08
-9.72237e-08
-1.15868e-07
5.27603e-08
6.29713e-07
-3.1394e-07
-2.54528e-07
-1.26612e-06
1.99473e-06
-4.14124e-07
-1.56301e-08
-1.65697e-06
-2.34775e-08
-2.00377e-07
2.84544e-08
-2.69147e-07
2.12925e-08
2.87885e-08
8.17689e-09
-5.82579e-08
6.52238e-08
-8.58527e-08
4.19215e-08
2.04668e-08
7.35458e-08
-5.29961e-08
1.29332e-07
-6.81593e-08
1.13329e-07
-2.52178e-07
5.71484e-08
-1.63273e-07
1.26591e-07
1.30476e-08
1.17647e-07
-1.32976e-07
2.75356e-07
-1.82919e-07
-3.13847e-08
-8.23965e-08
5.18637e-09
1.08595e-07
4.45423e-09
-1.09017e-07
7.3178e-08
-9.09519e-08
1.23261e-07
-3.85778e-07
1.535e-07
3.39294e-07
3.44558e-09
-3.78776e-07
-1.23669e-06
-9.9283e-08
1.92248e-07
1.27395e-07
6.58938e-07
-5.44697e-09
-6.0402e-09
2.58888e-08
-1.44016e-08
3.86787e-08
-1.33392e-08
-3.07864e-08
8.87146e-09
2.37673e-08
-4.61884e-08
9.90407e-08
-2.69635e-08
1.91689e-08
-7.86964e-08
1.47821e-07
-1.1978e-07
2.70629e-07
-1.71671e-06
-3.6603e-08
5.20133e-07
-1.79713e-07
5.2781e-07
-2.02817e-06
-8.97242e-08
3.47986e-08
-6.87596e-09
1.18751e-07
1.91349e-07
3.77555e-07
2.73172e-07
7.15405e-07
9.55705e-07
8.41536e-07
-1.11893e-06
-6.20505e-07
-9.92102e-07
1.32723e-06
7.27555e-07
-9.05256e-07
1.42413e-07
-6.39495e-08
-5.56756e-07
6.4088e-07
5.82017e-08
8.73263e-07
-1.15649e-06
-8.2342e-07
-1.94077e-07
7.52184e-07
-3.22151e-07
-1.83135e-07
1.50049e-06
-3.39238e-06
1.3626e-06
1.12087e-06
1.09855e-06
-8.64719e-07
5.2226e-07
1.46196e-06
-3.18219e-08
2.76151e-07
1.60207e-06
-4.39569e-06
1.25113e-06
7.57502e-11
-4.63108e-10
-3.88209e-10
2.52216e-10
-9.50789e-10
-2.88726e-11
7.04434e-10
-4.79017e-09
1.97042e-10
3.70236e-10
-5.17754e-09
-4.11561e-10
-2.74777e-09
1.5746e-09
1.09567e-08
-3.94647e-08
1.5939e-09
3.81342e-10
4.53522e-10
4.74508e-10
-2.80953e-09
-4.49041e-12
5.51251e-11
1.12024e-10
1.15274e-10
3.29053e-12
1.19885e-10
-1.69089e-10
6.4782e-10
-7.59522e-11
1.96868e-10
-2.46149e-10
2.75913e-11
-4.33201e-10
-3.16057e-09
-4.49531e-09
-2.96847e-09
1.00904e-08
-9.75748e-10
-7.78363e-09
5.70829e-09
4.77077e-11
-1.50143e-09
-1.18715e-09
-1.37217e-08
7.66083e-09
-3.16873e-09
-2.42617e-09
-2.31236e-09
-7.49587e-10
-1.62806e-08
-9.35833e-11
2.08953e-10
-9.55001e-11
5.75463e-11
2.92367e-10
-2.01306e-11
-1.40804e-10
-1.70178e-09
2.41873e-09
4.78967e-11
9.09526e-12
-8.2133e-11
1.91403e-09
-8.5795e-10
2.43182e-12
4.74499e-12
4.83601e-13
2.66727e-10
1.73303e-09
-8.46016e-12
-2.64666e-11
-9.27503e-11
-2.1362e-13
-7.43061e-12
2.21242e-12
4.08111e-12
8.26717e-14
-6.77212e-14
-3.00655e-13
-5.89809e-11
3.22256e-11
4.44218e-10
-2.93968e-10
-3.73564e-12
4.67927e-10
1.53874e-10
-8.57993e-15
-3.81909e-10
1.79585e-12
1.45111e-10
5.35041e-14
-1.51057e-13
5.49625e-12
1.87338e-09
7.93217e-10
-3.76846e-09
-7.03246e-09
4.29685e-10
7.65631e-10
-1.10385e-09
2.23724e-10
2.23083e-10
1.47548e-10
-1.65213e-11
-1.74395e-08
9.01861e-11
2.71315e-10
5.2415e-13
4.99368e-11
1.08311e-10
9.92278e-29
-9.28221e-27
6.86385e-27
1.29918e-28
-8.94547e-27
8.92744e-27
3.1872e-28
9.59341e-27
-2.767e-26
-6.50555e-27
-5.60178e-27
1.82372e-26
-9.47634e-27
7.31876e-28
8.99472e-30
4.53309e-28
-1.22311e-24
1.52741e-25
7.19162e-24
-4.95422e-25
1.46546e-24
1.41165e-24
-3.20146e-24
5.9418e-26
8.61457e-24
8.20334e-25
6.81234e-24
-8.97896e-26
6.5231e-24
2.37236e-24
7.23639e-24
4.42537e-25
2.59563e-23
3.57077e-28
-2.25778e-29
3.43282e-27
-6.37976e-28
7.19835e-28
-3.04686e-27
-4.38552e-29
5.65497e-27
-1.30349e-29
-2.32296e-46
1.55566e-45
2.93406e-47
-1.00852e-44
1.97259e-44
-6.31213e-45
-1.90622e-44
-7.48887e-46
1.89903e-44
-8.9851e-46
1.87816e-46
1.38496e-47
3.74804e-45
-1.97688e-43
6.11656e-46
-3.53413e-45
1.57829e-47
-6.70581e-51
-2.42981e-49
-1.92292e-50
2.69479e-49
-3.10894e-53
4.96636e-53
-5.21935e-51
-1.98487e-49
-1.96665e-49
-1.32537e-50
1.32909e-50
1.07878e-53
2.86748e-50
-1.23021e-50
1.59705e-49
-8.63688e-49
1.18855e-49
-8.50134e-60
1.79836e-61
6.16442e-61
-6.19258e-65
9.44596e-60
9.31145e-60
-1.44389e-58
1.96709e-60
1.17332e-61
1.15384e-62
6.31787e-61
2.35111e-59
1.51241e-61
1.57852e-63
-3.87679e-61
5.03131e-61
2.18112e-60
-2.95065e-73
-1.45256e-75
4.4276e-75
4.10889e-74
2.93686e-72
3.71603e-73
-2.52096e-71
1.17199e-72
-8.11396e-72
4.70381e-75
-4.55297e-74
9.83145e-76
-2.68167e-74
1.35779e-74
5.6427e-74
1.64393e-73
1.13297e-72
1.1878e-69
2.23404e-68
-6.54477e-67
-9.37922e-70
2.2585e-65
-4.892e-65
-9.10654e-65
-1.39432e-66
1.31058e-65
1.59385e-68
1.18596e-66
-2.17165e-66
1.45327e-68
1.38035e-66
-4.95809e-65
7.43147e-71
-1.18324e-77
-4.9429e-69
-1.09762e-67
1.14705e-67
1.48496e-78
-3.22642e-79
-4.95332e-76
-1.09467e-68
5.08656e-69
-6.38854e-76
2.28135e-77
3.18293e-76
2.75093e-74
-2.77672e-74
1.42121e-68
-2.51699e-68
1.82249e-69
1.23805e-68
-1.03735e-67
6.2063e-73
6.08228e-73
-1.26538e-72
6.51571e-66
-6.51571e-66
-5.68018e-65
6.33266e-65
-1.30815e-65
-6.23067e-64
2.77911e-67
-2.83689e-68
2.12136e-68
-2.15281e-67
-2.58869e-67
-1.43086e-67
1.73894e-67
-8.4972e-67
-1.25414e-65
2.52405e-66
7.62911e-66
1.09251e-66
-9.95651e-66
-4.19674e-67
3.89158e-69
5.80765e-66
7.23219e-66
-3.53324e-71
8.45169e-71
2.45226e-70
6.09689e-61
-2.43395e-59
1.24144e-60
4.19653e-62
-9.13566e-59
1.06383e-59
1.86628e-60
4.83861e-58
-3.00137e-57
-9.45931e-60
-1.31003e-60
6.86168e-60
-2.3939e-58
2.18084e-58
3.5345e-61
2.36931e-58
7.07688e-62
-6.64939e-55
-6.71158e-56
-1.39059e-55
-2.54845e-57
-2.88543e-54
2.2441e-54
-2.9008e-57
-6.86889e-56
-6.84034e-56
7.53349e-56
-4.11037e-59
1.80778e-55
-3.19412e-55
3.69916e-57
-2.65453e-54
1.77426e-57
3.86792e-51
3.2414e-50
-1.00394e-50
-3.19225e-50
2.22563e-50
-3.47073e-50
2.89888e-51
-8.26779e-49
8.60428e-49
-3.55418e-50
4.89835e-49
1.51218e-49
4.35759e-50
-1.15075e-49
-1.32164e-50
7.64112e-51
-1.22916e-49
-1.01453e-51
-2.56323e-49
-8.21946e-50
-1.6871e-48
1.61978e-49
-2.73622e-47
2.48433e-47
2.57697e-48
-3.73307e-47
2.6658e-47
4.42632e-49
6.46874e-46
-3.46757e-46
-4.95575e-43
-3.69614e-46
4.95953e-43
-4.74336e-44
-4.48156e-43
3.46887e-46
-4.71459e-44
2.25002e-48
1.30738e-46
7.6317e-45
-1.97941e-43
1.75321e-43
1.60969e-43
-1.70046e-43
-4.13717e-39
-4.86668e-41
1.69843e-42
-2.07385e-42
-8.84192e-40
-1.83577e-37
-9.31232e-40
1.42259e-35
8.9851e-36
-8.42567e-36
-2.30639e-35
-4.38342e-36
-5.0372e-36
-2.90035e-36
-3.32229e-37
3.27963e-37
-1.11358e-35
-1.06617e-35
-9.22584e-36
-3.53402e-35
-9.56888e-36
2.26032e-31
-2.25475e-31
-6.28788e-34
5.25652e-34
-3.28891e-34
-2.96538e-34
-6.11344e-29
-1.95956e-29
-2.50023e-33
-4.58863e-31
-1.08154e-33
3.55449e-33
-6.49221e-33
3.8193e-29
-1.10277e-28
-9.00558e-30
-4.48572e-27
-7.76727e-27
-8.76687e-28
1.31017e-26
-6.72118e-28
-6.11867e-28
8.33565e-29
-4.75177e-27
-2.96341e-27
-3.27713e-27
-1.12875e-26
1.25006e-26
-3.89962e-27
-1.9523e-28
1.36163e-26
-2.61263e-26
-6.21999e-26
-2.6066e-31
-4.15076e-31
4.82532e-31
9.75859e-32
1.1438e-31
1.37444e-31
-2.33414e-30
-2.6286e-27
2.62684e-27
4.96685e-26
-3.17628e-26
-6.52434e-25
-2.40918e-27
5.09761e-26
-1.56391e-27
1.56215e-27
8.65124e-31
1.80919e-26
-2.62238e-26
3.23758e-26
-1.9286e-25
3.167e-27
9.73195e-29
-2.09877e-28
2.16051e-27
-2.12065e-27
-1.75613e-29
2.24841e-29
3.2105e-30
2.81857e-29
-4.08887e-28
-5.30454e-30
-2.22278e-28
1.07917e-28
-3.22501e-30
-2.15609e-29
8.7808e-30
1.72902e-27
5.61782e-22
1.53378e-21
-2.80198e-21
4.30245e-21
-6.90322e-20
3.10573e-20
1.86618e-21
4.01275e-21
1.09741e-18
-1.02131e-22
1.49065e-21
1.12414e-18
6.05532e-21
3.51189e-18
-1.72775e-18
1.04867e-18
-1.7315e-17
-1.55729e-17
4.96344e-18
-8.40755e-18
-3.42482e-17
1.97004e-17
-1.03816e-16
-2.06236e-16
-8.24342e-17
-8.18065e-16
-4.17494e-17
-4.05734e-16
3.04356e-16
-1.70546e-16
-2.03595e-15
-1.49842e-16
1.78875e-17
-4.49891e-15
2.18878e-15
-5.41593e-15
-6.40261e-16
3.49678e-16
-4.59073e-15
5.82253e-15
9.16374e-17
-1.36283e-18
2.78821e-14
-1.1552e-14
-6.96058e-16
4.37275e-14
-1.058e-18
7.53829e-17
1.87466e-16
-1.05541e-17
-3.71706e-19
-4.67017e-18
7.38316e-19
2.47754e-18
-3.67085e-16
2.62107e-17
7.3217e-15
-1.63472e-14
7.58993e-15
7.4072e-10
7.58409e-10
1.92798e-11