/*--------------------------------*- C++ -*----------------------------------*\
| =========                 |                                                 |
| \\      /  F ield         | OpenFOAM: The Open Source CFD Toolbox           |
|  \\    /   O peration     | Version:  v2012                                 |
|   \\  /    A nd           | Website:  www.openfoam.com                      |
|    \\/     M anipulation  |                                                 |
\*---------------------------------------------------------------------------*/
FoamFile
{
    version     2.0;
    format      ascii;
    class       volScalarField;
    location    "0.15";
    object      p;
}
// * * * * * * * * * * * * * * * * * * * * * * * * * * * * * * * * * * * * * //

dimensions      [1 -1 -2 0 0 0 0];


internalField   nonuniform List<scalar> 
6576
(
-422.15
-443.281
-412.379
-419.079
-429.218
-407.92
-407.637
-399.005
-416.292
-413.773
-415.261
-405.282
-393.29
-407.42
-322.122
-336.237
-372.852
-367.332
-342.755
-337.136
-372.045
-403.283
-412.482
-481.604
-314.36
-275.46
-202.931
-452.351
-447.663
-447.139
-438.394
-429.106
-390.863
-293.725
-272.993
-291.447
-317.546
-317.741
-304.867
-311.506
-344.365
-393.212
-341.472
28.6779
-0.170223
40.2538
11.2052
23.6166
69.0297
41.1055
16.2315
42.6413
-2.93775
-2.93705
-2.94049
-2.92307
-2.92159
-2.92777
-2.92983
-2.93802
-2.92452
-2.91809
-2.91248
-2.92742
-2.93674
-2.9251
-2.85924
-2.8701
-2.87496
-2.88214
-2.8693
-2.8919
-2.88095
-1.09299
-0.786715
0.0474601
-0.846142
-0.719825
-0.229336
-0.344586
-1.08375
-1.25265
-0.747679
-1.08016
-1.68501
-1.52259
-0.920036
1.33836
1.32595
1.26044
1.2358
1.26108
1.29874
1.29008
59.5377
50.0678
86.3649
15.2703
32.7173
61.174
34.9818
190.899
164.714
156.766
164.641
190.771
143.514
169.563
170.063
156.898
195.903
144.032
169.61
169.321
-3.03738
-2.97198
-3.18724
-3.05987
-3.17578
-3.16748
-3.1335
-29.7927
-69.102
-160.894
-104.894
-65.0033
-27.9624
2.30452
-2.98906
-2.90575
-3.2604
-3.82126
-2.87198
-4.39874
-3.13361
-0.560328
-0.556177
-0.584215
-0.525146
-0.496263
-0.506646
-0.537473
-0.703536
-0.676849
-0.678922
-0.63627
-0.610886
-0.62382
-0.651503
-0.875921
-0.863457
-0.930884
-0.801588
-0.857776
-0.897745
-0.844982
-0.836976
-0.860489
-0.788781
-0.806938
-0.831059
-0.739196
-0.719486
-0.770088
-0.748088
-0.965992
-1.03494
-0.974834
-0.905045
-0.967149
-1.00774
-0.949449
-0.919111
-0.94254
-0.868062
-0.882448
-0.901655
-0.800469
-0.815802
-0.838434
-0.819278
-0.99718
-0.987732
-0.910404
-0.955345
-0.942361
-0.829906
-0.842948
-0.879175
-0.864984
-1.06276
-1.0705
-1.17373
-1.11832
-1.02705
-1.15996
-1.05871
-0.857926
-0.924479
-0.855016
-0.803679
-0.803395
-0.877646
-0.845434
-0.899025
-1.00785
-0.866887
-0.897709
-1.08183
-1.06153
-0.919053
-1.63
-1.61767
-2.02358
-1.40115
-1.92537
-1.8239
-1.70828
-1.87811
-1.89475
-1.73781
-1.769
-1.88194
-1.84743
-1.72933
-1.65093
-1.70228
-1.55271
-1.60957
-1.57174
-1.44438
-1.49003
-1.25309
-1.20684
-1.29532
-1.25947
-1.15673
-1.16934
-1.25467
-1.24659
-1.23607
-1.16925
-1.23886
-1.31541
-1.21985
-1.29273
-1.13958
-1.07912
-1.14878
-1.20218
-1.12292
-1.18786
-1.11427
-1.0922
-1.16171
-1.01984
-0.967231
-1.02639
-0.976924
-1.03408
-0.954106
-1.01058
-0.817445
-0.836917
-0.78919
-0.755832
-0.803096
-0.801159
-0.755077
181.942
155.27
148.856
168.484
142.405
109.606
134.878
122.544
148.728
40.0288
70.8996
43.1481
41.4722
19.6629
25.1922
11.1592
-2.39303
-2.95656
-3.30804
-4.73306
-4.25253
-2.22433
-1.63542
-2.9842
-2.40999
83.4317
46.5878
57.1067
-1.25792
-1.62583
-2.02114
-1.96938
-2.57039
-3.2007
-2.23719
-2.21581
-2.22031
-2.18543
-2.20254
-2.20295
-2.17651
-2.17608
0.512105
-3.84122
-3.62072
-1.96441
-2.88146
-2.16304
-1.78782
-1.94461
-2.07962
-2.41477
-2.4433
-2.4303
-2.36844
-2.37314
-2.39774
-2.39228
-1.2282
-1.56738
-1.3258
-1.73103
-1.55762
-1.52194
-1.50818
-1.36218
-0.931663
-1.06746
-0.919437
-1.3022
-0.843527
-1.16853
-0.916062
-0.680272
-1.05873
-1.34101
-1.27011
-0.784161
-0.436493
-0.850706
-1.62051
-0.971075
-0.829538
185.494
185.567
195.944
159.232
159.108
169.565
169.515
182.384
182.8
195.758
169.48
156.427
112.101
136.789
149.914
162.491
32.3316
7.64783
44.6736
54.7843
79.7606
32.7632
60.6529
-1.55966
-1.8881
-1.57619
-1.00751
-2.31769
-1.41551
-1.37937
-2.4677
-2.47599
-2.39798
-2.56504
-2.4786
-2.54129
-2.46245
-2.4222
-2.49447
-2.88306
-2.88035
-3.0646
-3.13496
-3.06598
-2.97663
-2.92575
-2.73588
-2.98502
-2.85327
-3.15787
-3.27268
-3.09165
-3.14547
-2.93012
-2.84557
3.23706
-0.754223
2.16606
5.40245
0.72446
0.422676
2.70425
-2.63468
-6.20748
-15.3571
12.8843
-7.17275
9.33656
14.7249
-1.50538
-1.49725
-1.57159
-1.48358
-1.54482
-1.51733
-1.58231
-1.67435
-1.71372
-1.76001
-1.72964
-1.68997
-1.75664
-1.79541
-1.60719
-1.61227
-1.67709
-1.63752
-1.58294
-1.62051
-1.68029
-1.65514
-1.71965
-1.63917
-1.6333
-1.69239
-1.61889
-1.55878
-1.64186
-1.58463
-1.89913
-1.95734
-1.8846
-1.90179
-1.85703
-1.95821
-1.90457
-2.09297
-2.00362
-2.06568
-2.09504
-2.15375
-2.0427
-2.09693
-2.09579
-2.1258
-2.18537
-2.06864
-2.01045
-2.06945
-2.12088
-2.5758
-2.5456
-2.48126
-2.58113
-2.64153
-2.58031
-2.5187
-2.2757
-2.33256
-2.33898
-2.33389
-2.39122
-2.42922
-2.36652
-2.68
-2.58271
-2.61452
-2.30007
-2.33032
-2.23304
-2.89121
-2.8309
-2.8351
-2.83886
-2.891
-2.85253
-2.80517
-2.82043
-2.83558
-2.8889
-2.72765
-2.79006
-2.77621
-2.82979
-2.86242
-2.92316
-2.80593
-2.81781
-2.72162
-2.78724
-2.8915
-2.83239
-2.86165
-2.80181
-2.75386
-2.81721
-2.92699
-2.8923
-2.88716
-2.86097
-2.83053
-2.81711
-2.7221
-2.7852
-2.8492
-2.8964
-2.89823
-2.92754
-2.84141
-2.83931
-2.86128
-2.86194
-2.27442
-2.25525
-2.1808
-2.28417
-2.37149
-2.2613
-2.33973
-2.28236
-2.20801
-1.93812
-1.86488
-1.96547
-1.98039
-2.06563
-1.91534
-1.98964
-1.91764
-2.02069
-1.97255
-1.87753
-1.90996
-2.0048
-1.95618
-1.64456
-1.66819
-1.71305
-1.65173
-1.73878
-1.75777
-1.68016
-1.14049
-1.0565
-1.07841
-1.22565
-1.19745
-1.01974
-0.960111
-1.02923
-1.01941
-1.09038
-0.976818
-1.0418
-0.834307
-0.775564
-0.783953
-0.81665
-0.758709
-0.786007
-0.843093
-0.629157
-0.575083
-0.579339
-0.601715
-0.546702
-0.575665
-0.624055
-2.1342
-2.16098
-2.17213
-2.1337
-2.16277
-2.15825
-2.11437
-2.2139
-2.21004
-2.18633
-2.22447
-2.23977
-2.21657
-2.23529
-2.22155
-2.19676
-2.20003
-2.22653
-2.2294
-2.23408
-2.22046
-2.24126
-2.23318
-2.11293
-2.11742
-2.13561
-2.14806
-2.15442
-2.13403
-2.12692
-2.09749
-2.11787
-2.10087
-2.08141
-2.10469
-2.07513
-2.09668
-2.04785
-2.05908
-2.07362
-2.09498
-2.08417
-2.0635
-2.07585
-1.82725
-1.84949
-1.8205
-1.80672
-1.82934
-1.78874
-1.81169
-1.72301
-1.6964
-1.73195
-1.74675
-1.76884
-1.70746
-1.72542
-1.72685
-1.74701
-1.77243
-1.75105
-1.75004
-1.72707
-1.75539
-1.74888
-1.77298
-1.75078
-1.77445
-1.66764
-1.69407
-1.6756
-1.67415
-1.69456
-1.68876
-1.66848
-1.69685
-1.66996
-1.69966
-1.68518
-1.66564
-1.66679
-1.67023
-1.67749
-1.69829
-1.52258
-1.49481
-1.60267
-1.65728
-1.65085
-1.67199
-2.54234
-3.65175
-3.07568
-3.94856
-4.33783
0.0482665
-0.442657
-1.26422
-1.39305
-0.747892
-2.92228
-2.18139
-2.35925
-2.57393
-2.71044
-5.75938
-3.08067
-2.96684
-1.48453
-2.61811
-0.988598
-0.99976
-0.433892
-0.930778
-1.01676
-2.21321
-0.84616
-1.39712
-1.19278
-1.18842
-0.850302
0.0349978
81.8167
57.3045
49.0932
28.2763
17.8574
34.0174
52.663
152.235
139.211
165.502
106.635
133.793
147.025
182.073
155.77
155.792
129.302
158.331
184.422
150.425
158.216
184.252
136.798
111.019
163.305
137.384
170.291
196.379
170.114
182.846
182.77
193.383
156.779
156.483
178.948
179.553
153.348
152.773
185.909
185.549
196.151
159.297
159.255
169.691
143.668
164.293
150.63
137.314
188.337
161.272
154.138
188.568
162.045
141.571
167.774
133.805
106.321
146.411
160.843
134.3
106.526
133.525
24.0743
40.1213
3.95291
80.5404
51.2792
24.8631
53.2882
33.4842
18.9503
49.6609
58.4305
84.2884
33.8026
56.6906
-2.04285
-2.02786
-2.09678
-2.05189
-2.01515
-2.1408
-2.04912
-1.8701
-1.86172
-1.85721
-1.90288
-1.82435
-1.83498
-1.86407
-1.90377
-1.94059
-1.92759
-1.98147
-1.92458
-1.96246
-1.97488
-2.14341
-2.05846
-2.0279
-2.0505
-1.98698
-2.07547
-1.99967
-2.02219
-2.12831
-2.3245
-2.29471
-2.2289
-2.17808
-2.14886
-2.19342
-2.18695
-2.26137
-2.28457
-3.76742
-3.561
-3.77551
-4.02219
-3.78065
-3.75081
-3.71308
-0.606922
-0.632281
-0.576393
-0.696654
-0.670427
-0.629492
-0.656609
-0.571431
-0.521283
-0.572855
-0.607208
-0.558339
-0.581674
-0.631524
-0.779396
-0.844032
-0.791583
-0.73556
-0.796074
-1.17828
-1.1844
-1.24882
-1.16646
-1.10308
-1.14293
-1.19833
-1.28187
-1.2177
-1.22315
-1.24444
-1.19425
-1.23348
-1.28496
-1.21378
-1.16044
-1.23785
-1.2126
-1.26046
-1.31265
-1.2597
-1.44085
-1.35992
-1.41494
-1.44428
-1.49768
-1.39789
-1.44499
-1.44045
-1.46582
-1.52357
-1.36346
-1.41725
-1.41643
-1.46611
-1.73346
-1.64847
-1.652
-1.64578
-1.58998
-1.59205
-1.6394
-1.67612
-1.56508
-1.64084
-1.66405
-1.61688
-1.56813
-1.86993
-1.94978
-1.86545
-1.83972
-1.78916
-1.89577
-1.78752
-1.83857
-2.12432
-2.09752
-2.18436
-2.05698
-2.08756
-1.99836
-2.17405
-2.11302
-2.0565
-2.11075
-2.66102
-2.59771
-2.57068
-2.5367
-2.47314
-2.53752
-2.59508
-2.5617
-2.59749
-2.66148
-2.53173
-2.469
-2.53761
-2.59371
-2.83163
-2.85146
-2.7991
-2.52457
-2.55933
-2.45664
-2.65422
-2.58664
-2.52343
-2.58402
-2.83318
-2.85558
-2.921
-2.80021
-2.85863
-2.8535
-2.84864
-2.91953
-2.85708
-2.84104
-2.82492
-2.78899
-2.88982
-2.89016
-2.92517
-2.82495
-2.82235
-2.84557
-2.84682
-2.87225
-2.79175
-2.80072
-2.87274
-2.80538
-2.76312
-2.82294
-2.45075
-2.37058
-2.47794
-2.4919
-2.58047
-2.51408
-2.4415
-2.50787
-2.58368
-1.77933
-1.82298
-1.72958
-1.94505
-1.88395
-1.81848
-1.86492
-1.27391
-1.28891
-1.36533
-1.20866
-1.33986
-1.27847
-1.38146
-0.907961
-0.960689
-0.881927
-0.930383
-0.854764
-0.815767
-0.7496
-0.740664
-0.709511
-0.749784
-0.73336
-0.776518
-0.671479
-0.623377
-0.629192
-0.713053
-0.725718
-0.690567
-0.698111
-0.64832
-0.647321
-2.77338
-2.55464
-2.67374
-2.81316
-2.63488
-2.79986
-2.72724
-2.70137
-2.79928
-2.34565
-2.35202
-2.32665
-2.32924
-2.34656
-2.34135
-2.32472
-2.31986
-2.32331
-2.31105
-2.30479
-2.30046
-2.30968
-2.31668
-2.28759
-2.28429
-2.29479
-2.29048
-2.28675
-2.3036
-2.29922
-2.2938
-2.29968
-2.24876
-2.25508
-2.24042
-2.26945
-2.26161
-2.24951
-2.25916
-1.94146
-1.95679
-1.96135
-1.97607
-1.95746
-1.98229
-1.96728
-1.88477
-1.87482
-1.85742
-1.88543
-1.90604
-1.90814
-1.88505
-1.89486
-1.8741
-1.91472
-1.88853
-1.86325
-1.88591
-1.8839
-1.90608
-1.91619
-1.83583
-1.81521
-1.8156
-1.81485
-1.78928
-1.80459
-1.78641
-1.84431
-1.81219
-1.82585
-1.75462
-1.71387
-1.74315
-1.64745
-1.65202
-1.65916
-1.52418
-1.45566
-1.48833
-1.59136
-1.62876
-1.5511
-1.49694
163.558
150.64
137.255
159.258
146.63
131.617
134.253
109.008
107.787
133.637
197.822
170.442
171.336
187.298
187.424
197.847
161.156
160.983
171.573
171.344
167.11
154.114
141.122
188.957
162.532
154.874
168.902
141.667
162.711
189.588
168.263
194.398
154.982
168.6
141.641
168.142
13.9902
33.0771
50.7017
58.7666
85.4923
60.2955
34.7139
28.5143
7.53071
44.8468
54.4544
81.9916
30.8366
55.3852
-0.653667
-0.733192
-0.206404
0.13841
0.728421
-0.491363
-1.26504
-1.69361
-1.75477
-1.66011
-1.67214
-1.2822
-1.79673
-1.69542
-3.91655
-3.92731
-0.265502
-11.9374
-0.463915
-4.52599
-3.08764
22.8581
-19.3882
2.3858
-4.00599
-3.88753
15.4725
3.54964
-0.788244
-0.144862
-0.892858
-1.35371
-3.19226
-0.606454
-0.598914
-1.50506
-0.900463
-1.19917
-2.19077
-1.56809
-1.26888
-1.18236
-0.595482
-0.731847
-0.43385
-0.393278
-0.253803
-0.347334
-0.69413
-0.576855
-0.551509
-0.57697
-0.641245
-0.610456
-0.598584
-0.630462
-0.805016
-0.812982
-0.868936
-0.793246
-0.737485
-0.774357
-0.823703
-0.844477
-0.898718
-0.838875
-0.860978
-0.816944
-0.901691
-0.852798
-0.914302
-0.852803
-0.864525
-0.873081
-0.830288
-0.868097
-0.91437
-0.923508
-0.86202
-0.875327
-0.879169
-0.839303
-0.923268
-0.879645
-1.1106
-1.05991
-1.03628
-1.08407
-1.03639
-1.00611
-0.962907
-0.987003
-1.0319
-0.854398
-0.778532
-0.828263
-0.856518
-0.903276
-0.812292
-0.854975
-0.849674
-0.873301
-0.923412
-0.829395
-0.782872
-0.830199
-0.873167
-1.03944
-0.986535
-1.04134
-1.03919
-1.08682
-1.11911
-1.06751
-1.29138
-1.23858
-1.23771
-1.1598
-1.21249
-1.19177
-1.24079
-1.03738
-0.961915
-1.01429
-1.31793
-1.23993
-1.26563
-1.52715
-1.47093
-1.44867
-1.73345
-1.67233
-1.64864
-1.62209
-1.67489
-1.5675
-1.62382
-1.63922
-1.6691
-1.72238
-1.60595
-1.55527
-1.94461
-1.88977
-1.86638
-1.83975
-1.7784
-1.83707
-1.89039
-1.60371
-1.53408
-1.59308
-1.62701
-1.57343
-1.5309
-1.58545
-1.93623
-1.85584
-1.88749
-1.86536
-1.82412
-1.88217
-1.93088
-2.27353
-2.31839
-2.37949
-2.22449
-2.16973
-2.64767
-2.57971
-2.5643
-2.65047
-2.58547
-2.5931
-2.53275
-2.12677
-2.20372
-2.21342
-2.23763
-2.15933
-2.18909
-2.1201
-2.5721
-2.62995
-2.53051
-2.56432
-2.6225
-2.53452
-2.49098
-2.81585
-2.77792
-2.83451
-2.80401
-2.87269
-2.78256
-2.72064
-2.79449
-2.74087
-2.65278
-2.83741
-2.91756
-2.76039
-2.88644
-2.79606
-2.77229
-2.78991
-2.71468
-2.63277
-2.72913
-2.88772
-2.88837
-2.92667
-2.8005
-2.78424
-2.8206
-2.74602
-2.81988
-2.79059
-2.75171
-2.87461
-2.87312
-2.91955
-2.78699
-2.78171
-2.80937
-2.80844
-2.71023
-2.60175
-2.72855
-2.60243
-2.6961
-2.76735
-2.68121
-2.8442
-2.73177
-2.74592
-2.84313
-2.75368
-2.69778
-2.77751
-2.32417
-2.47012
-2.33931
-2.3952
-2.28911
-2.46459
-2.3555
-3.53102
-3.48963
-3.887
-3.48585
-3.20779
-3.37045
-3.72724
-4.00664
-3.95048
-3.9602
-3.92849
-3.73144
-4.02321
-3.88807
-3.28276
-3.10623
-3.03904
-3.1624
-3.02954
-3.16771
-2.98599
-3.09847
-3.08739
-3.20544
-2.98846
-3.0759
-2.948
-3.05696
-3.10943
-2.99897
-2.87695
-2.80037
-2.82909
-3.04588
-2.95703
-2.87133
-2.92416
-2.70161
-2.74182
-2.75594
-2.69343
-2.74691
-2.68931
-2.73441
-2.47094
-2.45633
-2.48316
-2.49295
-2.51789
-2.49667
-2.51996
-2.47303
-2.49155
-2.4877
-2.51387
-2.49297
-2.46514
-2.47875
-2.47109
-2.48726
-2.50442
-2.48579
-2.39887
-2.42561
-2.40899
-2.41835
-2.43488
-2.40268
-2.41534
-2.32859
-2.32178
-2.30729
-2.33042
-2.34431
-2.33176
-2.31596
-2.32973
-2.32233
-2.34159
-2.30347
-2.31602
-2.32968
-2.31568
-2.20926
-2.2026
-2.18751
-2.21249
-2.22826
-2.2141
-2.19708
-2.2303
-2.21468
-2.20104
-2.21444
-2.22941
-2.19653
-2.21443
-2.1554
-2.17138
-2.15212
-2.14306
-2.12669
-2.13903
-2.1564
-2.00459
-2.02222
-2.02679
-2.00485
-2.02463
-2.03502
-2.01563
-2.06646
-2.08699
-2.08748
-2.11489
-2.09659
-2.08617
-2.1059
-1.99574
-2.02329
-2.0216
-2.05156
-1.99802
-2.032
-1.92994
-1.94822
-1.95612
-1.94928
-1.93173
-1.95945
-1.96541
-1.98258
-1.94745
-1.96649
-1.85462
-1.8718
-1.88264
-1.80925
-1.63184
-1.55521
-1.73578
-1.72153
-0.9671
-1.94909
159.94
146.805
133.074
134.705
108.095
105.492
133.698
198.732
172.169
172.015
188.848
189.455
199.719
163.283
163.303
173.906
173.655
168.532
156.197
143.175
53.0511
65.0551
36.8021
16.8337
38.7417
40.3006
14.1229
44.8059
31.4514
5.5378
32.6964
56.9265
29.5296
8.01934
-2.21063
-2.84579
-2.78875
-1.23322
-1.34664
-2.18097
-2.22669
-3.36747
-6.34505
16.5244
24.9234
33.2581
6.58909
-6.81289
19.3438
-1.96517
-1.36027
-4.14341
3.68142
26.8768
12.2845
-18.6654
-11.4257
-2.4874
-0.944689
-0.948028
-1.13472
-0.980245
-0.861313
-0.325369
-0.467803
-1.0617
0.483051
0.457394
0.420314
0.472164
0.416455
0.330053
0.326662
0.321696
0.326096
-0.0669552
-0.134602
0.0586608
0.00944248
-0.0537449
0.139038
0.148086
-0.495897
-0.544282
-0.486371
-0.546217
-0.502439
-0.506739
-0.466247
-0.508913
-0.555843
-0.496994
-0.555743
-0.513517
-0.51717
-0.476426
-0.56534
-0.496264
-0.517379
-0.490973
-0.450832
-0.492076
-0.536766
-0.719026
-0.676409
-0.672471
-0.629222
-0.674658
-0.648582
-0.603429
-0.486817
-0.440405
-0.490349
-0.482287
-0.441029
-0.725972
-0.679307
-0.676365
-0.684059
-0.729114
-0.425606
-0.487279
-0.425143
-0.465002
-0.505755
-0.742334
-0.679674
-0.660282
-0.702777
-0.745706
-0.858606
-0.926052
-0.877156
-1.03516
-1.10932
-1.05389
-0.962648
-1.01394
-0.768334
-0.816373
-0.831648
-0.852158
-0.807012
-0.814603
-0.768872
-1.23232
-1.18124
-1.21008
-1.1422
-1.19488
-1.1415
-1.19114
-1.08657
-1.03273
-1.02346
-1.03945
-1.08975
-1.05015
-1.00113
-1.48985
-1.43208
-1.41091
-1.32679
-1.3866
-1.3828
-1.43736
-1.76762
-1.82091
-1.71952
-1.70968
-1.75453
-1.63102
-1.68368
-2.00858
-2.00006
-1.90004
-1.9198
-2.02498
-1.97918
-1.88035
-2.79824
-2.78152
-2.72579
-2.75286
-2.85191
-2.72384
-2.63676
-2.73905
-2.66294
-2.54272
-2.79601
-2.91057
-2.69203
-2.86049
-2.86934
-2.9172
-2.79481
-2.76277
-2.80145
-2.83795
-2.77634
-2.76998
-2.6928
-2.93119
-3.16543
-2.80801
-2.84029
-2.70192
-2.85364
-3.09475
-2.9105
-2.5009
-1.97947
-1.89868
-2.22565
-2.22115
-2.45329
-2.70918
-2.36762
-2.6674
-74.3027
-38.2718
-32.2323
1.38372
-23.8531
20.9269
-1.84868
-2.11108
-1.21282
-1.61214
-2.62647
-2.25624
2.42813
-4.96901
-5.47046
-5.30711
-3.32649
-4.02783
-3.37864
-4.76415
-3.36714
-3.70887
-3.36053
-3.20598
-3.08946
-2.77131
-3.10514
-2.66054
-2.84644
-2.911
-3.97524
-2.92142
-3.05179
-3.43563
-3.0379
-2.97178
-2.98932
-3.02708
-2.95782
-2.89935
-2.99794
-2.82371
-2.83521
-2.83631
-2.84363
-2.83748
-2.82267
-2.82577
-2.84276
-2.84137
-2.88634
-2.86573
-2.90298
-2.92833
-2.89816
-2.88059
-2.89883
-2.8404
-2.80677
-2.81699
-2.81686
-2.78906
-2.81429
-2.78509
-2.70573
-2.725
-2.71201
-2.71424
-2.69267
-2.70839
-2.68409
-2.54764
-2.54062
-2.52419
-2.53324
-2.55422
-2.53948
-2.52275
-2.37447
-2.38897
-2.37182
-2.36401
-2.34943
-2.36018
-2.37548
-2.30491
-2.31435
-2.31989
-2.31679
-2.33298
-2.33583
-2.32407
-2.25298
-2.23863
-2.25924
-2.25853
-2.27694
-2.26867
-2.25058
-2.27847
-2.258
-2.2836
-2.26051
-2.23654
-2.2596
-2.25749
-2.2779
-2.28476
-2.22063
-2.20512
-2.20269
-2.20435
-2.18376
-2.18155
-2.19553
-2.2053
-2.22798
-2.21385
-2.12785
-2.14666
-2.14948
-2.16374
-2.14596
-2.17269
-2.15699
-2.15672
-2.15021
-2.17226
-2.1459
-2.12934
-2.14318
-2.16093
-2.14413
-2.1239
-2.13661
-2.08655
-2.0643
-2.078
-2.09286
-2.08348
-2.06807
-2.10001
-2.11519
-2.09975
-2.08396
-1.96637
-1.95878
-1.95793
-1.93469
-1.97304
-1.99822
-2.04825
-1.52535
-1.55914
-1.4147
-1.21521
-1.58924
-1.11093
-1.51446
59.7358
49.4393
84.2258
34.0587
10.8627
32.0703
57.1452
52.935
39.2195
64.219
94.018
68.6833
66.3685
92.466
200.696
199.793
211.185
174.96
174.43
185.962
185.368
177.555
204.339
176.257
179.812
165.154
152.565
-0.167106
-0.212909
-0.156669
-0.172212
-0.214216
-0.137586
-0.176882
-0.178418
-0.221677
-0.165858
-0.181499
-0.222258
-0.145574
-0.183139
-0.227157
-0.16918
-0.183091
-0.18624
-0.149118
-0.187035
-0.227829
-0.16252
-0.180284
-0.223199
-0.145598
-0.100453
-0.142163
-0.181537
-0.372392
-0.32699
-0.325333
-0.259377
-0.304151
-0.287229
-0.328368
-0.329464
-0.395694
-0.349796
-0.334009
-0.391503
-0.346659
-0.352474
-0.314283
-0.391824
-0.35078
-0.329561
-0.386309
-0.340462
-0.308905
-0.346671
-0.387784
-0.346035
-0.37731
-0.33326
-0.321289
-0.301158
-0.339192
-0.337061
-0.378484
-0.295622
-0.266888
-0.229018
-0.354313
-0.31669
-0.306402
-0.271525
-0.573302
-0.546942
-0.566456
-0.502862
-0.493244
-0.511269
-0.524013
-0.637433
-0.692709
-0.66654
-0.615865
-0.665608
-0.670231
-0.619016
-0.642867
-0.670827
-0.68604
-0.646742
-0.703426
-0.619322
-0.595234
-0.605246
-0.582495
-0.553849
-0.61893
-0.587457
68.2361
-12.4164
31.4822
25.1007
-2.9639
-7.16033
1.68348
-4.74249
-5.02192
-5.54972
-4.78875
-4.97288
-6.1378
-6.63401
-3.36764
-3.66824
-3.09701
-2.98363
-2.78298
-2.71133
-2.65861
-3.14065
-3.25998
-3.18709
-2.9968
-2.96171
-2.96827
-2.94789
-2.97658
-2.96315
-2.96912
-3.01123
-2.94972
-2.98671
-2.92806
-2.9202
-2.96233
-2.90894
-2.94673
-2.95236
-2.93641
-2.93839
-2.93071
-2.91654
-2.91946
-2.90617
-2.90949
-2.83722
-2.835
-2.84971
-2.85336
-2.84526
-2.86244
-2.87122
-2.76029
-2.77921
-2.78115
-2.76636
-2.78218
-2.77284
-2.75524
-2.71512
-2.71459
-2.69624
-2.6992
-2.71968
-2.70925
-2.69172
-2.65565
-2.65534
-2.63968
-2.66071
-2.67507
-2.66874
-2.65115
-2.58886
-2.57735
-2.5948
-2.59809
-2.61204
-2.59288
-2.60702
-2.58172
-2.59498
-2.60536
-2.59248
-2.58259
-2.60685
-2.59219
-2.57687
-2.59269
-2.41915
-2.412
-2.39985
-2.4409
-2.42601
-2.42581
-2.41106
-2.38767
-2.36949
-2.37733
-2.40181
-2.42094
-2.4222
-2.43648
-2.41818
-2.44418
-2.4281
-2.35043
-2.36494
-2.36289
-2.36666
-2.34483
-2.39361
-2.30864
-2.31559
-2.29509
-2.32145
-2.33684
-2.31921
-2.30961
-2.29654
-2.30724
-2.32336
-2.24878
-2.25739
-2.23488
-2.26831
-2.28518
-2.26118
-2.25443
-2.27149
-2.26997
-2.28627
-2.15916
-2.14749
-2.1688
-2.17644
-2.18835
-2.16232
-2.17542
-2.17843
-2.2513
-2.28548
-2.24232
-2.20729
-1.99471
-2.00344
-1.97722
-1.97002
-2.05091
-1.99295
-1.96598
-2.32193
-2.2367
-2.2984
-2.26142
-2.29635
-2.22594
-2.29091
-2.04084
-1.99493
-1.9932
-2.11714
-2.17373
-2.677
-2.56268
-2.58664
-2.9576
-2.93456
-3.09443
-3.16703
-1.79232
-1.77725
-1.90454
-1.99804
-1.83517
-1.99393
-1.68873
5.99126
6.74623
4.48562
4.64539
5.58631
1.09978
0.547229
167.353
179.011
153.942
203.182
175.837
169.033
156.481
183.041
203.64
176.923
171.369
183.894
210.815
158.31
184.32
184.758
196.34
197.496
206.791
169.189
169.988
178.975
179.875
184.667
212.705
186.166
0.157865
0.194552
0.153644
0.135307
0.0932887
0.117182
0.156679
0.158451
0.177896
0.217568
0.0667552
0.0272286
0.00872651
0.0282349
0.0688986
-0.00740147
0.0356952
0.328047
0.345251
0.364054
0.362307
0.403268
0.402878
0.364147
0.196622
0.177822
0.217026
0.250971
0.211988
0.21227
0.249218
-0.334116
-0.317315
-0.328371
-0.319842
-0.274853
-0.286197
-0.30367
-0.380023
-0.411549
-0.381156
-0.362571
-0.3931
-0.376931
-0.401209
-0.457326
-0.192273
-0.467411
0.566862
-0.482902
-0.52362
-0.476183
-0.674544
-0.606131
-0.74736
-0.635599
-0.703398
-1.11616
-0.440127
-2.85282
-2.61433
-2.80623
-2.94846
-2.75263
-3.16556
-3.10308
-2.87212
-2.78787
-2.83113
-2.85999
-2.73265
-2.91587
-3.04626
-2.93274
-2.79893
-2.64148
-2.69319
-2.64048
-2.73074
-2.69757
-2.86516
-2.74146
-2.84867
-2.82028
-2.82053
-2.81773
-2.79493
-2.79807
-2.83068
-2.89993
-2.89275
-2.92456
-2.91621
-2.93667
-2.9119
-2.93462
-2.91928
-2.92408
-2.90556
-2.91873
-2.93989
-2.92308
-2.92953
-2.91765
-2.93902
-2.91196
-2.92489
-2.92548
-2.93892
-2.94075
-2.93933
-2.92795
-2.93063
-2.92261
-2.92575
-2.8517
-2.84448
-2.83837
-2.8472
-2.83899
-2.82267
-2.83077
-2.82827
-2.83654
-2.66131
-2.68423
-2.67649
-2.67286
-2.68938
-2.67529
-2.66004
-2.62446
-2.6092
-2.63002
-2.60608
-2.6218
-2.61625
-2.63476
-2.55685
-2.5755
-2.57812
-2.5901
-2.57493
-2.5984
-2.58427
-2.5418
-2.52768
-2.52471
-2.50468
-2.52434
-2.51556
-2.50214
-2.54881
-2.5269
-2.53339
-2.47556
-2.45294
-2.47145
-2.47049
-2.48032
-2.49318
-2.41004
-2.41925
-2.40134
-2.39644
-2.38008
-2.37041
-2.39897
-2.38254
-2.36565
-2.38278
-2.2518
-2.24153
-2.25139
-2.23392
-2.24784
-2.23413
-2.24878
-2.17885
-2.19794
-2.19105
-2.18637
-2.20556
-2.20744
-2.19025
-2.28137
-2.27297
-2.2554
-2.27109
-2.30101
-2.2781
-2.25813
-2.25703
-2.26355
-2.25041
-2.29027
-2.27078
-2.28806
-2.27511
-2.35068
-2.30091
-2.28128
-2.29004
-2.34427
-2.36134
-2.30477
-2.7301
-2.76973
-2.7909
-2.71644
-2.85744
-2.88029
-2.76502
-2.39048
-2.42343
-2.48431
-2.57802
-2.53167
-2.87028
-2.8292
-2.70634
-2.81668
-2.99496
-2.87227
-2.74317
-2.42032
-2.30133
-2.33806
-2.26383
-2.35064
-2.3055
-2.38667
-2.76468
-2.51445
-2.56232
-2.97102
-2.81052
-2.64118
-2.72271
163.119
150.425
178.234
192.276
165.719
158.153
171.909
145.108
192.657
165.949
161.066
175.426
200.369
148.124
173.628
173.216
189.425
189.66
199.95
163.033
163.106
173.369
173.585
175.079
201.927
175.451
0.568259
0.623947
0.609395
0.642012
0.678961
0.607149
0.644143
0.463836
0.496889
0.457879
0.424323
0.460635
0.400312
0.439145
0.307018
0.310996
0.269807
0.368502
0.330721
0.344954
0.308224
0.465363
0.48122
0.518823
0.246764
0.286294
0.304699
0.248436
0.292153
0.303348
0.320869
0.286733
0.287208
0.248559
0.341974
0.375772
0.319568
0.29822
0.259213
0.33542
0.299458
0.37532
0.340086
-3.51146
-3.56398
-3.37515
-3.31206
-3.33128
-3.46892
-3.47193
-3.63636
-3.75079
-3.54338
-3.61985
-3.77342
-3.5373
-3.63735
-2.83486
-2.83329
-2.82904
-2.82742
-2.84285
-2.83787
-2.83126
-2.91809
-2.91253
-2.92864
-2.88672
-2.86713
-2.87897
-2.89075
-2.87771
-2.86671
-2.87845
-2.92139
-2.93628
-2.91675
-2.91855
-2.90727
-2.92456
-2.93765
-2.93258
-2.91813
-2.92784
-2.94116
-2.93032
-2.94124
-2.94076
-2.93982
-2.9308
-2.93278
-2.92735
-2.92473
-2.93226
-2.92015
-2.91537
-2.9261
-2.93963
-2.91945
-2.9139
-2.92877
-2.92944
-2.93804
-2.92269
-2.91776
-2.93956
-2.92553
-2.91387
-2.93124
-2.7881
-2.80006
-2.7793
-2.79253
-2.77412
-2.78893
-2.80315
-2.67812
-2.6595
-2.67482
-2.67004
-2.68002
-2.69508
-2.62333
-2.60485
-2.62453
-2.63213
-2.64847
-2.61901
-2.63303
-2.65027
-2.5675
-2.57207
-2.55558
-2.53496
-2.55518
-2.53742
-2.52747
-2.54591
-2.55869
-2.54106
-2.53636
-2.55236
-2.52997
-2.54038
-2.52283
-2.55429
-2.53864
-2.46967
-2.48773
-2.47578
-2.49904
-2.48263
-2.50076
-2.48449
-2.4743
-2.48817
-2.46993
-2.48508
-2.501
-2.50171
-2.48591
-2.44643
-2.4322
-2.43064
-2.40732
-2.42195
-2.43345
-2.41781
-2.45493
-2.43901
-2.43005
-2.45662
-2.43999
-2.42453
-2.44211
-2.33246
-2.31645
-2.32912
-2.35043
-2.33775
-2.32679
-2.34084
-2.3067
-2.31072
-2.32559
-2.33278
-2.31909
-2.30864
-2.31679
-2.27946
-2.28879
-2.29294
-2.28795
-2.30023
-2.3075
-2.29746
-2.28914
-2.2838
-2.29334
-2.29159
-2.30152
-2.28216
-2.27788
-2.2789
-2.28374
-2.27944
-2.27271
-2.27353
-2.27532
-2.27767
-2.27624
-2.2742
-2.27725
-2.27788
-2.28473
-2.28134
-2.2763
-2.27768
-2.28455
-2.33546
-2.33693
-2.35044
-2.37822
-2.38246
-2.35178
-2.35625
-2.52183
-2.56031
-2.49094
-2.64472
-2.65312
-2.59651
-2.60447
-2.58918
-2.51917
-2.53496
-2.50132
-2.48861
-2.53509
-2.57573
-2.91612
-2.78276
-2.80294
-2.74498
-2.79384
-2.83982
-2.92325
-3.00255
-3.10427
-3.23645
-3.41086
-3.27701
-3.22308
-3.11996
0.0820929
-1.54074
10.7375
-0.777932
-1.15313
-7.8537
1.69704
156.152
143.055
169.607
190.456
164.15
156.299
143.14
169.487
190.504
164.158
157.42
170.655
196.812
144.301
170.397
170.503
173.777
200.1
173.791
190.285
164.011
156.1
142.929
169.062
164.005
190.126
140.684
114.559
153.764
166.764
193.047
140.58
166.828
166.75
43.9176
5.3948
29.7087
56.1887
30.5517
6.29333
27.4148
47.0184
55.5808
26.6183
7.65472
22.3042
19.9705
8.7263
3.18915
2.4112
5.09137
2.57536
2.05816
4.71319
3.48366
2.09377
4.35326
1.08556
1.22702
1.27194
1.18824
1.25937
1.43476
1.4445
1.38054
1.29397
1.23426
1.18822
1.18745
1.27289
1.26375
1.22162
1.22415
1.15405
1.17915
1.14546
1.15994
1.12917
1.1356
1.102
0.894383
0.843014
0.873344
0.911198
0.888191
0.846277
0.87451
0.892592
0.92544
0.878399
0.865878
0.830971
0.862143
0.895533
0.731075
0.691046
0.74339
0.763579
0.728051
0.75929
0.793423
0.683258
0.732433
0.720299
0.735111
0.766551
0.702895
0.735396
0.716776
0.683605
0.739248
0.787456
0.756063
0.563992
0.601482
0.607991
0.599024
0.632895
0.622995
0.657809
0.544485
0.582796
0.598209
0.580088
0.54396
0.726964
0.740127
0.690367
0.756859
0.789725
0.758381
0.725126
0.994687
0.953223
0.989019
1.00863
0.978535
0.950222
0.982474
1.05452
1.01645
1.03258
0.997617
0.968995
1.02617
1.00163
0.79977
1.3473
1.32409
1.47249
1.18138
1.18463
1.19764
44.7765
57.9009
84.8577
2.68616
3.53816
12.1464
1.59665
1.71719
4.07866
3.61214
3.34804
0.76969
1.82342
15.2942
32.2868
52.0351
50.7766
76.4898
57.3324
38.9492
1.20638
1.24127
1.24918
1.23595
1.2034
1.22969
1.25947
1.22868
1.24268
1.2021
1.27809
1.23749
1.26594
1.22801
1.14968
1.13984
1.16385
1.18271
1.17669
1.15867
1.17359
0.0529244
-0.0555848
-0.00366195
0.0479719
0.0277067
-0.062663
0.0110556
-0.142868
-0.0539989
-0.236756
-0.16426
-0.0808729
-0.193022
-0.298827
0.175701
0.112645
0.0439576
-0.0521854
0.0173588
0.0532021
-0.00389931
-0.0126575
-0.0748316
0.184658
0.188021
0.406734
0.177338
-0.164444
0.0617865
0.34591
11.8932
0.847515
-20.319
1.12533
-18.9667
4.22302
-0.00703268
-1.3808
-0.584344
9.24328
4.86368
-16.9699
14.3207
0.924173
-6.0001
-14.6471
-15.1719
-6.09244
-12.1737
-1.54546
8.43647
-0.234991
-3.32584
-1.60786
-1.59695
-2.43176
-2.53105
-0.0563143
-2.59423
-1.84618
-2.19773
-2.09991
-2.22504
-2.90375
-3.04633
-2.95482
-2.56622
-2.79898
-3.01008
-2.88696
-2.72935
-2.8829
-2.8377
-2.6487
-2.59235
-2.75652
-2.7578
-2.72797
-2.74669
-2.77755
-2.76331
-2.73352
-2.7874
-2.76218
-2.76099
-2.75695
-2.77444
-2.78265
-2.76325
-2.81551
-2.81226
-2.80018
-2.80603
-2.80799
-2.79993
-2.79153
-2.82026
-2.80969
-2.80331
-2.79895
-2.81509
-2.82353
-2.80942
-2.83814
-2.8231
-2.83456
-2.84181
-2.85066
-2.87672
-2.85707
-2.86898
-2.88217
-2.86725
-2.85483
-2.86818
-2.90996
-2.92621
-2.91974
-2.90012
-2.91123
-2.91138
-2.89873
-2.94119
-2.92777
-2.93162
-2.91946
-2.90327
-2.91392
-2.93559
-2.9218
-2.92969
-2.91692
-2.90911
-2.92101
-2.938
-2.93763
-2.94032
-2.92912
-2.92423
-2.90446
-2.91443
-2.92092
-2.92868
-2.94059
-2.93109
-2.92982
-2.84816
-2.87086
-2.86157
-2.86042
-2.87608
-2.86131
-2.84731
-2.8672
-2.87977
-2.86057
-2.86646
-2.84897
-2.85792
-2.8468
-2.87001
-2.88893
-2.87504
-2.82379
-2.80033
-2.81615
-2.81398
-2.82366
-2.83983
-2.79725
-2.78105
-2.77578
-2.758
-2.77032
-2.79634
-2.78177
-2.77117
-2.78514
-2.7729
-2.75883
-2.77873
-2.78096
-2.79324
-2.76954
-2.78655
-2.62691
-2.64225
-2.64292
-2.66448
-2.64852
-2.63917
-2.65602
-2.62774
-2.63381
-2.64314
-2.65905
-2.64563
-2.65843
-2.64448
-2.62358
-2.60632
-2.60306
-2.59606
-2.61594
-2.60934
-2.62762
-2.57467
-2.59479
-2.58632
-2.61392
-2.60123
-2.5395
-2.53286
-2.55288
-2.56331
-2.54663
-2.54831
-2.56618
-2.54035
-2.55365
-2.53495
-2.55245
-2.56861
-2.56814
-2.55221
-2.50822
-2.49244
-2.48928
-2.46605
-2.48124
-2.4783
-2.49451
-2.48745
-2.51285
-2.4948
-2.47684
-2.46507
-2.48973
-2.48295
-2.47039
-2.49645
-2.51117
-2.49703
-2.48178
-2.43015
-2.42349
-2.43923
-2.45797
-2.44102
-2.44161
-2.45777
-2.40637
-2.44189
-2.42689
-2.39771
-2.41181
-2.44078
-2.4247
-2.34395
-2.33098
-2.30952
-2.28882
-2.28588
-2.2986
-2.30311
-2.32601
-2.33415
-2.3657
-2.34483
-2.34798
-2.36863
-2.34112
-2.35526
-2.37865
-2.21989
-2.23326
-2.24565
-2.18446
-2.20864
-2.275
-2.27241
-2.29825
-2.26116
-2.28276
-2.29535
-2.27382
-2.14862
-2.18265
-2.16787
-2.16328
-2.18491
-2.18832
-2.16286
-2.44481
-2.43621
-2.41315
-2.3815
-2.39384
-2.41595
-2.42768
-2.54333
-2.51124
-2.46161
-2.55975
-2.59239
-2.50852
-2.59438
-2.8685
-2.91125