/*--------------------------------*- C++ -*----------------------------------*\
| =========                 |                                                 |
| \\      /  F ield         | OpenFOAM: The Open Source CFD Toolbox           |
|  \\    /   O peration     | Version:  v2012                                 |
|   \\  /    A nd           | Website:  www.openfoam.com                      |
|    \\/     M anipulation  |                                                 |
\*---------------------------------------------------------------------------*/
FoamFile
{
    version     2.0;
    format      ascii;
    class       volScalarField;
    location    "0.15";
    object      p_rgh;
}
// * * * * * * * * * * * * * * * * * * * * * * * * * * * * * * * * * * * * * //

dimensions      [1 -1 -2 0 0 0 0];


internalField   nonuniform List<scalar> 
6576
(
2763.61
2741.6
2747.93
2754.39
2768.83
2776.96
2752.67
2750.46
2770.03
2760.26
2798.09
2783.5
2770.92
2781.36
2742.21
2752.65
2718.5
2746.1
2746.13
2791.04
2731.58
2787.14
2790.22
2745.67
2772.87
2799.48
2847.46
2771.59
2739.41
2739.94
2760.97
2721.11
2759.35
2782.01
2778.17
2796.58
2772.93
2797.31
2761.03
2778.96
2747.74
2735.76
2762.92
192.301
142.786
198.199
115.826
193.981
201.159
197.306
200.912
201.046
-0.0113956
-0.0106944
-0.0036256
-0.0229879
-0.0215089
-0.0171799
-0.0192405
-0.00991273
-0.0226851
-0.0241469
-0.0316706
-0.0203337
-0.00862688
-0.0232712
-0.113333
-0.0979131
-0.0896333
-0.083668
-0.0971093
-0.067153
-0.082481
0.966849
1.70333
1.48421
1.65878
1.17565
1.37274
1.11585
0.0629151
0.113395
0.40501
0.118909
-0.435151
-0.2955
0.336604
1.66552
1.67957
1.63689
1.61263
1.66897
1.64927
1.62068
201.383
203.784
201.522
180.72
193.952
205.422
200.829
205.789
205.88
205.815
205.807
205.661
205.701
205.473
205.098
205.071
204.662
205.343
204.645
204.356
-0.126811
-0.0351218
-0.276684
-0.13354
-0.249442
-0.267449
-0.233474
256.11
2097.14
2515.78
2599.16
2393.86
2742.97
2793.4
-0.062732
0.0205812
-0.323539
-0.921253
0.0280228
-1.48821
-0.223076
1.27463
1.26564
1.26388
1.29667
1.29928
1.28889
1.28434
1.24966
1.26321
1.248
1.29065
1.28976
1.27682
1.27542
1.18676
1.18609
1.15807
1.20854
1.17863
1.16494
1.19142
1.2257
1.22846
1.26076
1.2426
1.24476
1.2972
1.29064
1.27945
1.27518
1.18865
1.15912
1.19295
1.21019
1.17436
1.16004
1.19206
1.24773
1.25058
1.28564
1.25812
1.26519
1.31382
1.32476
1.30213
1.29501
1.38079
1.41652
1.45443
1.40949
1.44875
1.52179
1.48247
1.45938
1.49985
1.42031
1.39944
1.33562
1.33848
1.40347
1.32312
1.39809
1.612
1.55859
1.65436
1.65311
1.62712
1.57915
1.63763
1.67364
1.5878
1.70641
1.63431
1.47712
1.49929
1.61717
1.19458
1.18062
0.761629
1.34461
0.846683
0.974413
1.06374
0.797685
0.794181
0.924837
0.867371
0.780719
0.815221
0.907039
0.937274
0.912191
1.02235
0.978623
0.990177
1.09126
1.07188
1.21248
1.21931
1.15711
1.21923
1.2957
1.25681
1.19777
1.10512
1.12878
1.15619
1.13913
1.08886
1.13186
1.08526
1.12017
1.14121
1.09783
1.09699
1.14997
1.09816
1.14548
1.14128
1.09804
1.13043
1.14362
1.11074
1.16021
1.12933
1.15675
1.12655
1.12262
1.11629
1.13774
1.14482
1.12383
1.12577
1.14557
202.587
202.192
202.347
202.267
202.465
202.511
201.507
202.311
202.219
196.249
200.939
201.988
197.448
202.111
195.349
143.984
-0.278459
-0.00288197
-1.59223
-3.13878
-2.54629
0.531546
1.95136
-1.85806
0.570968
198.047
201.103
196.009
-0.522952
-0.995749
-1.30449
-1.40388
-1.94188
-2.51416
-1.49738
-1.06842
-1.09919
-1.07745
-1.08142
-1.05555
-1.05539
-1.08124
281.07
97.1957
0.0244965
59.7928
-0.373529
2.85222
1.90529
0.437379
0.509259
-1.20606
-1.24773
-1.26101
-1.12032
-1.1513
-1.17589
-1.19671
-0.541895
-0.955744
-0.358051
-0.579607
-0.684086
0.170128
0.121621
-0.310498
0.13636
-0.0325772
0.427304
-0.0889357
0.731789
-0.260156
0.00389679
0.760542
-0.625824
26.0747
0.244703
-0.328641
-0.00564702
0.546715
0.148446
-0.250177
-0.227623
202.136
202.209
202.075
202.15
202.026
201.972
201.922
202.091
202.508
202.327
202.325
202.41
204.067
202.48
202.467
201.905
190.545
164.865
195.073
197.316
194.508
189.996
191.469
-0.931539
-0.225467
0.980522
1.59449
16.7272
3.62848
3.62365
-1.5349
-1.5826
-1.49145
-1.68479
-1.62463
-1.6479
-1.59534
-1.52881
-1.5748
-1.76632
-1.73733
-1.961
-2.04449
-2.00179
-1.85986
-1.83528
-1.48655
-1.76412
-1.63135
-1.95327
-2.01537
-1.88124
-1.96281
-1.72119
-1.61
36.3921
87.3087
396.856
154.435
27.3996
1.97285
42.2215
1488.19
1497.46
1514.03
1470.05
1445.09
1477.33
1518.26
0.863871
0.88513
0.837076
0.872526
0.837567
0.865057
0.826358
0.751834
0.73874
0.705589
0.722824
0.73622
0.695825
0.683329
0.762064
0.770117
0.731582
0.744877
0.773176
0.76188
0.728381
0.722881
0.684649
0.725712
0.731582
0.698768
0.732855
0.76668
0.723019
0.753975
0.588379
0.556449
0.589772
0.585721
0.604206
0.555579
0.582936
0.480378
0.530317
0.494531
0.480941
0.448507
0.507004
0.479049
0.479311
0.462443
0.429155
0.493324
0.525235
0.492509
0.467367
0.20778
0.224836
0.262898
0.20508
0.170952
0.205898
0.24123
0.377364
0.346781
0.342984
0.345448
0.314401
0.292169
0.328583
0.147371
0.205244
0.186571
0.364375
0.347266
0.40513
0.0328094
0.0668405
0.0582672
0.0588787
0.0330172
0.0539689
0.0750554
0.0685496
0.05778
0.0307398
0.121919
0.0857797
0.0908697
0.0635734
0.0455448
0.0110773
0.0757584
0.0716954
0.128471
0.0891247
0.0308486
0.0636854
0.0475588
0.0811242
0.10937
0.0722975
0.00943549
0.0309894
0.0361328
0.0491861
0.0664809
0.0733343
0.128921
0.0921006
0.0543796
0.0299549
0.028124
0.0093274
0.0586687
0.0607692
0.0493082
0.0486464
0.405788
0.411819
0.459985
0.409176
0.34814
0.418903
0.366759
0.397846
0.445923
0.623832
0.670788
0.609616
0.607841
0.548879
0.646607
0.598591
0.661823
0.598193
0.620052
0.688794
0.682645
0.614077
0.636423
0.816654
0.806161
0.774439
0.835759
0.774992
0.756001
0.807331
1.11927
1.16383
1.1682
1.07352
1.07544
1.22687
1.26022
1.23052
1.25347
1.20877
1.26979
1.23109
1.33785
1.37031
1.37506
1.38178
1.41344
1.38615
1.35534
1.54299
1.57079
1.57967
1.59671
1.62545
1.59648
1.57437
-0.386843
-0.426753
-0.398497
-0.43889
-0.441683
-0.410884
-0.393283
-0.584776
-0.541507
-0.54407
-0.63476
-0.623788
-0.613721
-0.606168
-0.566154
-0.567639
-0.693533
-0.746304
-0.709762
-0.753859
-0.71396
-0.734762
-0.700404
-1.04875
-1.02695
-1.03201
-1.03132
-1.01141
-1.01729
-1.03646
-0.980757
-0.974858
-0.99727
-0.990949
-0.987956
-1.01095
-1.00622
-0.983665
-0.968619
-0.970018
-0.951967
-0.967429
-0.973041
-0.95911
-1.02582
-1.02179
-1.03221
-1.03157
-1.02792
-1.03987
-1.03654
-1.05384
-1.05357
-1.04971
-1.05137
-1.04719
-1.06463
-1.05631
-1.05774
-1.05163
-1.04646
-1.05135
-1.06348
-1.06941
-1.07146
-1.06495
-1.06277
-1.05109
-1.04848
-1.08586
-1.10512
-1.09715
-1.09402
-1.08814
-1.09575
-1.09859
-1.09043
-1.08944
-1.08035
-1.1051
-1.10681
-1.08927
-1.088
-1.07293
-1.07879
-1.0012
1.27612
-1.03735
-1.0837
-1.01689
-1.11397
-1.75409
-2.7559
-1.52689
-3.09238
-2.78025
1.61973
1.28047
0.530117
0.448455
-0.0164418
-0.424194
0.249982
-1.59696
-1.71894
-1.82455
-4.03864
-2.11576
-2.34234
-0.611755
-1.43654
0.311074
-0.174514
0.398409
0.104328
-0.583976
11.668
0.571228
-0.390799
37.1955
0.821836
0.103085
0.755313
199.767
199.103
202.507
175.639
187.332
195.451
187.963
202.16
202.274
202.288
199.353
200.234
200.328
200.466
200.44
200.462
200.248
201.875
201.689
201.851
201.759
201.519
201.362
201.857
201.593
201.917
201.822
201.634
201.646
200.623
200.546
200.649
200.832
200.536
200.291
200.896
200.967
200.391
200.924
200.564
200.655
200.588
200.546
200.472
200.725
201.08
200.555
200.377
203.227
202.438
203.186
203.458
203.211
203.758
203.684
200.396
198.267
199.901
201.196
200.929
199.303
200.138
182.501
185.778
88.615
193.879
191.469
189.322
194.271
184.49
194.085
202.68
200.525
198.987
177.627
195.789
-1.69286
-1.65013
-1.66866
-1.57978
-1.56552
-0.939707
-1.47772
-1.34768
-1.38458
-1.33988
-1.46254
-1.36043
-1.34263
-1.39333
-1.22618
-1.16881
-1.3417
-1.20945
-1.35786
-1.40816
-1.28341
-1.51846
-1.47802
-1.42193
-1.48524
-1.42306
-1.49706
-1.43208
-1.3722
-1.52266
-1.60172
-1.59838
-1.54462
-1.52581
-1.47769
-1.52275
-1.49579
-1.57818
-1.57503
-2.50077
-2.64774
-2.86266
-2.93149
-2.87642
-2.80491
-2.7926
1.32437
1.31215
1.32863
1.2872
1.28715
1.30181
1.30096
1.35986
1.38374
1.37158
1.35036
1.37296
1.3759
1.35232
1.28328
1.24492
1.25796
1.27457
1.24033
0.976379
0.983396
0.945256
0.97506
1.01216
0.998583
0.969468
0.916587
0.941339
0.949023
0.927735
0.951651
0.938698
0.913496
0.927738
0.954807
0.916807
0.928927
0.907339
0.881427
0.908103
0.817174
0.858684
0.829941
0.816365
0.789246
0.836477
0.815659
0.819316
0.807087
0.775621
0.856898
0.829384
0.830205
0.806796
0.670525
0.716094
0.712568
0.714408
0.743931
0.741866
0.720785
0.701587
0.756002
0.719662
0.709591
0.730479
0.752957
0.599119
0.558691
0.603599
0.616192
0.640478
0.586422
0.642121
0.617346
0.466549
0.480212
0.432788
0.504979
0.487545
0.537326
0.440469
0.475223
0.505467
0.477489
0.163725
0.200757
0.214651
0.235489
0.272771
0.234674
0.203385
0.22363
0.200975
0.163267
0.240456
0.276908
0.23458
0.204761
0.0614415
0.0547517
0.08083
0.247614
0.225992
0.289266
0.170528
0.211822
0.24876
0.214448
0.0616368
0.0523829
0.0132367
0.0814753
0.0493332
0.0544571
0.059317
0.0147144
0.0508782
0.0669154
0.0699048
0.0926908
0.0365365
0.0361971
0.0116985
0.0751234
0.0777295
0.0650225
0.0637664
0.0517714
0.105991
0.0926432
0.0512795
0.0923605
0.117095
0.0835592
0.322369
0.376259
0.308314
0.307497
0.245208
0.285317
0.331615
0.29152
0.241994
0.782609
0.752096
0.806076
0.669443
0.704265
0.743459
0.723293
1.18728
1.18542
1.12214
1.2788
1.17388
1.20899
1.13228
1.45688
1.39101
1.4435
1.47386
1.5232
1.56658
1.60647
1.62854
1.67283
1.65883
1.64898
1.6321
1.58825
1.59695
1.61741
1.58609
1.54715
1.59544
1.56162
1.58515
1.61242
-0.127306
-0.496999
-0.593933
-0.758573
-0.586507
-0.704421
-0.659493
-0.649268
-0.72125
-0.615807
-0.609039
-0.609939
-0.638805
-0.629852
-0.624639
-0.634282
-0.677603
-0.654774
-0.681929
-0.688805
-0.710749
-0.693691
-0.674421
-0.776705
-0.799688
-0.770776
-0.766459
-0.789003
-0.740171
-0.762062
-0.769777
-0.749385
-0.842984
-0.836165
-0.860921
-0.811123
-0.829562
-0.843729
-0.827103
-0.970115
-0.959166
-0.961099
-0.952177
-0.959836
-0.942631
-0.953892
-0.991256
-0.994446
-1.00332
-0.990233
-0.984566
-0.986667
-0.989852
-0.988209
-0.993722
-0.980229
-0.993448
-0.99707
-0.993458
-0.991448
-0.987355
-0.981696
-1.0204
-1.02605
-1.02907
-1.02569
-1.02639
-1.0312
-1.03929
-1.01398
-1.02127
-1.0218
-1.07407
-1.07271
-1.07574
-1.07097
-1.04831
-1.08649
-0.974613
0.437675
0.232777
0.0975902
-0.881042
-0.197178
-0.404675
200.345
200.565
200.317
203.052
203.561
201.687
204.322
205.331
203.935
203.706
203.078
201.973
202.868
203.939
204.066
203.978
204.074
203.9
203.981
203.751
203.896
204.038
204.185
203.846
203.698
203.923
204.813
203.854
203.877
204.478
203.298
203.156
203.155
203.635
202.952
203.176
185.337
193.259
203.962
201.107
200.439
202.977
194.608
180.343
165.016
198.434
196.286
199.475
193.356
195.686
0.392933
6.05769
4.77792
9.26081
63.6291
5.8514
4.24804
-1.18085
-1.17321
-1.15252
-0.50949
-0.803477
-1.35234
-1.26534
53.2142
2.27026
127.779
5.52249
534.227
15.8674
31.7978
670.063
380.191
638.634
135.918
329.78
402.547
164.468
1.04215
5.309
6.17339
33.8651
12.0454
8.29545
16.1133
-0.0768153
0.562756
0.211916
-0.796461
-0.14002
0.125414
0.178347
0.642368
0.585135
0.829093
1.55993
1.18884
0.879032
0.533978
1.26686
1.27907
1.27988
1.24188
1.2464
1.25827
1.25266
1.13943
1.1446
1.11492
1.13806
1.16754
1.15695
1.13388
1.11748
1.08952
1.10995
1.10098
1.11874
1.08655
1.10916
1.07394
1.09602
1.09744
1.08888
1.1054
1.09386
1.07387
1.06473
1.08681
1.08664
1.08279
1.09638
1.06497
1.08232
0.97837
1.00278
1.01327
0.991761
1.01316
1.0303
1.04723
1.03627
1.01765
1.0883
1.12475
1.10129
1.0888
1.06832
1.10675
1.09035
1.09477
1.08428
1.06045
1.10191
1.12216
1.10111
1.08442
1.00924
1.03587
1.00996
1.00949
0.988134
0.971613
0.996936
0.890437
0.91696
0.915199
0.953692
0.927281
0.937495
0.914749
1.00954
1.0456
1.0195
0.878771
0.917358
0.904799
0.774669
0.804605
0.813725
0.670848
0.705685
0.716236
0.729653
0.703128
0.757964
0.727917
0.725655
0.708916
0.681913
0.745787
0.770193
0.564794
0.593356
0.603611
0.617103
0.65217
0.619782
0.592741
0.756784
0.787005
0.754281
0.746627
0.773931
0.790185
0.761911
0.577552
0.618527
0.600018
0.622142
0.637112
0.605334
0.582905
0.406677
0.374963
0.340132
0.442577
0.471054
0.181448
0.223129
0.225403
0.178651
0.21737
0.209748
0.243816
0.509636
0.45897
0.462406
0.451336
0.503352
0.473593
0.5163
0.230743
0.199171
0.259195
0.238524
0.206618
0.268317
0.28558
0.0772177
0.102005
0.0716992
0.0893474
0.0469495
0.106422
0.146443
0.0988654
0.134967
0.196774
0.0705505
0.0166804
0.12129
0.0381618
0.102262
0.117391
0.108413
0.157354
0.217496
0.14741
0.0402612
0.0396151
0.0118206
0.101201
0.117464
0.0916169
0.13991
0.0863277
0.102473
0.128219
0.0517422
0.0532383
0.0173174
0.113083
0.118355
0.10121
0.102144
0.162684
0.244877
0.157508
0.244195
0.176816
0.131845
0.191704
0.0798187
0.165963
0.147433
0.0808856
0.144056
0.182424
0.129003
0.478642
0.358973
0.450362
0.407622
0.487425
0.364521
0.447358
-0.879641
-0.881253
-1.30424
-0.926981
-0.604394
-0.73533
-1.00285
2.0074
0.676225
1.88756
-1.3606
-1.09607
-0.00693698
-0.688464
-0.422122
-0.604115
-0.501663
-0.672279
-0.431527
0.938147
-0.363173
-0.877286
-0.828514
-0.930393
-0.716448
-0.777565
-0.702148
-0.784887
-0.863565
-0.779351
-0.722041
-0.684849
-0.68736
-0.848489
-0.788696
-0.729759
-0.756385
-0.590764
-0.591555
-0.618822
-0.556306
-0.583515
-0.578467
-0.597287
-0.538705
-0.550366
-0.537788
-0.534436
-0.533101
-0.538158
-0.535167
-0.540794
-0.533036
-0.543264
-0.530018
-0.535391
-0.560111
-0.547443
-0.552926
-0.542815
-0.533708
-0.541352
-0.603331
-0.590661
-0.587176
-0.596531
-0.586787
-0.607138
-0.593521
-0.699468
-0.705787
-0.717579
-0.688154
-0.67577
-0.689493
-0.699973
-0.687468
-0.693205
-0.673051
-0.713755
-0.700027
-0.687416
-0.699696
-0.790349
-0.796817
-0.808004
-0.78044
-0.769927
-0.782047
-0.791304
-0.767591
-0.778247
-0.777743
-0.778011
-0.766695
-0.786374
-0.777995
-0.828446
-0.818159
-0.838308
-0.842384
-0.852293
-0.838359
-0.829454
-0.930548
-0.921906
-0.925531
-0.930812
-0.924317
-0.920626
-0.927513
-0.884908
-0.879159
-0.877024
-0.865014
-0.872999
-0.87834
-0.871794
-0.932496
-0.920629
-0.918941
-0.909479
-0.934773
-0.916202
-0.973485
-0.965494
-0.960251
-0.963924
-0.97265
-0.960957
-0.953777
-0.944666
-0.962093
-0.954855
-1.00327
-0.99417
-0.991877
12.0252
-1.0966
52.591
-1.4379
-1.37512
5.28559
6.27121
203.734
203.737
203.143
204.775
204.441
201.838
203.768
203.987
203.7
203.546
205.489
206.097
205.85
206.2
206.221
206.314
206.063
205.319
206.121
206.237
212.66
213.666
210.306
210.772
213.435
214.985
169.482
199.834
202.984
142.334
203.242
205.024
201.08
89.4325
-1.45081
-1.72615
-2.03963
-0.41858
-0.57598
-1.4224
-1.44611
388.886
371.372
145.843
617.145
479.788
119.078
179.54
395.432
408.089
-0.380671
-3.20992
4.61531
653.576
337.835
592.673
318.001
-1.58008
0.196756
-0.0257959
-0.259784
-0.0724581
0.107661
0.677464
0.407194
-0.21763
1.96776
1.50105
1.31527
1.36612
1.3482
1.21244
1.18121
1.21663
1.19376
0.979122
0.909174
1.06154
1.02575
0.989553
1.12879
1.1641
1.25585
1.23374
1.25224
1.23181
1.24931
1.24501
1.25923
1.24284
1.22218
1.24162
1.22228
1.23823
1.23458
1.24905
1.21001
1.23967
1.2317
1.24204
1.25591
1.24094
1.22253
1.14781
1.16415
1.16517
1.18506
1.1659
1.17592
1.19479
1.24012
1.26025
1.24096
1.24465
1.25963
1.14694
1.16733
1.16589
1.16258
1.1438
1.26483
1.24257
1.2653
1.25171
1.23724
1.1408
1.16405
1.1703
1.15408
1.13743
1.08847
1.06044
1.08306
1.01439
0.97965
1.0088
1.04749
1.02247
1.13232
1.11055
1.10842
1.10105
1.11991
1.11232
1.13178
0.9311
0.955898
0.940202
0.968669
0.942267
0.969369
0.946006
1.00677
1.03434
1.03047
1.02762
1.0036
1.01692
1.03966
0.809338
0.840825
0.848857
0.893565
0.860033
0.863833
0.835547
0.715503
0.688489
0.750459
0.747165
0.728589
0.799537
0.773155
0.654083
0.675741
0.736346
0.74286
0.663962
0.683481
0.756033
0.107966
0.111545
0.154126
0.140492
0.0677272
0.165134
0.230308
0.154304
0.212884
0.306825
0.111944
0.0236708
0.189643
0.0664514
0.0576601
0.0249472
0.107736
0.144553
0.123894
0.0838229
0.130349
0.123667
0.191831
-0.0227494
-0.228421
0.0913789
0.0785466
0.194374
0.0549999
-0.201716
-0.0043264
0.378939
0.791664
0.842937
0.556775
0.551115
0.288388
0.0592742
0.427258
507.854
1954.17
2741.28
2760.52
2767.91
2716.44
2787.35
0.953973
0.717797
1.57668
1.2167
2.08275
0.52009
271.348
0.728871
56.3149
-2.5392
1.96642
1.30356
489.37
1.40801
-0.494347
-0.862375
-0.474524
-0.306825
-0.216616
0.0752079
-0.232322
0.460673
-0.0501201
0.44975
-1.11475
-0.122893
0.00945284
1.06956
-0.607262
-0.513526
-0.517094
-0.570154
-0.474529
-0.388302
-0.514722
-0.208294
-0.246066
-0.26031
-0.307039
-0.274609
-0.207252
-0.236625
-0.279897
-0.252225
-0.560903
-0.514014
-0.538131
-0.550338
-0.493892
-0.502596
-0.547116
-0.493064
-0.485705
-0.456509
-0.469524
-0.468001
-0.44067
-0.437749
-0.432838
-0.425828
-0.452256
-0.441351
-0.446053
-0.461773
-0.463754
-0.502474
-0.508592
-0.51844
-0.501211
-0.49591
-0.507452
-0.516994
-0.627096
-0.615326
-0.637586
-0.642911
-0.654608
-0.639087
-0.628109
-0.702932
-0.686099
-0.689008
-0.688533
-0.678448
-0.665533
-0.680057
-0.741977
-0.753902
-0.735092
-0.732702
-0.724836
-0.731392
-0.739574
-0.726364
-0.732169
-0.718478
-0.734802
-0.739728
-0.736514
-0.734402
-0.728543
-0.719632
-0.774559
-0.785324
-0.785527
-0.784557
-0.790248
-0.803803
-0.791507
-0.783755
-0.767022
-0.779165
-0.841192
-0.833727
-0.833919
-0.824529
-0.833025
-0.817711
-0.828285
-0.829773
-0.836399
-0.819031
-0.84523
-0.854947
-0.842509
-0.833982
-0.83295
-0.852136
-0.838562
-0.88047
-0.897634
-0.885056
-0.884157
-0.887913
-0.898776
-0.878164
-0.867069
-0.877907
-0.888388
-0.959964
-1.01523
-1.41195
-1.3788
-1.4345
-1.35191
-1.35928
0.646285
1.65797
-0.663042
-0.545058
-0.85042
4.97423
0.651834
203.553
202.158
198.684
170.472
169.518
185.592
197.428
206.213
205.635
204.308
207.881
208.823
206.508
206.329
217.337
216.435
217.316
217.878
217.348
218.37
217.775
212.59
213.098
211.292
214.847
213.327
213.876
1.37443
1.3549
1.37173
1.36933
1.3536
1.37768
1.36466
1.36312
1.34614
1.36254
1.36004
1.34556
1.36969
1.3584
1.34066
1.35922
1.35845
1.3553
1.36614
1.3545
1.33999
1.3615
1.35688
1.34024
1.36528
1.38415
1.36872
1.35562
1.28389
1.30301
1.30204
1.32858
1.31009
1.3165
1.30163
1.30229
1.27548
1.2951
1.2995
1.28142
1.29998
1.29417
1.30608
1.2811
1.29586
1.30394
1.28661
1.30618
1.31146
1.29997
1.28514
1.30061
1.29561
1.31338
1.31222
1.31921
1.30745
1.30958
1.29444
1.3335
1.3491
1.36069
1.31423
1.32557
1.33586
1.34446
1.48499
1.49821
1.46556
1.52915
1.51249
1.49447
1.508
1.47341
1.44441
1.48371
1.49497
1.47151
1.49316
1.5181
1.63
1.58891
1.6131
1.57359
1.54317
1.68029
1.66496
1.6684
1.66521
1.66887
1.65419
1.6592
1478.53
1384.56
2476.94
2050.23
1512.28
118.341
2167.09
-1.94955
-2.18658
-1.7889
-1.8435
-2.22857
-3.36989
-3.64206
-0.590902
-0.925204
-0.39537
-0.0318506
-0.041973
0.0141804
0.276606
-0.260808
-0.353835
-0.294068
-0.0949904
-0.0336098
-0.0743476
-0.0197922
-0.0747654
-0.0560903
-0.0883452
-0.0997637
-0.0119818
-0.0752553
-0.0188466
-0.0241398
-0.00829875
-0.0254868
0.0647677
-0.0175937
-0.0100532
-0.00151819
-0.00435696
-0.00594731
-0.00886822
-0.00609228
-0.00941897
-0.0650621
-0.0891251
-0.064404
-0.0549188
-0.0730967
-0.0639939
-0.0465002
-0.334113
-0.313613
-0.328693
-0.313903
-0.303443
-0.320378
-0.329055
-0.354632
-0.367243
-0.375165
-0.351843
-0.346051
-0.361895
-0.370647
-0.395885
-0.408719
-0.419326
-0.38781
-0.375889
-0.395838
-0.40452
-0.447339
-0.462108
-0.440145
-0.430294
-0.417966
-0.438217
-0.426088
-0.453333
-0.440317
-0.406898
-0.420299
-0.423546
-0.408397
-0.420009
-0.430971
-0.420508
-0.579804
-0.585795
-0.599924
-0.562141
-0.573535
-0.573329
-0.584854
-0.614016
-0.635257
-0.62996
-0.589618
-0.582471
-0.581103
-0.57174
-0.579715
-0.563675
-0.573868
-0.655609
-0.630708
-0.641796
-0.63243
-0.650006
-0.619959
-0.695275
-0.689093
-0.708
-0.679183
-0.668296
-0.690081
-0.693615
-0.706826
-0.691252
-0.681096
-0.740524
-0.735999
-0.752901
-0.726767
-0.717359
-0.732783
-0.73917
-0.729946
-0.728426
-0.718449
-0.858484
-0.873098
-0.854985
-0.849495
-0.835121
-0.861646
-0.848471
-1.47874
-1.56415
-1.56187
-1.57228
-1.54992
-1.17519
-1.20979
-1.09774
-1.07054
-1.17841
-1.38618
-1.23081
-1.70261
-1.64431
-1.71917
-1.72121
-1.72527
-1.65947
-1.69398
-1.46244
-1.38652
-1.31672
-1.52559
-1.55297
-2.15974
-2.07823
-2.07169
-2.49942
-2.1903
-2.63701
-2.6223
-0.0753861
2.37033
-1.4104
-1.52646
-1.39353
0.181234
-0.309648
15.1315
17.373
15.7127
14.6315
14.0561
13.9551
11.9593
217.277
215.797
217.005
218.072
217.002
218.082
218.668
218.952
218.53
218.089
219.542
218.929
219.574
219.621
219.355
219.793
212.981
214.138
212.922
212.107
212.906
211.382
212.282
216.198
217.96
217.698
1.4708
1.48121
1.46921
1.46401
1.44826
1.45639
1.46961
1.46963
1.47594
1.48934
1.44188
1.42863
1.42326
1.42963
1.44402
1.42027
1.43709
1.54551
1.54958
1.55524
1.55349
1.56818
1.56779
1.55533
1.50605
1.50039
1.51332
1.52099
1.50828
1.50856
1.51923
1.61941
1.62373
1.59879
1.60711
1.62582
1.61447
1.62328
1.62574
1.62993
1.66403
1.74806
1.72198
1.69117
1.68266
1.66484
1.88324
1.5948
2.62912
1.57459
1.65326
1.58731
1.48991
1.53604
1.41213
1.49895
1.44648
1.05046
1.70032
0.360367
0.0283191
-0.126296
-0.151055
0.0788891
-0.347797
0.00747361
0.345412
0.34477
0.285916
0.146511
0.281086
-0.352992
-0.450977
-0.369867
-0.209788
0.136408
0.174038
0.0649265
0.013646
0.00724562
-0.00483481
-0.0158329
-0.0239561
-0.0349924
-0.0221022
-0.045576
-0.0490606
-0.0259147
-0.0322416
-0.00687119
-0.012833
-0.0183653
-0.0143907
-0.00855995
-0.0179576
-0.00651589
-0.0174574
-0.016995
-0.0247637
-0.00727356
-0.00215052
-0.0116169
-0.0215725
-0.0228354
-0.00477693
-0.0302797
-0.0169287
-0.0175244
-0.0125601
-0.00388259
-0.0129733
-0.0173614
-0.0200434
-0.0225365
-0.0256707
-0.132067
-0.151131
-0.158156
-0.14071
-0.158781
-0.181872
-0.163698
-0.174341
-0.156325
-0.34022
-0.323727
-0.329123
-0.325498
-0.315734
-0.327928
-0.338958
-0.382208
-0.393226
-0.374627
-0.390099
-0.379544
-0.373997
-0.366229
-0.429334
-0.421714
-0.421706
-0.410039
-0.421142
-0.40257
-0.414717
-0.465092
-0.477248
-0.476902
-0.480524
-0.473912
-0.48089
-0.493756
-0.457214
-0.474716
-0.468067
-0.531111
-0.547908
-0.527003
-0.539184
-0.522738
-0.509313
-0.586465
-0.582536
-0.604041
-0.618413
-0.628328
-0.631797
-0.620947
-0.630789
-0.640176
-0.631027
-0.898575
-0.914583
-0.937584
-0.933249
-0.920894
-0.959734
-0.948109
-1.00956
-1.00237
-0.982347
-0.9908
-0.983723
-0.959317
-0.968412
-1.07705
-1.05551
-1.06421
-1.10618
-1.10982
-1.08691
-1.09322
-1.19285
-1.15995
-1.15995
-1.17353
-1.12776
-1.1976
-1.15837
-1.47043
-1.40752
-1.4273
-1.38352
-1.41146
-1.45481
-1.42452
-1.82357
-1.87635
-1.8581
-1.86246
-1.97719
-1.97376
-1.88477
-1.51023
-1.56945
-1.59092
-1.67149
-1.59887
-2.08636
-2.03215
-1.93557
-2.07217
-2.22418
-2.10149
-1.99865
-1.7544
-1.62252
-1.69847
-1.59816
-1.65869
-1.666
-1.721
-2.08544
-1.84801
-1.92064
-2.30489
-2.11818
-1.97529
-2.08282
213.043
213.488
215.021
207.166
206.885
207.201
207.82
207.295
207.546
207.115
209.239
210.461
209.127
209.435
208.663
208.251
206.066
206.302
206.082
205.951
206.024
205.776
205.992
206.611
207.182
206.982
1.60617
1.62244
1.62103
1.62737
1.63804
1.61878
1.6295
1.56656
1.57334
1.56323
1.55332
1.56336
1.54508
1.55763
1.5166
1.51795
1.50566
1.53604
1.52454
1.52826
1.51781
1.56633
1.56905
1.58038
1.49751
1.51077
1.51603
1.50093
1.51838
1.51643
1.52082
1.51295
1.51343
1.50106
1.5366
1.54412
1.52733
1.51912
1.50639
1.53005
1.52036
1.54367
1.53471
-0.218651
-0.308181
-0.138793
-0.152499
-0.858674
-0.251483
-0.591395
-0.530731
-0.383776
-0.511944
-0.568838
-0.687209
-0.521496
-0.588313
-0.215985
-0.240697
-0.249585
-0.261103
-0.250262
-0.218998
-0.238663
-0.0250201
-0.0325987
-0.0224343
-0.105779
-0.125609
-0.11117
-0.0966638
-0.109911
-0.125191
-0.110653
-0.0219416
-0.0105484
-0.0251884
-0.0401257
-0.0551202
-0.0251065
-0.0119198
-0.0278726
-0.0397042
-0.0163774
-0.00341272
-0.0188607
-0.00436794
-0.0143993
-0.0134678
-0.020207
-0.0221931
-0.0272705
-0.0246549
-0.0260521
-0.0270773
-0.0354408
-0.0181392
-0.00539342
-0.0246248
-0.0322167
-0.0208121
-0.0214811
-0.00993134
-0.0208643
-0.0238118
-0.0114541
-0.0237
-0.0330606
-0.0241585
-0.195476
-0.181162
-0.199819
-0.199905
-0.207773
-0.196304
-0.184251
-0.313241
-0.334031
-0.309936
-0.318299
-0.301994
-0.290785
-0.362617
-0.383551
-0.363813
-0.358281
-0.348338
-0.371438
-0.359178
-0.350138
-0.428606
-0.420032
-0.442958
-0.481027
-0.461833
-0.47035
-0.486674
-0.478836
-0.465337
-0.473992
-0.469291
-0.459015
-0.476034
-0.473306
-0.482033
-0.460944
-0.471563
-0.533982
-0.525768
-0.526955
-0.510794
-0.520667
-0.512522
-0.52253
-0.525471
-0.526207
-0.534246
-0.523113
-0.512758
-0.513472
-0.523951
-0.567678
-0.579723
-0.591297
-0.607396
-0.595752
-0.580968
-0.591604
-0.571795
-0.582156
-0.586329
-0.573492
-0.583138
-0.593955
-0.585253
-0.703332
-0.726736
-0.713131
-0.681893
-0.695487
-0.710805
-0.698578
-0.721373
-0.699112
-0.700848
-0.6949
-0.707482
-0.723313
-0.705188
-0.794854
-0.777912
-0.768923
-0.777067
-0.763074
-0.74407
-0.760302
-0.778256
-0.799197
-0.769324
-0.754432
-0.738084
-0.822891
-0.844888
-0.859054
-0.903307
-0.872724
-0.813447
-0.840536
-0.842334
-0.870957
-0.869531
-0.893763
-0.857399
-0.844895
-0.825466
-0.848354
-0.869586
-0.844689
-0.825284
-1.01289
-1.04064
-1.04101
-1.10821
-1.08617
-1.08177
-1.05996
-1.29999
-1.35161
-1.24283
-1.47543
-1.45756
-1.37467
-1.40891
-1.49872
-1.41557
-1.47077
-1.3583
-1.37187
-1.44463
-1.45899
-1.93076
-1.78427
-1.84386
-1.73335
-1.75593
-1.85446
-1.91161
-2.02156
-2.14956
-2.24233
-2.42988
-2.26974
-2.26813
-2.13892
3.24274
132.363
173.232
85.5054
22.8413
470.42
27.1136
206.077
206.118
206.393
205.346
205.316
205.348
205.327
205.397
205.394
205.324
205.593
205.69
205.571
205.612
205.432
205.538
205.309
205.355
205.323
205.174
205.177
205.148
205.116
204.973
205.171
205.016
205.436
205.587
205.378
205.239
205.247
205.332
205.304
205.226
204.207
158.229
198.392
205.025
205.653
107.331
198.258
208.966
204.398
201.697
52.8882
164.346
195.145
102.526
9.53396
2.72287
19.852
4.57029
2.34808
55.1981
13.7485
2.35719
23.1355
1.65691
1.77109
1.70863
1.69294
1.78486
1.78659
1.82669
1.77677
1.66228
1.70635
1.67345
1.69896
1.70031
1.71746
1.67532
1.70413
1.71899
1.71781
1.72354
1.72488
1.72038
1.72681
1.71949
1.68705
1.67509
1.67915
1.69072
1.69399
1.67836
1.68031
1.66774
1.67431
1.66668
1.6673
1.65867
1.66357
1.67068
1.6376
1.62385
1.63678
1.64383
1.63458
1.63954
1.6474
1.61944
1.6292
1.63021
1.62925
1.63442
1.62331
1.62954
1.62668
1.61979
1.63001
1.6388
1.63369
1.59168
1.6029
1.60503
1.60044
1.60803
1.60689
1.61543
1.58677
1.59881
1.60108
1.5961
1.58625
1.63349
1.63352
1.62317
1.63711
1.6437
1.63863
1.63165
1.68225
1.6802
1.68972
1.68305
1.67923
1.6772
1.68317
1.69828
1.69963
1.70263
1.69394
1.69159
1.69621
1.69795
1.8549
4.30833
2.46312
4.10121
2.70327
1.98553
4.37838
199.656
199.789
200.462
15.519
36.7777
48.6866
6.62808
6.30891
35.1916
16.1013
8.84503
6.18363
2.76888
181.364
192.701
194.373
189.351
190.384
199.701
206.269
1.72314
1.73175
1.72653
1.72643
1.72016
1.72018
1.72368
1.70077
1.72792
1.71361
1.70551
1.69119
1.71964
1.70799
1.72337
1.72668
1.72441
1.71699
1.73725
1.71923
1.70787
1.30104
1.16626
1.20504
1.24354
1.197
1.1329
1.2329
0.922355
1.03732
0.867243
0.926369
1.03603
0.95021
0.818265
1.52807
1.43873
1.35695
1.22127
1.31723
1.37927
1.2959
1.28723
1.20047
1.50337
1.51993
1.76501
1.73435
1.97432
1.40924
1.68789
1603.44
1557.64
1308.49
247.396
1071.15
1584.13
1216.88
1286.33
989.905
682.898
600.85
973.003
1463.37
1580.83
595.048
655.291
1457.69
1663.75
897.349
1569.92
279.397
12.7216
339.667
1.46131
0.141164
7.95478
1.46932
342.251
1.80329
3.1406
2.63995
8.53008
1.83143
-0.274383
0.836028
-0.454389
0.954767
2.51812
1.99011
0.707353
-0.679083
-0.752794
-0.747631
-0.611719
-0.577566
-0.509905
-0.49805
-0.507636
-0.473803
-0.47838
-0.490425
-0.486906
-0.405017
-0.392939
-0.404889
-0.374571
-0.365783
-0.373996
-0.380869
-0.328023
-0.298494
-0.325831
-0.31854
-0.294222
-0.312434
-0.330317
-0.20137
-0.217078
-0.223838
-0.232611
-0.22248
-0.204637
-0.216802
-0.157934
-0.182308
-0.167487
-0.148463
-0.131031
-0.0957752
-0.115541
-0.101168
-0.0880835
-0.0994435
-0.113297
-0.100375
-0.0370402
-0.0270118
-0.0336783
-0.0534734
-0.0383057
-0.0384612
-0.0520817
-0.00344576
-0.0163032
-0.0201559
-0.0299518
-0.0531853
-0.0375513
-0.0132424
-0.0257247
-0.0204769
-0.0339804
-0.0458801
-0.0315065
-0.0147059
-0.0143359
-0.00388617
-0.018972
-0.0272136
-0.0534325
-0.0371254
-0.0304758
-0.0250936
-0.00284685
-0.0196221
-0.0183524
-0.106626
-0.0899139
-0.093755
-0.0926057
-0.0819889
-0.0935033
-0.105776
-0.0809935
-0.0672876
-0.0769875
-0.080257
-0.0890451
-0.0874775
-0.102643
-0.082056
-0.0615526
-0.0739407
-0.143577
-0.159525
-0.135927
-0.146904
-0.130301
-0.120196
-0.181787
-0.19187
-0.199732
-0.221377
-0.207412
-0.180883
-0.192587
-0.208265
-0.19596
-0.210936
-0.223146
-0.203623
-0.192715
-0.178721
-0.207575
-0.198309
-0.406557
-0.395618
-0.383156
-0.365294
-0.375609
-0.392543
-0.38311
-0.376728
-0.369661
-0.365852
-0.355481
-0.368339
-0.354863
-0.367195
-0.425132
-0.434145
-0.444027
-0.450166
-0.443767
-0.437166
-0.429165
-0.459424
-0.44013
-0.444798
-0.419847
-0.433431
-0.485566
-0.49207
-0.485815
-0.46996
-0.479558
-0.481242
-0.472834
-0.486417
-0.486577
-0.494158
-0.485379
-0.475266
-0.474799
-0.48514
-0.524364
-0.534862
-0.544833
-0.561018
-0.549932
-0.546992
-0.536929
-0.543007
-0.528991
-0.537224
-0.545536
-0.560041
-0.545286
-0.551649
-0.565362
-0.538875
-0.527316
-0.539446
-0.55048
-0.586439
-0.59291
-0.582374
-0.574844
-0.584165
-0.58476
-0.574644
-0.562658
-0.55876
-0.570041
-0.567139
-0.554966
-0.557659
-0.567854
-0.569373
-0.58268
-0.574358
-0.593073
-0.56385
-0.576575
-0.55481
-0.577704
-0.559573
-0.613954
-0.619363
-0.609378
-0.590606
-0.589373
-0.60352
-0.600631
-0.59077
-0.56473
-0.603387
-0.568476
-0.618937
-0.65464
-0.63891
-0.651607
-0.61452
-0.609848
-0.622431
-0.627178
-0.585186
-0.645501
-0.643859