/*--------------------------------*- C++ -*----------------------------------*\
| =========                 |                                                 |
| \\      /  F ield         | OpenFOAM: The Open Source CFD Toolbox           |
|  \\    /   O peration     | Version:  v2012                                 |
|   \\  /    A nd           | Website:  www.openfoam.com                      |
|    \\/     M anipulation  |                                                 |
\*---------------------------------------------------------------------------*/
FoamFile
{
    version     2.0;
    format      ascii;
    class       surfaceScalarField;
    location    "0.15";
    object      phi;
}
// * * * * * * * * * * * * * * * * * * * * * * * * * * * * * * * * * * * * * //

dimensions      [0 3 -1 0 0 0 0];
oriented        oriented;


internalField   nonuniform List<scalar> 
13152
(
9.02567e-07
2.01999e-05
-1.47129e-06
-1.96312e-05
1.86146e-05
-1.71465e-05
-5.65555e-07
-3.48402e-06
4.22985e-05
-3.46753e-05
3.53484e-05
-2.14442e-06
2.11911e-05
-7.54976e-05
2.84889e-05
-2.44442e-05
6.03533e-05
-1.61443e-05
-2.96119e-05
-2.84057e-05
7.41619e-05
3.84223e-07
-1.68428e-05
3.14274e-07
-2.99036e-05
6.75998e-07
7.86873e-06
5.1684e-06
-2.98799e-05
7.84969e-06
3.33323e-07
-5.07464e-06
-1.54814e-05
-2.98099e-05
-8.64589e-06
-1.47124e-05
-5.14832e-06
2.85066e-05
-6.37099e-08
-8.65684e-06
7.46612e-08
-1.42237e-05
-5.5244e-07
5.64206e-06
-3.05615e-05
1.62626e-05
-2.9465e-05
2.99588e-05
2.93767e-05
-6.40792e-07
2.73838e-08
-1.51755e-05
-2.98903e-05
1.07776e-07
-7.49457e-05
3.11903e-07
1.60254e-05
3.02829e-05
-1.21754e-08
7.48148e-05
3.58346e-05
1.26676e-05
2.53591e-05
-7.38613e-05
3.09114e-07
-6.28605e-07
3.61541e-05
1.24112e-05
2.86292e-07
-1.87738e-05
7.34835e-05
7.77335e-05
2.89788e-05
-7.37822e-07
-2.93105e-05
1.06952e-06
-1.63291e-05
-2.68391e-05
7.21471e-05
2.01659e-07
-1.72686e-05
-8.07699e-06
7.9895e-06
2.89148e-07
5.27963e-06
-3.06252e-05
-4.9385e-06
-1.39111e-05
-2.89694e-05
-1.37755e-05
1.53532e-07
2.90827e-05
2.66829e-07
-5.2653e-07
1.34664e-07
-2.05935e-06
2.45122e-06
-6.70822e-07
-6.31491e-07
7.75783e-07
-6.54377e-07
1.18219e-07
1.56e-06
-1.37719e-06
-8.14299e-07
-5.2455e-07
2.51954e-08
9.28067e-08
-4.36455e-07
-3.1073e-07
-1.91234e-07
4.0226e-07
-1.08958e-07
-1.45947e-06
-1.06996e-06
-6.37784e-07
6.43231e-06
-2.29839e-06
-3.49614e-06
9.70729e-06
-3.35742e-06
-6.98764e-06
-7.32032e-06
-1.07636e-05
2.31843e-06
1.26859e-06
-6.94444e-06
7.40177e-08
-5.39737e-08
-7.39093e-06
1.44629e-07
-1.68859e-05
-2.30822e-06
-4.07288e-06
-5.93711e-07
6.97481e-06
-1.11772e-07
-2.30466e-06
1.08214e-07
-4.0729e-06
-1.11748e-07
7.51935e-06
5.92904e-06
-1.75213e-05
7.47486e-06
-6.72548e-08
-3.44288e-06
1.0324e-05
1.81497e-07
5.84227e-06
5.58378e-06
5.8296e-06
-1.72556e-05
-5.63094e-08
5.63118e-06
2.6739e-07
5.47033e-06
5.71357e-08
6.36971e-08
5.44122e-06
1.2627e-07
5.6843e-06
2.08994e-07
-5.51198e-06
1.64235e-05
2.29462e-07
-4.46032e-05
-4.43068e-05
-1.10656e-05
9.99757e-05
-8.09258e-06
-1.77738e-05
-1.87369e-05
-5.20973e-06
-4.71897e-05
4.68389e-05
-1.1284e-05
-5.33288e-05
-5.15518e-05
8.7325e-05
-6.60019e-05
9.2403e-06
-0.000124476
-1.76405e-05
-1.19055e-05
1.57193e-05
1.38267e-05
1.70255e-05
5.96137e-06
-4.06279e-05
1.85552e-05
-1.3436e-05
2.07046e-06
-1.2431e-05
2.60796e-05
1.52983e-05
5.9838e-07
-9.25149e-06
3.05108e-05
-3.12781e-06
-4.64433e-06
-2.1717e-06
-4.74383e-06
1.15599e-05
2.19572e-06
-6.1273e-06
-7.12765e-07
-2.56809e-06
2.5921e-06
2.72834e-06
2.19994e-06
-7.49638e-06
3.06429e-06
2.25613e-06
7.61482e-06
-1.15422e-05
5.93526e-06
-8.92994e-07
-6.96819e-08
5.63944e-07
3.98732e-07
1.16157e-06
-6.7209e-07
-1.38247e-06
-7.75781e-07
1.86766e-06
-8.59409e-07
3.25793e-07
-1.38474e-07
-6.89703e-07
-1.55218e-06
-2.3748e-07
-1.228e-06
6.52256e-07
4.8397e-08
-2.18821e-08
-6.8293e-08
4.17781e-08
-1.87443e-07
-1.02141e-08
2.46054e-07
-9.35249e-09
-1.99972e-07
-5.82096e-08
-1.91252e-07
2.39248e-07
-2.6459e-07
1.38087e-07
-2.72839e-07
7.22344e-08
-7.37401e-07
-7.8999e-08
2.47141e-09
-2.35355e-07
3.11882e-07
-1.03893e-08
2.9749e-08
-9.83586e-08
1.7163e-08
-2.50808e-08
-2.27656e-07
2.20511e-08
4.74577e-07
-6.85071e-07
3.51138e-07
-3.76891e-05
3.93788e-05
2.87185e-06
-4.56147e-06
5.95636e-05
3.45959e-05
5.57357e-05
7.06556e-06
9.18767e-05
3.73445e-06
1.24086e-05
1.84528e-05
1.96185e-05
3.98516e-05
-1.2976e-05
3.96601e-05
2.30442e-06
2.56087e-05
1.05637e-06
-1.82365e-05
-8.42859e-06
-2.62563e-05
-2.79844e-05
7.98494e-05
1.4941e-07
-2.53493e-05
-2.7359e-05
2.72334e-05
2.75048e-07
2.3471e-05
-7.61794e-05
-3.97041e-06
3.21944e-06
1.26411e-06
-7.15903e-06
-0.000104243
3.59009e-05
7.55012e-05
-6.70536e-05
2.51409e-05
3.47537e-05
7.9595e-05
0.00010992
2.12457e-05
1.20687e-05
-8.17343e-06
-4.62466e-06
6.17712e-05
5.84579e-05
3.32059e-05
0.000163753
2.04167e-07
4.66085e-06
-1.28749e-07
-4.73626e-06
7.17677e-06
-7.82129e-06
8.48665e-07
-2.60843e-06
1.4446e-05
-7.21625e-06
7.4073e-06
-3.19813e-07
2.77815e-06
-1.47307e-05
9.96761e-06
-1.50108e-05
1.47664e-05
-4.4022e-06
-6.58612e-06
-2.43496e-06
1.34233e-05
-2.18183e-08
6.14052e-08
-4.44179e-06
-7.34001e-06
7.32068e-07
-6.74923e-06
6.886e-06
-7.53679e-08
2.46083e-06
-1.36519e-05
9.0814e-06
-1.39606e-05
1.35324e-05
7.80725e-08
4.90963e-06
-4.3783e-06
-6.09405e-07
4.4786e-06
-4.4018e-06
1.23448e-09
-4.25599e-06
1.36442e-05
4.47162e-06
4.69007e-06
-1.35635e-05
4.40236e-06
7.04727e-08
-3.13282e-07
4.59642e-07
-1.57078e-09
6.04289e-06
3.04435e-07
-6.0492e-06
-2.98123e-07
-4.76986e-06
-1.15136e-06
1.19641e-05
4.34611e-07
-4.90006e-06
1.80223e-06
-1.67213e-06
-6.17931e-06
-1.71358e-06
2.36442e-06
-6.78669e-06
6.5278e-06
6.93509e-07
1.06465e-06
-1.27514e-05
-1.84212e-06
6.6563e-06
-2.44957e-06
3.93427e-06
-4.22795e-07
-3.75493e-06
2.43448e-07
-5.25192e-06
-2.93407e-06
1.21202e-05
-3.66242e-06
-2.01233e-06
3.98866e-06
4.22047e-06
3.52822e-06
7.03873e-07
-1.08538e-06
1.67952e-06
-5.27335e-07
4.86224e-06
1.62665e-07
-6.03503e-06
1.01013e-06
-2.50555e-06
-3.4753e-06
1.08431e-05
-2.38906e-06
4.61536e-08
-1.75106e-06
-5.05303e-06
7.69049e-07
-3.59198e-06
-1.63442e-06
6.0261e-06
1.98733e-06
-1.04025e-05
5.71476e-06
3.57485e-07
-8.26465e-06
1.03874e-05
-1.13304e-05
-7.83249e-07
-1.90297e-06
-3.41222e-06
6.09844e-06
-1.86903e-06
-4.41957e-06
5.5053e-06
-1.72672e-06
-2.04534e-06
-3.98829e-07
-1.44729e-06
-1.56616e-06
-1.45838e-06
-3.36007e-06
5.51603e-07
2.31273e-06
-4.59106e-06
2.80853e-06
-4.30229e-06
-4.28207e-07
1.78942e-06
4.26109e-07
4.69248e-06
1.18799e-05
-1.46028e-06
-1.51121e-05
2.96963e-06
3.29987e-06
-1.57704e-06
3.70526e-06
1.11442e-05
-6.0436e-06
-2.35189e-07
9.57865e-06
-2.11543e-06
-9.41202e-06
1.28821e-05
-1.29878e-05
2.99223e-06
3.82414e-10
-3.89158e-06
8.98968e-07
-9.13726e-06
-1.63644e-06
1.37659e-05
-4.40936e-06
-4.72752e-06
9.71878e-06
1.71343e-06
-1.53238e-05
7.06294e-06
3.55477e-06
-1.31689e-05
1.85954e-05
-1.58649e-05
-3.59728e-06
-1.1091e-05
3.38886e-06
1.12994e-05
1.43768e-06
1.07763e-05
-1.58113e-05
1.88704e-05
-2.85238e-05
8.24083e-06
-9.57954e-06
-2.29347e-06
2.18337e-05
3.82516e-06
4.65768e-06
1.31159e-05
5.59935e-05
4.32549e-05
4.35395e-05
-0.000142788
-3.09833e-06
4.11501e-05
1.79416e-05
4.26135e-05
-2.45712e-06
-5.30101e-05
-2.67276e-05
0.000122351
-3.91374e-05
-1.633e-05
1.94194e-05
-1.50176e-05
3.38416e-05
6.36828e-06
-3.38624e-06
-5.167e-06
2.18496e-06
-1.66757e-05
1.58322e-06
2.14608e-05
-3.36741e-06
-1.66945e-05
1.11805e-05
-3.67313e-07
-1.59802e-05
4.99801e-06
8.3675e-06
-1.3122e-05
1.97032e-05
-1.68566e-05
7.07604e-08
-3.45085e-06
-7.33501e-06
1.07151e-05
-5.58707e-06
-1.03224e-05
-5.011e-06
-4.02693e-06
8.24519e-06
-6.59165e-06
-1.19759e-05
-1.0923e-05
1.18331e-05
-2.16518e-06
-1.37688e-05
-1.27838e-05
-2.76796e-06
2.52058e-06
2.952e-06
-2.70463e-06
7.1332e-06
-5.92886e-08
-9.84189e-06
2.43508e-06
7.21867e-06
-8.13628e-06
1.3984e-06
9.68984e-06
-1.26237e-06
7.53941e-06
-8.86109e-06
1.13728e-05
-1.33206e-06
-5.35761e-06
2.81755e-06
3.87212e-06
-3.46664e-06
-1.57995e-06
3.71453e-06
3.22556e-06
-1.20498e-05
7.50505e-06
-2.93223e-06
-6.15277e-06
-5.48669e-07
1.17682e-05
3.56356e-06
-3.27022e-06
5.83245e-06
-4.38991e-06
7.85703e-07
4.26831e-06
-6.64096e-07
7.27946e-06
4.50849e-07
6.0683e-06
1.99686e-06
-6.71541e-06
-3.90213e-07
1.13739e-05
-5.4076e-06
-1.97192e-06
-1.86068e-06
-1.49035e-06
2.9608e-06
-1.42355e-06
-5.84472e-06
1.97068e-06
-2.94338e-06
6.54864e-06
-4.34864e-06
3.4818e-07
-2.03856e-07
4.20432e-06
7.12673e-06
2.16878e-06
6.55834e-06
9.16566e-07
6.5679e-06
-6.06789e-06
-1.97585e-06
1.27481e-05
8.87254e-06
-1.27717e-05
1.3455e-05
4.95293e-06
-1.79752e-08
-4.96492e-06
2.99592e-08
-7.76953e-06
-2.3162e-06
1.50387e-05
-7.05383e-06
-7.33682e-07
7.8199e-06
2.42862e-06
-1.52134e-05
7.33162e-06
5.18256e-07
-1.00064e-05
1.50218e-05
-1.46316e-05
9.62262e-08
-5.12414e-08
-4.3143e-08
-1.84177e-09
-1.01516e-07
1.90053e-08
1.78737e-07
4.81003e-08
-2.00857e-07
5.70125e-08
-7.04733e-08
-2.96819e-08
-1.5902e-09
7.76083e-08
-5.5968e-07
-1.02313e-07
7.10094e-07
1.4187e-08
-7.74723e-07
-1.24453e-07
2.05503e-08
-1.80738e-07
-3.07202e-09
2.65554e-07
-1.05229e-07
-1.57253e-07
-1.36223e-06
-4.71503e-07
1.83066e-06
-1.27727e-07
-9.6895e-07
7.74493e-07
1.08861e-06
-2.33461e-06
1.90228e-06
-1.23302e-06
-9.91585e-07
1.95247e-06
-5.82537e-08
1.61402e-05
8.94612e-06
-1.31145e-05
-1.19718e-05
4.98362e-06
-2.13078e-05
3.24644e-05
1.2968e-05
9.61704e-07
-5.30728e-06
-9.95721e-07
1.92709e-05
1.6652e-06
-6.01082e-06
4.29202e-06
-6.48341e-06
-1.91164e-05
-1.32488e-05
4.4262e-06
1.6442e-06
-9.12338e-06
-9.93941e-06
6.56693e-07
-1.13192e-06
2.30589e-06
-7.33578e-07
-4.20011e-06
1.22998e-05
3.97369e-05
-1.55869e-05
-3.64498e-05
7.39918e-06
-1.50751e-06
6.40824e-06
-8.0676e-06
5.52039e-05
6.94861e-07
-1.48134e-06
-7.20976e-07
6.07683e-06
1.0263e-06
-1.31067e-05
1.11161e-05
-3.01748e-05
-1.10156e-05
-5.95158e-06
-7.59924e-07
1.77271e-05
1.85498e-06
-6.74375e-06
-6.12685e-06
1.55918e-06
-5.65578e-06
1.1031e-05
-8.05627e-07
-1.69691e-05
-6.32414e-06
1.65952e-05
-1.01247e-05
5.35981e-06
-1.65861e-05
5.11753e-05
2.91523e-07
-5.06202e-05
-8.46579e-07
-3.38189e-05
-1.79595e-05
0.000102954
-3.07756e-05
-2.75173e-06
1.30789e-05
-1.4738e-05
-4.89611e-05
-1.49908e-05
1.01102e-05
3.51384e-05
1.2785e-05
-7.8699e-05
3.58948e-05
-3.50808e-06
-6.70759e-06
2.76115e-05
-8.66065e-06
-1.34927e-08
-8.27335e-06
7.57894e-06
7.07897e-07
-8.97276e-06
8.59851e-06
3.60688e-07
9.16261e-06
-2.64088e-05
-8.17274e-06
-8.09299e-06
2.38446e-05
-8.0525e-06
5.876e-07
-1.18058e-06
1.68604e-06
-7.05131e-08
4.38274e-06
5.89956e-06
-5.99783e-06
-4.28447e-06
-1.02021e-06
1.33691e-06
4.06604e-06
-1.3046e-05
1.79254e-05
-6.57142e-06
6.67831e-06
1.23004e-06
2.17356e-06
-4.67891e-06
1.13913e-05
-2.22637e-05
1.20718e-05
1.96721e-06
-8.22418e-06
-7.52745e-06
1.37844e-05
3.29513e-06
-4.88445e-06
3.55652e-06
-9.21352e-06
3.58219e-06
-8.3274e-06
-1.39235e-07
-2.38421e-06
9.5229e-06
-4.61606e-06
-3.87943e-06
1.68074e-07
1.28075e-06
-8.28107e-06
6.98895e-06
-1.49217e-05
-4.41795e-06
5.44653e-06
2.83632e-06
-1.45477e-05
6.26488e-06
3.62445e-06
7.4017e-07
1.08197e-06
-4.31969e-06
1.07805e-05
2.86158e-06
-4.80237e-06
-1.26068e-05
-9.58182e-07
4.5601e-06
2.27841e-05
-9.07067e-06
-1.8033e-05
5.59953e-06
2.79651e-05
-8.0934e-06
1.27349e-05
-2.19662e-05
-3.27038e-08
8.3979e-09
-1.82477e-08
4.25535e-08
3.11481e-08
5.48783e-08
-1.1873e-07
4.26045e-08
-3.05752e-09
-3.6774e-08
1.6002e-08
7.56506e-08
-8.78232e-08
3.28017e-08
-1.11941e-07
1.70548e-07
-2.02821e-07
1.01701e-07
1.41132e-07
-2.72515e-07
-1.17932e-08
8.61634e-08
2.73313e-08
1.27498e-07
-8.3846e-08
3.90082e-07
7.99265e-08
3.7279e-07
-5.75687e-08
-2.9467e-07
-1.20644e-07
5.73361e-07
-1.50881e-07
-6.04133e-07
1.7746e-06
1.65605e-06
-1.09696e-07
-3.32095e-06
9.23967e-07
-9.26207e-07
1.77684e-06
1.12797e-06
1.45205e-06
3.18548e-07
3.78934e-07
4.30484e-07
-2.90578e-07
2.06118e-06
9.0214e-07
-1.44941e-06
5.01866e-07
1.26301e-05
-8.11227e-08
5.82681e-06
-1.83757e-05
-6.53954e-06
3.46092e-06
1.57087e-05
-3.76666e-06
-2.85399e-06
-4.92559e-06
-3.68471e-06
4.84365e-06
-8.69769e-06
9.18118e-07
-1.20937e-05
1.18699e-05
-1.49645e-05
-1.10237e-05
-6.81957e-06
-1.01271e-05
2.79703e-05
5.8422e-06
-5.96402e-06
-1.09018e-05
-1.56516e-05
1.46743e-05
-6.92625e-06
1.81648e-05
-1.72025e-05
1.24456e-05
-3.02736e-05
-1.97359e-06
6.65018e-06
1.34882e-05
6.51336e-06
3.95855e-06
1.99819e-06
-1.11364e-05
-1.47855e-06
1.45091e-05
-9.45995e-07
-1.1146e-05
-2.41714e-06
-1.20127e-05
-1.13473e-05
3.78691e-05
-1.62684e-08
-1.29425e-05
-1.63317e-05
1.42859e-05
2.02942e-06
1.49599e-05
-4.42344e-05
-5.54183e-06
8.48028e-06
-1.72807e-06
-2.9355e-06
-2.31921e-05
6.93902e-06
1.91886e-05
-8.65421e-06
6.6583e-06
-9.39629e-07
-1.51352e-05
-1.67112e-05
-3.65695e-06
-4.92064e-06
1.52359e-05
-1.11262e-05
6.52953e-06
-4.06111e-06
-1.508e-06
6.48382e-07
1.15712e-06
-1.63445e-05
6.29424e-06
-2.02724e-05
1.17252e-05
2.73824e-05
1.18798e-06
-2.78481e-05
-7.22272e-07
-3.10725e-05
-3.14927e-05
8.99476e-05
-3.21052e-05
2.22069e-06
2.67918e-05
3.38705e-05
-8.85103e-05
3.05804e-05
-4.51084e-06
2.92918e-06
-3.84113e-06
4.69489e-06
9.76439e-07
-4.01301e-05
-1.29317e-06
4.04469e-05
-4.12841e-05
3.95149e-05
2.74569e-06
3.83507e-05
-0.000119765
4.27922e-05
-3.99582e-05
-4.12712e-06
-3.90648e-05
0.000122304
-2.36826e-06
2.8184e-06
-3.97574e-06
-6.99051e-07
4.65822e-06
-4.65819e-06
6.99018e-07
8.20834e-06
-5.67068e-06
-3.23673e-06
-1.69848e-06
1.4565e-05
8.19267e-06
1.56328e-06
-1.44142e-05
6.66407e-06
2.22755e-06
1.01418e-05
-1.42492e-05
1.51074e-05
6.65846e-06
4.98085e-06
3.40037e-06
-1.50397e-05
1.03975e-06
8.11753e-06
-2.49884e-06
7.81667e-07
5.23892e-06
-1.03625e-05
3.174e-06
1.53061e-05
8.44445e-06
-1.54067e-05
7.75304e-06
1.47306e-06
1.61659e-05
-2.33326e-07
5.03035e-06
2.63583e-07
-5.06061e-06
8.24293e-06
-6.97643e-06
-1.4998e-06
-2.40739e-06
1.56807e-05
-8.47082e-06
7.64217e-06
1.09226e-06
2.09945e-06
-1.56308e-05
1.09894e-05
-1.58663e-05
1.62242e-05
8.42401e-06
2.37512e-07
-7.72466e-06
-9.36866e-07
-5.81423e-06
-1.41629e-06
1.56545e-05
3.2655e-07
-5.9033e-06
2.42729e-06
-2.12843e-06
-8.02355e-06
-2.08262e-06
3.09358e-06
-8.58909e-06
7.54542e-06
1.37022e-06
1.27786e-06
-1.57703e-05
-2.45231e-06
7.91509e-06
-3.30289e-06
7.93315e-06
-2.72742e-08
-6.90751e-06
-9.98366e-07
-5.04916e-06
-2.45635e-06
1.54387e-05
1.08288e-07
-5.1847e-06
-8.3987e-06
8.01057e-06
4.96435e-07
2.32787e-06
-1.59112e-05
-1.08528e-05
1.6407e-05
-1.54324e-05
-2.79841e-06
-2.54496e-07
2.51227e-07
2.80168e-06
6.13963e-06
6.4179e-06
-1.5356e-05
5.9912e-06
-1.0609e-07
1.56048e-06
-1.59468e-06
2.85422e-07
-1.0081e-06
5.37023e-06
1.15867e-06
3.66454e-06
6.14175e-06
4.32754e-07
5.22274e-06
-3.39053e-07
-5.31644e-06
5.45128e-06
-5.51686e-06
4.98327e-07
-6.08071e-06
1.67547e-05
-5.56785e-06
5.12259e-06
5.43334e-06
-1.63176e-05
5.32417e-07
-6.15932e-07
-4.25719e-07
-3.44197e-07
-3.81396e-06
1.13134e-07
4.04502e-06
-6.09618e-06
6.08026e-06
-3.28264e-07
5.31481e-06
-1.52249e-05
1.45807e-06
-1.49575e-06
1.50817e-07
-1.14597e-06
6.64907e-06
-1.06706e-06
6.00136e-06
2.75202e-06
1.59297e-06
3.98019e-06
1.12315e-06
-6.69631e-06
2.6869e-07
1.52475e-06
-2.0047e-07
3.90577e-06
3.43105e-07
1.00049e-06
6.03299e-06
-5.91033e-06
4.96439e-06
-2.43915e-06
-6.35472e-06
2.13876e-08
-2.43044e-06
-6.02602e-06
1.51055e-05
4.72432e-07
4.47818e-07
3.05668e-07
-6.00583e-06
-2.10166e-07
-2.33393e-06
-1.50361e-05
-3.34524e-06
-4.1837e-06
-8.42764e-07
8.3717e-06
-5.16783e-07
-2.73394e-06
-9.45176e-08
-4.77367e-07
-4.22314e-06
4.82572e-06
-5.0435e-06
-2.51616e-06
-7.57607e-06
1.1559e-05
-7.42722e-06
-6.2622e-07
-1.66939e-05
3.37456e-07
4.13092e-06
-4.05744e-06
-4.10937e-07
1.6806e-06
-1.84688e-06
5.03751e-07
-2.44099e-06
8.25254e-06
5.53929e-06
6.74084e-06
-1.63376e-05
5.79567e-06
-6.67263e-07
-8.38511e-07
5.7325e-06
5.60366e-06
-5.51319e-06
4.13297e-07
1.24789e-07
-5.17852e-06
-8.92815e-08
5.24003e-06
2.77698e-08
7.70356e-06
4.00756e-06
-1.68897e-05
7.12368e-06
4.90589e-07
-2.10292e-06
-2.76649e-07
7.61957e-06
-2.07363e-06
-1.55139e-09
-7.95097e-07
-2.27003e-06
2.78847e-06
-3.56773e-06
6.99e-07
3.57243e-06
-3.13259e-06
8.42606e-06
-9.84895e-06
-9.59906e-06
-7.42269e-06
1.18878e-06
-8.24926e-06
-2.55751e-06
-5.85278e-06
-6.79268e-06
-6.31571e-07
-8.65121e-06
-5.85051e-06
-4.51738e-07
4.49467e-07
8.15796e-06
-1.71411e-05
-9.44998e-07
-4.76471e-07
6.2964e-06
-2.20457e-06
-3.61536e-06
9.78008e-06
-3.63672e-06
-6.61984e-06
-1.08564e-05
-7.59147e-06
-1.95533e-06
2.83501e-08
-2.77587e-07
6.26747e-07
-6.21881e-06
6.59026e-06
-1.682e-05
-9.72875e-07
4.75797e-07
-6.25513e-06
-5.68409e-07
6.34774e-06
-9.15132e-06
8.26561e-06
1.36153e-06
1.05576e-06
-1.64622e-05
9.69212e-06
-8.20767e-06
-2.05285e-06
-1.27964e-06
1.73195e-05
2.67699e-06
-2.1572e-06
-8.72745e-06
-2.22141e-06
3.61875e-06
-2.61749e-06
8.66171e-06
-3.71883e-06
-6.73369e-06
-3.55426e-07
4.65433e-06
2.43478e-06
5.05168e-06
3.50543e-06
-1.52908e-05
-4.42242e-07
5.13854e-06
7.02546e-06
-4.26764e-06
-3.20006e-06
-4.69757e-06
1.68616e-05
2.9542e-06
-3.71639e-06
2.911e-06
5.57771e-06
1.56801e-06
-5.57181e-06
-1.57391e-06
-7.04073e-06
-4.1789e-06
1.67974e-05
-8.67274e-06
6.9223e-06
3.82172e-06
-1.63158e-05
1.02355e-05
-4.88711e-06
-1.12713e-05
1.73279e-05
-1.61223e-05
4.78714e-06
9.00253e-06
1.21988e-06
-1.50096e-05
1.05903e-06
-1.04111e-06
4.76922e-06
6.72553e-06
3.33602e-06
8.73898e-06
-5.04252e-06
-4.73757e-06
-1.18957e-06
1.46978e-05
-1.068e-05
1.6216e-05
-1.45027e-05
-3.78794e-06
-4.03252e-07
3.72859e-06
4.62603e-07
5.07276e-06
-1.18041e-05
-1.17521e-06
-5.13918e-06
1.18286e-05
1.87205e-06
-5.01172e-06
-5.30146e-07
3.51543e-06
2.02643e-06
3.45961e-06
1.85464e-06
-1.0326e-05
-4.89398e-07
3.41885e-06
4.42086e-06
-2.49252e-06
-2.41775e-06
-3.46573e-06
1.13054e-05
2.27773e-06
-2.91563e-06
2.32743e-06
-4.80494e-06
-6.37887e-07
3.86975e-06
1.57308e-06
2.83537e-06
1.68881e-06
-9.32922e-06
2.59291e-06
-3.95555e-07
-4.11883e-06
-1.26973e-06
7.98146e-06
-4.90943e-06
3.94992e-07
6.25861e-06
-9.47932e-06
8.85849e-06
-1.45242e-06
-1.85253e-07
1.95125e-06
-3.13575e-07
6.10671e-07
1.35988e-06
-3.42307e-06
4.63794e-07
-3.85058e-08
-1.14521e-06
-1.01199e-06
2.62098e-06
-2.6106e-06
1.42679e-06
2.66795e-06
-3.91879e-06
3.607e-06
1.06158e-06
2.90312e-06
1.31101e-06
-5.2757e-06
2.71482e-06
-2.74169e-06
1.08842e-06
1.16631e-06
4.45157e-06
4.9069e-06
-6.96804e-07
-6.95181e-06
1.76936e-06
4.22588e-06
-4.30646e-06
7.24209e-06
-3.69233e-06
4.04907e-06
-9.33462e-07
-4.30005e-06
1.18444e-06
-6.26922e-06
1.59892e-08
1.03023e-05
-6.20614e-06
-9.96536e-07
5.74994e-06
1.21675e-06
-1.12667e-05
5.75297e-06
1.18138e-06
1.77978e-06
1.7465e-06
-2.30957e-06
1.36532e-06
6.16742e-06
-1.79617e-06
3.17749e-06
-6.25581e-06
-8.93837e-06
-2.16981e-06
6.08695e-06
5.02122e-06
4.6008e-06
7.39586e-07
-1.42788e-05
-1.51764e-06
3.94863e-06
9.13695e-06
6.13056e-06
-1.45279e-05
1.27248e-06
1.39514e-05
6.21891e-06
-1.606e-06
1.144e-05
7.16879e-06
4.56115e-06
1.82968e-06
-1.35596e-05
-1.63548e-06
4.00185e-06
4.80245e-06
-1.77204e-06
4.69774e-06
7.17744e-06
-3.64161e-06
-5.30785e-06
-2.14227e-06
1.40175e-05
-2.96133e-06
4.82093e-06
-4.77319e-06
2.32633e-06
-1.57998e-06
-5.06402e-06
4.31768e-06
-3.99549e-06
-6.98256e-06
1.33044e-05
-4.06927e-06
-1.5062e-06
-2.27404e-06
-6.16212e-06
3.37214e-06
-4.94839e-06
-4.30817e-06
2.40549e-06
-1.26369e-05
-4.04906e-06
5.43764e-06
3.98009e-06
2.12705e-06
-1.15448e-05
-7.74929e-07
3.52856e-06
2.68402e-06
4.21122e-06
-1.00603e-06
-5.95717e-06
-2.51842e-06
1.26868e-05
-3.24428e-06
-3.71889e-06
2.18076e-06
-3.29796e-06
3.19095e-06
2.52357e-06
-7.30191e-07
-3.2704e-06
1.47702e-06
-2.89712e-06
-4.20555e-06
9.62626e-06
-2.86752e-06
-7.59775e-07
-4.51582e-07
-3.08667e-06
2.67864e-07
-3.04799e-06
-1.6091e-06
2.2169e-06
-8.17107e-06
-1.59084e-06
-3.59674e-06
6.81614e-07
3.46051e-06
-5.45382e-07
2.01447e-06
1.28582e-06
-6.89701e-06
5.89354e-07
2.10676e-06
4.98135e-06
-3.37241e-06
-1.01958e-06
-2.19763e-06
9.28576e-06
5.55875e-06
1.97596e-06
-6.24887e-06
1.60917e-06
7.41015e-06
2.888e-06
-4.28442e-06
2.29957e-06
-6.18324e-06
-4.10742e-06
-1.19868e-06
1.14893e-05
-3.68223e-07
-6.83454e-06
-4.12005e-06
-3.55571e-07
1.29488e-06
-4.49408e-07
-4.9655e-06
1.22718e-06
-2.87857e-07
1.8811e-06
2.11166e-06
-4.44216e-06
3.9738e-06
-8.65511e-07
7.75891e-06
-1.24818e-05
1.05341e-05
2.79493e-07
8.25953e-07
4.05859e-06
-5.16403e-06
1.27474e-06
4.1578e-06
-5.15302e-06
-9.41061e-08
2.19483e-06
3.73616e-06
-3.65796e-06
-1.72279e-07
-4.97829e-07
6.42886e-06
-1.92187e-06
3.94469e-06
2.0358e-06
4.56855e-06
-2.33256e-06
-6.60202e-06
1.00489e-05
-5.69136e-06
-1.87024e-06
-3.08384e-06
1.1383e-05
-1.74944e-06
-2.93037e-07
2.87477e-06
1.65281e-06
-6.27699e-06
2.7359e-06
-1.54137e-07
1.72695e-06
-5.76547e-06
8.97891e-06
-4.51605e-06
1.59441e-05
1.65801e-06
5.0377e-06
4.63276e-07
-7.15899e-06
2.37311e-06
3.71109e-06
1.90855e-06
5.50228e-06
6.66831e-06
-1.04867e-06
-6.8744e-06
1.9045e-05
-7.45976e-06
1.50555e-05
1.5318e-05
-1.91936e-06
-2.84541e-05
6.32277e-07
1.53364e-05
-9.13222e-07
-1.96353e-06
8.17644e-06
1.5388e-05
-1.25786e-05
-8.18657e-06
-2.14985e-06
2.2915e-05
-2.66772e-06
-9.74276e-06
-9.52062e-06
-1.33364e-06
-1.21778e-05
-8.00497e-06
-1.02667e-05
-1.16539e-05
5.89712e-07
-1.81153e-05
-1.10106e-05
2.66565e-05
9.36273e-08
1.97973e-05
5.94597e-06
8.85698e-06
-3.3124e-06
1.21693e-05
2.51898e-05
-1.30473e-05
2.44106e-05
-1.88114e-05
3.11641e-06
-4.94844e-06
-2.5859e-06
-6.64127e-06
1.78199e-06
7.97573e-06
-3.39387e-06
-8.19578e-06
-1.92915e-06
4.8944e-06
-5.5511e-06
6.11813e-06
1.79901e-06
9.25274e-07
-1.50232e-06
2.80503e-06
-4.62517e-06
1.45552e-05
8.30677e-06
-9.41503e-07
7.88482e-07
2.89315e-06
-3.84225e-06
4.13994e-07
-1.31912e-06
1.61522e-06
-1.6776e-06
4.12084e-07
1.67951e-06
-2.0561e-06
-9.40619e-07
1.09399e-06
6.91541e-08
-3.21924e-06
-7.88131e-07
3.42654e-06
-3.80259e-06
5.11092e-06
8.17208e-08
-6.36442e-09
-2.6499e-07
4.22362e-07
4.2521e-07
-1.00295e-07
-4.60324e-07
1.35408e-07
-1.54511e-07
-2.2884e-07
8.08561e-07
-8.59573e-08
-1.68848e-07
-1.27078e-07
5.43563e-08
-1.32357e-08
-1.13735e-08
-2.84552e-07
-3.85232e-07
2.10749e-07
-8.56929e-07
6.6538e-10
9.91168e-08
-7.92619e-08
-2.05203e-08
6.02835e-08
-5.89482e-08
-6.6986e-10
6.17941e-08
9.76068e-08
-3.66591e-09
2.1617e-08
-9.72128e-08
-1.15384e-07
5.27698e-08
6.27433e-07
-3.15203e-07
-2.50436e-07
-1.26727e-06
1.99231e-06
-4.17156e-07
-1.34312e-08
-1.66281e-06
-2.33897e-08
-1.99951e-07
2.87107e-08
-2.68453e-07
2.13347e-08
2.87899e-08
7.96516e-09
-5.80898e-08
6.49454e-08
-8.57182e-08
4.21076e-08
2.06934e-08
7.30423e-08
-5.26099e-08
1.28306e-07
-6.77306e-08
1.1297e-07
-2.51298e-07
5.61483e-08
-1.63131e-07
1.27676e-07
1.29888e-08
1.16202e-07
-1.31523e-07
2.72818e-07
-1.81684e-07
-3.11468e-08
-8.21876e-08
5.36763e-09
1.07967e-07
4.55964e-09
-1.09152e-07
7.34452e-08
-9.08632e-08
1.23632e-07
-3.86255e-07
1.53471e-07
3.39749e-07
2.89571e-09
-3.78311e-07
-1.24029e-06
-9.91731e-08
1.93709e-07
1.27744e-07
6.61202e-07
-5.03154e-09
-6.32501e-09
2.57487e-08
-1.43922e-08
3.77322e-08
-1.37182e-08
-2.90455e-08
8.48225e-09
2.29252e-08
-4.63096e-08
9.82345e-08
-2.61762e-08
1.78591e-08
-7.78868e-08
1.48445e-07
-1.22103e-07
2.69605e-07
-1.72239e-06
-3.85428e-08
5.2064e-07
-1.79859e-07
5.298e-07
-2.07233e-06
-9.07254e-08
3.65992e-08
-1.11227e-08
1.2277e-07
1.86647e-07
3.74363e-07
2.78208e-07
7.13319e-07
1.04272e-06
9.67322e-07
-1.18086e-06
-8.29183e-07
-1.16944e-06
1.41373e-06
7.98427e-07
-1.08367e-06
8.8155e-07
-6.87147e-08
-5.89884e-07
6.74869e-07
5.48428e-08
9.28972e-07
-1.33777e-06
-8.41768e-07
-2.40987e-07
7.69877e-07
-3.54032e-07
-1.74857e-07
1.51997e-06
-3.77319e-06
2.01223e-06
1.153e-06
1.13685e-06
-8.833e-07
5.59754e-07
1.47654e-06
-2.37632e-08
2.77312e-07
1.68588e-06
-4.89931e-06
1.30808e-06
5.69441e-06
-1.28113e-06
-2.10033e-06
-2.31295e-06
-4.23029e-06
-5.29764e-07
1.04545e-05
-5.99655e-06
4.8522e-07
9.74234e-06
-2.33009e-06
-9.51247e-06
-8.7574e-06
1.79701e-05
1.26314e-05
-2.0958e-05
4.35937e-06
9.74727e-06
1.523e-05
5.90416e-06
-3.08814e-05
-5.92116e-07
2.47099e-06
7.86843e-06
1.4159e-05
4.78896e-07
7.21445e-06
-1.62051e-05
1.14616e-05
-6.31263e-06
2.13955e-05
-1.70852e-05
2.49316e-05
-2.7386e-05
-7.28148e-06
-1.13731e-05
-1.74606e-05
3.61152e-05
-3.35293e-06
-1.52389e-05
1.13104e-05
-2.52325e-06
-1.22027e-05
-6.8915e-06
-2.05653e-05
1.22179e-05
-1.51801e-05
-9.17175e-06
-7.72345e-06
-9.97984e-06
-4.04915e-05
-8.60599e-06
8.5617e-06
-2.19987e-05
2.2043e-05
1.50592e-05
-1.57832e-05
-7.88189e-06
-1.34991e-05
3.71203e-05
1.32993e-05
1.3477e-05
-4.25594e-05
2.28062e-05
-1.73885e-05
4.18549e-06
8.27524e-06
1.0165e-06
8.3684e-06
1.86236e-05
-3.33447e-06
-1.79611e-06
-1.70577e-05
-2.40564e-05
-9.86045e-06
7.41976e-06
2.64971e-05
9.92433e-06
-9.36531e-06
-2.46153e-05
-9.05765e-06
9.12171e-06
2.72704e-05
-1.42848e-05
9.08625e-06
2.73059e-05
7.70377e-06
-1.23684e-06
-2.07517e-05
1.18453e-07
1.66716e-05
7.29022e-06
-1.78922e-05
1.48287e-05
1.49268e-05
6.08625e-06
-8.44846e-06
-1.25646e-05
5.73268e-06
1.4101e-05
-4.90698e-06
4.84317e-06
6.97576e-06
6.58763e-06
-1.87169e-06
-1.31644e-05
6.48749e-06
1.4201e-05
-1.5683e-07
3.12819e-06
1.33064e-05
8.77014e-08
-4.36977e-06
4.33478e-06
-5.27079e-08
-4.29135e-06
4.20912e-06
1.69877e-07
4.59718e-06
-1.32584e-05
-4.10149e-06
-4.04319e-06
1.23538e-05
-4.57094e-06
6.39336e-07
-4.91573e-08
2.42422e-07
-3.76183e-06
6.28459e-08
4.20976e-06
-5.1077e-07
4.07677e-06
5.14724e-06
-1.29859e-05
1.68439e-08
4.12263e-06
4.14899e-07
4.00119e-06
-2.06404e-07
4.08904e-06
1.47279e-06
3.95231e-06
1.53399e-07
1.20758e-05
6.33833e-06
-6.98246e-08
3.87783e-07
-3.86191e-06
1.25646e-05
-3.83623e-06
-9.55211e-08
6.06805e-06
-2.06768e-07
-2.45425e-07
3.34343e-06
1.37758e-07
-3.23576e-06
6.82497e-06
-5.96133e-06
-1.10906e-06
-4.64649e-06
1.48149e-05
-2.79688e-06
2.64919e-06
2.85467e-07
9.7599e-07
-7.00862e-06
3.00984e-06
-7.99515e-06
1.01251e-06
-5.04579e-06
-7.7739e-06
-2.46218e-06
1.52819e-05
-8.00578e-08
2.10669e-07
-5.17641e-06
-6.94902e-06
-9.04968e-07
-8.45162e-06
7.82875e-06
8.3352e-07
2.3228e-06
-1.59508e-05
1.06301e-05
-1.52563e-05
1.59966e-05
-4.76114e-06
2.20754e-07
4.54223e-06
-1.84204e-09
4.76005e-06
4.71577e-06
-1.4237e-05
4.70766e-06
2.73134e-07
5.00579e-07
4.72692e-06
-5.11738e-07
4.92834e-06
1.14446e-07
-5.10004e-06
1.4736e-05
-1.00039e-07
-2.56507e-06
-2.94111e-07
2.78459e-07
2.58072e-06
5.61694e-06
5.51372e-06
-1.36957e-05
5.3596e-06
-3.68074e-08
1.37095e-06
-1.3913e-06
2.98791e-07
-9.27743e-07
4.87939e-06
1.04629e-06
3.07611e-06
5.47811e-06
2.59826e-07
4.83869e-06
-4.83175e-06
-2.66774e-07
5.16248e-06
-4.66537e-06
-2.37302e-07
-4.94806e-06
1.49492e-05
4.82599e-06
4.7751e-06
-1.44329e-05
4.52222e-06
5.07717e-07
-3.98018e-07
8.18226e-08
-1.92061e-06
-6.69425e-06
-6.13996e-06
1.47548e-05
2.4367e-07
-4.42719e-08
-2.12002e-06
-6.82242e-06
3.71828e-07
-2.95134e-06
2.79484e-06
1.1222e-07
1.62489e-06
-6.69626e-06
4.95981e-06
-1.01574e-05
5.38339e-06
2.37123e-06
-3.84791e-07
4.60044e-06
2.51736e-06
-1.38141e-05
4.73833e-06
-2.56862e-08
-8.02609e-06
1.51356e-05
-7.30913e-06
-7.42671e-07
6.24817e-06
-3.82435e-07
4.86702e-07
-6.35244e-06
-3.70415e-06
-5.40364e-06
-4.97697e-07
-3.58888e-06
-7.74164e-06
8.14817e-06
-9.0422e-07
4.18759e-06
-1.55181e-05
-5.00978e-06
9.28427e-08
1.25899e-05
1.57283e-05
-5.01292e-07
6.21725e-06
3.44864e-06
2.51074e-07
-5.11855e-06
4.82841e-06
3.9071e-08
-5.09729e-06
5.03681e-06
3.11556e-07
4.81631e-06
-1.50322e-05
-5.46986e-06
-5.22563e-06
1.57323e-05
-4.94611e-06
-2.12273e-07
8.18124e-07
-9.47935e-07
4.20868e-07
-5.99595e-06
-5.40928e-06
-5.48442e-06
-2.13644e-07
-5.30297e-06
-4.79338e-07
-2.12514e-07
-5.41042e-06
-5.45066e-06
5.34646e-06
-1.08317e-07
5.36856e-06
-1.62296e-05
8.12111e-07
-7.46542e-07
6.74147e-07
6.59209e-07
5.41725e-06
-7.13984e-07
-5.36247e-06
5.23531e-06
-5.70581e-06
1.12972e-06
-6.336e-06
1.69886e-05
-4.91407e-06
5.55051e-06
-1.3504e-06
6.1426e-06
-1.64191e-05
-1.69492e-07
6.06285e-07
-9.54953e-07
-1.42701e-07
-3.75028e-06
-7.39415e-06
-1.73633e-05
4.04545e-08
-6.03102e-06
5.35112e-06
6.39452e-07
-5.60264e-06
5.54372e-06
9.93795e-08
5.31984e-06
-1.69535e-05
-6.41335e-06
-5.3719e-06
1.7329e-05
-5.34977e-06
-9.6421e-07
1.31685e-06
-1.34677e-06
1.29609e-06
1.26274e-07
5.65219e-06
-5.83242e-06
5.3952e-08
8.67324e-06
-9.51982e-06
-9.07709e-06
-1.1786e-05
2.44526e-06
-1.77975e-05
-7.95189e-06
-1.07124e-06
-1.72926e-05
1.21952e-05
8.98905e-06
-3.31975e-06
-1.78646e-05
-8.6622e-06
-9.75235e-06
-5.77216e-06
-7.44315e-07
5.87872e-07
-8.94586e-06
-1.39436e-06
-5.92861e-06
-1.81942e-05
-4.15387e-07
6.91625e-06
-2.54301e-06
-3.95785e-06
1.06393e-05
-4.09434e-06
-6.9603e-06
-1.23945e-05
-9.06529e-06
-2.02187e-06
-3.59799e-07
-1.6134e-07
2.93635e-07
-6.40985e-06
6.98353e-06
-1.90844e-05
-2.44154e-06
-4.00145e-06
-5.08125e-06
-1.08243e-06
1.01651e-05
-1.19134e-06
-3.26991e-06
4.59792e-07
-5.09688e-06
-1.17572e-06
-5.97698e-06
-9.65047e-06
1.4545e-05
-6.50883e-06
-2.73806e-06
8.42249e-06
-2.00282e-05
-2.40372e-06
-9.31919e-06
-5.41981e-08
7.28028e-06
2.09311e-06
4.09021e-06
4.89624e-06
-1.83057e-05
-4.70569e-08
4.08306e-06
1.21033e-05
-8.08841e-06
-4.06195e-06
-3.62813e-06
1.98145e-05
-2.9479e-06
7.58127e-06
2.6469e-06
5.19767e-06
-3.24934e-06
1.65092e-05
-1.94e-05
2.04623e-05
2.20401e-06
-1.52352e-06
5.72152e-06
-6.402e-06
-4.79766e-06
5.20038e-06
1.80125e-06
7.60419e-06
-1.39254e-05
-2.96829e-06
-7.79934e-06
1.5968e-05
-6.05415e-06
-3.69078e-06
5.24081e-06
-5.76862e-06
3.32283e-06
9.13834e-06
-1.08842e-06
2.75141e-06
-2.96648e-06
3.53788e-06
3.16868e-06
8.72105e-06
9.68643e-06
2.2916e-07
1.76969e-06
1.14546e-05
8.83043e-06
2.65298e-06
-5.31294e-07
7.52845e-07
-2.87453e-06
-4.93831e-06
6.02511e-06
-3.6802e-06
-5.38909e-06
2.78185e-06
-7.83753e-06
-1.24112e-06
-1.86539e-06
-4.73103e-06
-9.432e-07
-1.34889e-06
1.05095e-06
-1.34588e-06
-1.46278e-06
-9.80597e-07
2.56253e-07
-6.2154e-07
3.31997e-06
-5.76335e-06
-2.14371e-06
1.05104e-06
-7.83296e-07
1.53204e-06
9.08488e-08
-8.39597e-07
3.17063e-06
-1.3332e-06
-7.93343e-08
4.7819e-06
-6.02456e-07
1.46888e-07
5.46345e-07
-1.37653e-06
-6.56727e-08
-5.81438e-07
1.73227e-07
5.54962e-07
-6.62214e-08
-1.89185e-06
9.13688e-07
-2.31318e-06
1.00748e-06
9.74538e-06
1.08632e-05
2.6153e-06
-2.32239e-05
4.27925e-06