/*--------------------------------*- C++ -*----------------------------------*\
| =========                 |                                                 |
| \\      /  F ield         | OpenFOAM: The Open Source CFD Toolbox           |
|  \\    /   O peration     | Version:  v2012                                 |
|   \\  /    A nd           | Website:  www.openfoam.com                      |
|    \\/     M anipulation  |                                                 |
\*---------------------------------------------------------------------------*/
FoamFile
{
    version     2.0;
    format      ascii;
    class       volVectorField;
    location    "0.15";
    object      U;
}
// * * * * * * * * * * * * * * * * * * * * * * * * * * * * * * * * * * * * * //

dimensions      [0 1 -1 0 0 0 0];


internalField   nonuniform List<vector> 
6576
(
(0.0314642 -1.48251 -0.0569733)
(-0.0842232 -1.52851 0.070993)
(-0.0285995 -1.56405 0.0129938)
(0.0409077 -1.45276 -0.0553646)
(-0.00309758 -1.50523 0.00605575)
(-0.0721216 -1.59138 0.073424)
(-0.013921 -1.54327 0.0308265)
(0.0130986 -1.49824 -0.000218802)
(0.0144408 -1.24914 -0.0104436)
(0.0142768 -1.46091 -0.00135285)
(-0.0111902 -1.51804 -0.0163686)
(-0.0155368 -1.56157 -0.0135928)
(-0.00204454 -1.54957 0.00387475)
(0.00612171 -1.48829 -0.0013357)
(0.0537409 -1.45798 0.0218542)
(0.0105989 -1.82091 -0.0325539)
(0.0554969 -0.865649 0.0327112)
(0.0154713 -1.71606 -0.0166167)
(0.0495522 -1.56051 0.0578837)
(0.0145158 -1.48223 0.0021442)
(0.0421517 -1.37735 0.0450144)
(0.00174455 -1.51752 0.0120104)
(0.0089862 -1.46525 0.00721202)
(-0.00481281 -1.50019 -0.0123952)
(0.00214953 -1.60624 0.0100296)
(0.0481646 -1.53109 0.0510968)
(0.0580984 -1.49826 0.0598673)
(-0.0004163 -1.45734 0.0144054)
(-0.00593732 -1.5806 -0.0306537)
(0.00194033 -0.960268 -0.00673656)
(-0.0481258 -1.57031 0.0582058)
(-0.0247645 -1.4533 -0.00850969)
(-0.00903505 -1.5526 2.73829e-05)
(0.00883488 -1.45038 0.0294961)
(0.014114 -1.46103 0.0340705)
(-0.0171637 -1.25076 0.0103047)
(0.00420901 -1.63754 0.0117375)
(-0.0115722 -1.56566 0.0105953)
(0.0168743 -1.47615 0.0254163)
(0.00929053 -1.47283 0.0178922)
(0.00128289 -1.31049 0.0341783)
(-0.0152419 -1.47367 0.00702106)
(-0.00175298 -1.40296 0.00630998)
(-0.0738881 -0.0508965 -0.105952)
(-0.0357509 0.0681163 -0.0253582)
(-0.00917642 0.0519938 -0.0152075)
(0.0462363 0.0405039 -0.00456078)
(-0.123945 -0.153872 -0.170783)
(-0.0230899 -0.016046 0.00367945)
(-0.015037 -0.0139119 0.0340539)
(-0.0391363 0.0433764 -0.0365677)
(-0.0592921 -0.0209739 -0.0678376)
(0.00200868 0.333499 -0.00907199)
(0.00105793 0.319034 -0.00952388)
(-0.00384485 0.322858 -0.00505414)
(0.00322512 0.317319 -0.00947225)
(0.000412347 0.325937 -0.00387728)
(-0.00159085 0.319396 -0.00272147)
(-0.00149666 0.320055 -0.00530039)
(0.000127117 0.330814 -0.00247076)
(-0.00391033 0.325938 0.000201112)
(0.000785542 0.330332 -0.00848466)
(-0.00241369 0.332883 -0.00209716)
(0.00230978 0.325782 -0.00107422)
(0.00167092 0.325411 -0.000301564)
(0.00156143 0.325629 -0.00830027)
(-0.003299 0.326139 0.00511919)
(-0.00203293 0.322471 0.00276719)
(-0.000575733 0.308385 0.000116418)
(-0.00451653 0.31162 0.00193515)
(-0.00257676 0.324956 -0.00162209)
(-0.00210601 0.311155 0.00136551)
(-0.00177606 0.320479 -0.00150654)
(-0.307889 -1.88768 0.0603765)
(-0.517156 -1.24764 -0.210539)
(0.129566 -2.86513 0.360814)
(-0.153577 -1.18521 -0.33898)
(-0.0961992 -1.65763 -0.211121)
(0.100409 -2.65252 -0.138034)
(0.197862 -2.15684 -0.000487712)
(0.231469 0.95349 -0.619617)
(0.126423 0.578512 -0.113518)
(0.164741 0.701506 -0.19814)
(-0.254427 0.712312 -0.911124)
(-0.575337 -0.186786 -0.15968)
(-0.234104 -0.453831 -0.394196)
(-0.208999 0.243123 -0.525516)
(0.0944007 -0.22222 0.265668)
(-0.0332462 -0.35024 -0.0701423)
(-0.00473858 -0.147057 -0.219026)
(0.00815162 -0.117753 0.0438223)
(-0.0501881 -0.148495 0.00182216)
(-0.0819196 -0.302848 -0.0379592)
(0.0855573 -0.0921767 -0.0300331)
(-0.0644833 -0.0396573 0.0165785)
(0.0271765 -0.050703 0.0171937)
(-0.0417417 -0.0517668 0.0543872)
(0.00257146 0.0292062 0.0218204)
(0.0556438 0.00104962 -0.030346)
(0.0312841 0.00244345 -0.0167269)
(-0.0519608 -0.00506966 0.0125655)
(-6.7602e-05 -0.00185105 0.0123835)
(-0.00253049 -0.00129682 0.00901115)
(-8.83268e-05 -0.00039961 0.0136679)
(-0.00136692 0.00151456 0.00954813)
(-0.00096611 -8.9103e-05 0.0132617)
(0.00197493 0.00404938 0.0142223)
(0.00285193 -0.00112053 0.0122345)
(-0.00114706 -0.00608026 -0.00819492)
(-5.95053e-05 -0.00546863 -0.00174457)
(-0.00698004 -0.000941067 -0.00188184)
(0.00364581 -0.000768833 -0.0123372)
(-0.0280922 0.0188244 0.00732792)
(-0.0110279 -0.00499042 0.00764579)
(0.0235116 -1.53688 0.0925007)
(-0.0114866 -1.76252 0.0175454)
(0.0361905 -1.76313 0.0234893)
(-0.0357487 -1.80081 0.0365719)
(-0.032197 -1.85553 0.0163033)
(0.00231996 -1.83669 0.0179236)
(0.0237227 -1.79494 0.110362)
(-0.0085875 -1.09144 0.0655219)
(0.0908855 -1.53579 0.127908)
(-0.0233653 -1.59277 0.00300087)
(0.00796957 -1.57199 0.0136462)
(-0.0854014 -1.4782 -0.0265418)
(0.129559 -1.72455 0.17812)
(-0.15346 -1.30078 -0.00323384)
(0.00823052 -3.41928 0.152781)
(0.056099 -3.48253 0.113543)
(-0.0201033 -3.33886 -0.0446043)
(0.0513294 -3.1537 -0.524984)
(-0.0278612 -3.22688 -0.302446)
(-0.0269585 -3.12465 -0.624689)
(-0.130439 -3.21335 -0.468741)
(-0.000156545 0.255463 0.00523392)
(-0.00168647 0.284155 0.015906)
(0.00178373 0.274052 0.00642954)
(0.00124571 0.27318 0.00672466)
(-0.0042554 0.277824 0.00919638)
(-0.000893683 0.282457 0.0173986)
(0.00468025 0.282906 0.00618787)
(0.000496003 0.251909 0.00596787)
(-0.000376328 0.244025 -0.00673673)
(0.00613892 0.266189 0.0143088)
(-0.00123958 0.254759 0.000882811)
(-0.00123956 0.256383 0.00485678)
(0.00821779 0.262173 0.020616)
(0.00328831 0.256882 0.0122777)
(-0.0086807 0.256679 0.0211149)
(0.00110191 0.250331 0.00354287)
(0.0018524 0.256868 0.0151749)
(-0.00210575 0.253754 -0.00387657)
(0.0029726 0.253006 0.00164969)
(0.00438787 0.258407 0.00834743)
(-0.0142001 0.266902 0.0137608)
(0.00845786 0.213765 -0.00617885)
(0.00169174 0.226689 -0.0107625)
(-0.00201563 0.248067 -0.0131363)
(0.00711239 0.223067 -0.00679145)
(0.000226687 0.232178 -0.011781)
(-0.00894595 0.248064 -0.0161645)
(0.000549295 0.238829 -0.00944805)
(-0.00193907 0.243981 -0.0130354)
(0.0139261 0.227423 -0.00169166)
(-0.000609867 0.215704 0.0233568)
(0.00203112 0.22709 0.0479382)
(-0.0144979 0.235151 0.0532046)
(-0.0052807 0.222667 -0.0058411)
(0.00591857 0.210677 0.0130526)
(0.00593009 0.225446 0.0330568)
(-0.0288502 0.249791 0.0395239)
(0.0195035 0.222161 0.0144374)
(-0.0112983 0.201086 0.012643)
(0.000294977 0.208024 -0.000838605)
(0.0365596 0.19579 0.0148487)
(-0.0299389 0.154216 0.0623902)
(0.0107914 0.195065 -0.015826)
(-0.000666357 0.206708 -0.00819864)
(0.00247236 0.200408 0.00322736)
(0.0185864 0.209008 -0.0102494)
(0.0126792 0.0885114 0.116462)
(0.0046998 0.0961357 0.127385)
(0.00062746 0.0868264 0.0870785)
(0.0256081 0.0724729 0.119138)
(0.0188345 0.0726061 0.128094)
(-0.00491449 0.0510185 0.089062)
(0.0254238 0.0787463 0.0812872)
(0.0249368 0.0701548 0.120759)
(-0.000312535 0.0620195 0.11958)
(-2.55265e-05 0.226649 0.279196)
(-0.00533075 0.113932 0.222427)
(0.0109514 0.216748 0.297611)
(0.0171476 0.070995 0.180359)
(-0.0138939 0.110022 0.155158)
(0.0564365 0.194026 0.248136)
(-0.0182367 0.223075 0.251953)
(0.00978691 -0.0653641 0.16941)
(0.0740314 -0.0623466 0.259016)
(-0.106351 -0.0817693 0.321186)
(-0.0675022 -0.16375 0.360701)
(0.0028702 -0.0750082 0.250764)
(-0.0353198 -0.109999 0.371909)
(-0.152074 -0.168208 0.454813)
(0.0552395 -0.0977712 0.430752)
(-0.00340914 -0.253898 0.550743)
(0.177449 -0.485424 0.544951)
(-0.165501 -0.0960004 0.541888)
(-0.244658 0.0408984 0.448099)
(-0.144726 -0.0394425 0.415467)
(-0.00761599 -0.280912 0.542445)
(-0.213739 -2.61168 -0.642491)
(0.181218 -2.28183 -0.310647)
(0.0395668 -2.21295 -0.311783)
(-0.259608 -2.43011 -0.60526)
(-0.296394 -2.62207 -0.627065)
(-0.58324 -3.01583 -0.904108)
(-0.427748 -2.63139 -0.748232)
(0.000879467 0.308282 0.169837)
(0.0104905 0.412352 0.313199)
(-0.0841996 0.335586 0.307584)
(-0.0249411 0.307248 0.177986)
(0.0305378 0.316819 0.151267)
(0.0172939 0.387648 0.275341)
(-0.0746716 0.320052 0.279781)
(0.00988643 0.325788 0.201722)
(-0.0176174 0.292448 0.20866)
(0.00199781 0.298152 0.208623)
(-0.0245565 0.250333 0.244093)
(-0.000602895 0.276712 0.22972)
(0.0119777 0.254649 0.228927)
(-0.0115005 0.226485 0.248717)
(-0.0013916 0.149858 0.155834)
(-0.0204457 0.185559 0.123099)
(0.004476 0.175796 0.140185)
(0.0135902 0.19881 0.198211)
(-0.0275775 0.128498 0.179655)
(-0.0631738 0.174502 0.149825)
(-0.00320536 0.213174 0.170051)
(0.00768727 0.197507 0.0716188)
(-0.00275723 0.192756 0.0939983)
(-0.012025 0.227475 0.0474872)
(-0.0298904 0.243424 0.146706)
(0.00117975 0.220497 0.140383)
(-0.0557198 0.271199 0.11833)
(0.000246002 0.218144 0.111488)
(-1.9216e-05 0.211709 0.0384273)
(-0.0033919 0.228254 0.0477646)
(-0.00179689 0.235995 0.0384495)
(0.00167995 0.214444 0.043128)
(-0.00850807 0.211789 0.0370158)
(-0.00765115 0.222693 0.0280078)
(-0.00120221 0.213219 0.0251579)
(0.00113214 0.223412 0.03339)
(-0.00459828 0.231077 0.0320587)
(-0.00200062 0.246664 0.0141445)
(-0.00817513 0.256246 0.0128293)
(-0.00363519 0.263675 0.0176518)
(-0.00209563 0.226368 0.0134337)
(0.00934357 0.24992 0.0206161)
(-0.00688623 0.239824 0.00478056)
(0.00684676 0.261443 0.0194649)
(0.00116747 0.28019 -0.00106362)
(0.00267375 0.285769 0.0127242)
(-0.00761298 0.274209 0.01226)
(-0.00601001 0.286608 0.0125651)
(0.00202018 0.288041 0.010531)
(0.0045242 0.288551 0.0161127)
(-0.00864617 0.27517 0.0103867)
(-0.00119905 0.00158526 0.00953294)
(0.00187192 0.00123579 0.01001)
(0.00218239 -0.0156815 0.0080779)
(-0.00399646 0.00445871 0.0100849)
(0.00136755 0.00744156 0.00714893)
(0.00613741 0.0372428 0.00664487)
(0.00323496 -0.00293297 0.00991953)
(0.00509608 0.00120487 0.00816709)
(0.0015538 0.00372125 0.00826754)
(0.0244816 0.00672263 -0.0101608)
(-0.00511643 -0.0879365 -0.0380054)
(0.00443802 -0.155639 -0.000152421)
(0.0433735 0.0710096 -0.0288395)
(0.0573887 0.0801872 0.00946186)
(0.0333509 -0.0315924 0.0839539)
(0.0100668 0.0673825 0.0664539)
(-0.113111 -0.0764746 0.36332)
(-0.321935 -0.207718 0.655961)
(-0.094579 -1.19524 -0.458309)
(0.174809 -0.801057 -0.267628)
(0.0955663 -0.202041 0.328677)
(-0.347361 -0.247381 0.848058)
(-0.23719 0.0966607 0.338799)
(0.210768 0.327502 -0.179898)
(-0.118621 0.474421 0.126345)
(-0.00680918 -0.0489401 -0.028958)
(0.0276241 0.108229 -0.000612727)
(0.045689 0.0388927 -0.0269452)
(0.518258 0.813845 -0.274404)
(0.335563 0.561901 -0.1208)
(0.671981 1.0134 -0.125058)
(0.711334 0.212715 0.112122)
(-0.314136 -0.0329136 0.552569)
(0.56924 1.3131 0.300641)
(0.990685 1.78772 0.17059)
(0.0205804 0.33353 -0.114517)
(0.0116107 0.340481 -0.118288)
(-0.0040617 0.310265 -0.0984361)
(-0.0134087 0.306466 -0.091283)
(-0.00261567 0.309097 -0.100251)
(-0.0123512 0.303741 -0.103925)
(-0.0125962 0.299986 -0.102748)
(0.0233951 -1.96674 0.0257935)
(-0.0408446 -1.93383 0.0187299)
(-0.0448134 -1.56088 0.0136092)
(-0.00176818 -1.86433 0.137018)
(-0.122455 -1.87261 0.155628)
(0.0524246 -1.43879 0.19299)
(-0.0125423 -1.55762 0.0520051)
(-0.335818 -1.53563 0.385349)
(-0.449701 -1.2503 0.631616)
(0.000242517 0.415653 -0.0186642)
(-0.00273639 0.505373 0.0137011)
(-0.00285564 0.500601 -0.0220582)
(-0.00472775 0.457498 0.0245171)
(0.0378312 0.449004 -0.00910352)
(-0.033773 0.535673 0.0727341)
(0.00748318 0.513974 0.00649842)
(0.154865 -0.482575 0.0608229)
(-0.0737144 0.260591 0.631577)
(-0.0189107 -0.320023 -0.218762)
(-0.0564939 0.0659116 0.0204593)
(0.139439 0.408698 -0.189077)
(0.0362647 -0.233237 -0.43549)
(0.0595743 -0.339999 -0.269829)
(-0.0686161 -0.2985 0.267194)
(-0.101565 0.239678 0.326682)
(0.211787 -0.577863 0.111898)
(-0.146875 0.175857 -0.0912075)
(0.171115 0.263882 -0.0587784)
(-0.316093 -0.00256354 0.00031681)
(-0.186843 -0.0501409 0.0602718)
(-0.130378 -0.151238 -0.0845507)
(-0.22318 0.0605752 -0.195109)
(-0.0216608 -0.334889 0.100955)
(-0.0173036 -0.0565299 -0.0862076)
(0.019919 0.403729 -0.420635)
(-0.212078 -0.416437 0.111947)
(-0.16055 -0.271973 -0.270168)
(-0.0852246 -0.580795 -0.22849)
(-0.0101606 -0.268085 -0.514859)
(-0.398929 -0.79927 -0.51438)
(-0.526344 -0.811574 -0.0748721)
(0.00254616 -0.00197533 0.000822324)
(-0.000267984 0.002279 0.00850949)
(-0.00191474 0.000262538 0.00149367)
(-0.00143629 0.00399428 0.00043433)
(-0.000583433 0.000795472 -0.0056109)
(-0.00253035 0.000618243 -0.00236878)
(-0.000362534 0.000357975 -0.00357491)
(-6.79004e-05 -0.000899365 0.00947265)
(-0.000854751 -0.000165299 0.00924913)
(-0.00230694 -0.000212478 0.00862678)
(0.000579889 0.00174225 0.00752203)
(0.000632427 0.0014402 0.00587113)
(0.00741016 -0.00440444 0.00533824)
(-0.00368413 -0.00459939 0.0118589)
(-0.000485846 0.000872769 0.00746449)
(0.000696391 0.00067553 0.0105394)
(-0.0201725 0.0127827 0.0632854)
(-0.0248958 0.0399298 0.034818)
(-0.0230404 -0.0705531 0.0873443)
(0.0522492 -0.083705 -0.0378801)
(0.0382516 -0.0612925 0.0254065)
(0.0346567 0.0335727 -0.0595468)
(0.0148512 0.0170109 -0.0159716)
(0.369934 0.260844 0.457299)
(0.158529 0.354957 -0.0768123)
(-0.146475 0.277896 -0.274691)
(-0.097732 -0.200079 0.291479)
(0.0653386 -0.0455854 0.363628)
(0.0921885 0.0363486 0.253607)
(0.124216 0.0229454 0.297474)
(0.0163938 0.529571 -0.255706)
(0.00151814 0.535145 -0.287455)
(0.00845745 0.518078 -0.27689)
(0.003252 0.620153 -0.317875)
(0.0087855 0.567286 -0.343103)
(0.00203277 0.604939 -0.307937)
(0.00520307 0.552958 -0.322763)
(0.0127445 0.535903 -0.303686)
(0.017585 0.56871 -0.269161)
(0.116863 0.682662 0.0323427)
(0.0010864 0.73223 0.133536)
(0.000290261 0.657847 0.00246263)
(-0.0559272 0.897793 0.115776)
(0.0441361 0.834564 -0.0416302)
(-0.0882714 0.974853 0.26089)
(0.112783 0.858611 0.0290661)
(0.00871257 0.410158 0.375883)
(-0.0459539 -0.134106 0.419045)
(-0.0530479 0.642466 0.312818)
(-0.0421163 -0.249055 0.377697)
(-0.19016 -0.1094 0.264112)
(-0.000182305 -0.0711344 0.319024)
(-0.113956 0.428844 0.355541)
(-0.0575312 0.565953 0.334145)
(-0.0390748 0.368622 0.368591)
(0.0226878 -1.49509 -0.0991528)
(-0.0759567 -1.70627 -0.0365754)
(-0.0399237 -1.77355 -0.0769568)
(0.00393401 -1.64599 -0.147526)
(0.0425797 -1.642 -0.0845892)
(-0.0555022 -1.73097 -0.0667983)
(-0.0549833 -1.72226 -0.164026)
(-0.0011317 -2.28503 -0.0578118)
(0.00565653 -2.25532 -0.0452412)
(-0.00201938 -2.2628 -0.0569363)
(0.00129184 -2.30759 -0.0737294)
(-0.0102413 -2.30106 -0.0703683)
(-0.0189524 -2.28414 -0.0706408)
(-0.0057718 -2.284 -0.0696479)
(0.000489992 0.260378 0.0391489)
(0.0165404 0.26998 0.0622267)
(-0.00819864 0.273197 0.047413)
(0.00646806 0.278668 0.0520846)
(-0.00212432 0.279647 0.0422835)
(0.0251529 0.295309 0.0743564)
(-0.00706064 0.286488 0.0546968)
(0.00236864 0.283832 0.0459138)
(-0.00792156 0.279815 0.0470155)
(-0.00195948 0.282684 0.0479889)
(-0.00603847 0.293302 0.0303201)
(0.00983362 0.290041 0.0376024)
(0.012137 0.303531 0.028373)
(-0.000257845 0.303887 0.0249787)
(-0.000453458 0.281195 0.0141605)
(0.0139913 0.293418 0.0311595)
(-0.00743918 0.294451 0.0173728)
(-0.00351674 0.301847 0.0217538)
(0.00588601 0.301279 0.0352621)
(0.0148022 0.314913 0.0457065)
(-0.0111034 0.307152 0.0297123)
(0.0102987 0.300269 0.0173703)
(-0.00227339 0.295851 0.0202918)
(-0.00120002 0.284565 0.0178468)
(0.00441697 0.301634 0.018934)
(-0.0032104 0.297897 0.0207996)
(-0.00707857 0.295774 0.0260415)
(0.00195092 0.297961 0.0247993)
(-0.0057185 0.297544 0.0252621)
(-0.00173804 0.301836 0.022144)
(0.0172847 0.286323 0.0225898)
(-0.00490955 0.290356 0.00846792)
(4.55103e-05 0.287546 0.00127243)
(0.00036018 0.312539 0.0113891)
(0.00562929 0.306473 0.0210318)
(0.000320398 0.310579 0.0181632)
(0.0199537 0.312235 0.0379067)
(-0.000978202 0.162035 0.00347374)
(0.00229182 0.288216 0.00142441)
(-0.0177477 0.282186 0.0181176)
(0.0034553 0.31148 -0.0166984)
(-0.00770177 0.248041 0.00158729)
(0.00557024 0.33062 -0.00926282)
(-0.0172302 0.306275 0.0181927)
(0.00118986 0.297398 -0.0294391)
(0.0111398 0.318366 -0.0100354)
(-0.0171628 0.317326 -0.00464521)
(-0.0143108 0.307363 0.0189286)
(0.00454597 0.308743 0.001382)
(0.00323371 0.322528 0.0111703)
(-0.0412009 0.328311 0.0387483)
(-0.000275216 0.333838 0.0245308)
(0.00986719 0.298536 -0.00279297)
(-0.00226133 0.285517 0.00572053)
(0.00359237 0.273735 0.0103011)
(-0.000510336 0.318667 0.0151108)
(0.00840771 0.294342 -0.0112686)
(-0.00368573 0.272693 0.0010455)
(-0.000530527 0.32393 -0.00412404)
(0.00449976 0.308118 -0.0120791)
(0.000230868 0.332464 -0.0226383)
(-0.0140545 0.300008 0.0184423)
(-0.00367236 0.246499 -0.00181515)
(-0.00712258 0.288588 -0.000545276)
(-0.0181712 0.31435 0.0195115)
(-0.00264969 0.289517 -0.000573341)
(-0.0150668 0.187921 -0.00154063)
(0.0141699 0.288376 -0.0265214)
(-0.0170324 0.276692 0.0226414)
(0.00122637 0.162584 0.00256311)
(-0.00469667 0.278228 0.0031643)
(0.00582724 0.311096 -0.00179998)
(0.0356394 0.311689 -0.028599)
(-0.00464284 0.304946 0.0237756)
(0.056607 0.356081 -0.0491919)
(0.00757456 0.339057 -0.0227111)
(-0.0123752 0.313295 0.0140664)
(0.00232605 0.318657 0.00160678)
(0.000110701 0.314129 0.0316335)
(-0.00597822 0.314235 0.0149651)
(0.00315401 0.312094 0.0190154)
(-0.00515878 0.307479 0.0156268)
(0.00629671 0.303447 0.00725002)
(-0.0149197 0.328154 -0.00167548)
(0.0227365 0.317853 -0.0170407)
(-0.0127827 0.321637 0.00709852)
(-0.000547576 0.318179 0.0048882)
(-0.00768927 0.320983 0.000251244)
(0.00107203 0.324096 -0.00414751)
(0.00317928 0.317547 0.0115215)
(0.00942903 0.319091 0.0094711)
(-0.00287432 0.321736 -0.00408561)
(-0.00239287 0.324076 0.00281464)
(0.000377637 0.313639 0.00994066)
(-0.000320732 0.313571 0.0161803)
(-0.00404503 0.317617 0.0173566)
(0.00467241 0.317226 0.0136584)
(0.00241872 0.324729 0.0129431)
(0.0121315 0.320666 0.00930471)
(0.00559682 0.32306 0.0206252)
(-0.0136281 0.330098 0.0128417)
(-0.00114909 0.320755 0.0164721)
(-0.00196397 0.326114 0.0253255)
(-0.00766035 0.322754 0.0165105)
(-0.0045772 0.324945 0.0170242)
(0.00880081 0.321769 0.0107321)
(-0.0111758 0.317219 -0.00636723)
(-0.002625 0.337502 0.0283459)
(0.00405055 0.324994 0.0086318)
(-0.0156679 0.303278 0.0185749)
(-0.0203916 0.337456 0.0465699)
(-0.00753003 0.323861 0.0275061)
(-0.0165363 0.317251 0.0175178)
(0.000135998 0.308892 0.0254738)
(-0.00191803 0.320049 0.0261874)
(0.000482039 0.309845 0.0318333)
(0.00748481 0.325807 0.0367672)
(-0.00585791 0.325978 0.0385701)
(0.000721426 0.3182 0.0332413)
(-0.00269803 0.323032 0.0304057)
(-0.00280728 0.32017 0.0263951)
(-0.00545785 0.313121 0.0290725)
(-0.0200034 0.307059 0.067182)
(0.00509119 0.288594 0.057968)
(-0.000886263 0.285208 0.018924)
(0.0315336 0.297877 0.060191)
(-0.0141043 0.316332 0.0596773)
(0.0222762 0.303162 0.0695409)
(-0.05635 0.351868 0.113384)
(-0.00193012 0.305881 0.0876596)
(0.00502809 0.31555 0.0840976)
(0.0209376 0.308166 0.0556752)
(-0.00902054 0.299765 0.0743849)
(0.000951025 0.326841 0.0892259)
(0.00873063 0.327326 0.0804543)
(0.0176688 0.321935 0.040884)
(0.00979107 0.294129 0.0806884)
(0.000795625 0.265423 0.0601584)
(-0.00183801 0.295724 0.0625907)
(0.0247709 0.270438 0.0913066)
(-0.00414886 0.276235 0.0723227)
(0.00132569 0.307478 0.0843134)
(0.0399261 0.316406 0.112258)
(0.000778356 0.21407 0.0274869)
(0.00646523 0.220855 0.0280746)
(0.00403157 0.20981 0.0240792)
(-0.00863111 0.222799 0.0302545)
(-0.00517109 0.229289 0.0327348)
(-0.00909608 0.222511 0.0519365)
(0.00211466 0.193458 0.0572687)
(-0.00106737 0.197552 0.02936)
(0.0183482 0.173005 0.0448175)
(-0.0150592 0.216304 0.0314177)
(0.0158748 0.193404 0.0572294)
(-0.0326665 0.261541 0.0782014)
(0.00422421 0.162122 0.0308736)
(0.0122518 0.187205 0.00839815)
(0.00497564 0.164983 0.0237593)
(-0.0174834 0.153012 0.014776)
(-0.0245709 0.155773 -0.00924899)
(0.0076713 0.186662 -0.0015691)
(-0.00573405 0.1689 0.0259048)
(0.000370247 0.0557816 -0.004351)
(0.0257295 0.0855804 -0.00471355)
(-0.00232826 0.031464 0.0296951)
(-0.0196334 0.0471258 -0.0102004)
(-0.00950433 0.0732383 -0.0455664)
(0.0238181 0.0942771 -0.0330886)
(0.000222906 0.0701317 -0.0231116)
(0.063124 0.023701 -0.0895956)
(-0.0133353 0.168438 -0.104933)
(0.0444452 0.0987588 -0.055916)
(0.00795354 0.123907 -0.0710339)
(-0.0242736 0.178281 -0.105162)
(0.015203 0.135765 -0.11891)
(0.0629592 0.038071 -0.0742508)
(-0.0032576 0.194587 -0.0589142)
(0.00758889 0.203912 -0.050283)
(-0.0055247 0.201109 -0.0232339)
(-0.0103653 0.209148 0.00783756)
(0.0209105 0.197382 -0.0286554)
(-0.0157142 0.234798 0.00376422)
(0.0124138 0.211808 -0.0292963)
(0.011189 0.213963 -0.0358992)
(-0.0168586 0.224119 0.00226683)
(0.0185783 0.264908 0.102753)
(-0.0066694 0.262859 0.105502)
(-0.000557282 0.236319 0.106789)
(-0.0180792 0.270321 0.0496749)
(0.021159 0.242348 0.036504)
(-0.0212546 0.237747 0.0301032)
(0.00396865 0.211205 0.0309592)
(0.000914264 0.254934 -0.104852)
(0.00325026 0.264111 -0.091813)
(0.000701248 0.261943 -0.0885439)
(-0.0062547 0.258168 -0.0914425)
(0.0047398 0.261398 -0.0959222)
(0.0152699 0.259279 -0.0899018)
(-0.00347379 0.239046 -0.0831753)
(0.00606522 0.247308 -0.0808798)
(-0.0173287 0.252139 -0.0747402)
(-6.85313e-05 0.22633 -0.089957)
(-0.000998714 0.257 -0.0614578)
(-0.0228519 0.274016 -0.0545913)
(0.00315918 0.239161 -0.0745116)
(-0.0106088 0.247274 -0.0604473)
(0.00162529 0.21883 -0.0669845)
(-0.00745555 0.225733 -0.0499975)
(0.000782992 0.230728 -0.047776)
(0.00547881 0.237676 -0.0686305)
(0.00895461 0.230141 -0.0794623)
(0.00135053 0.215526 -0.0635895)
(0.000114317 0.236459 -0.059997)
(0.0105365 0.185764 -0.0288588)
(-0.00975276 0.18281 -0.0288476)
(-0.00147035 0.158671 -0.0447447)
(-0.00112547 0.174797 -0.00639567)
(-0.0206335 0.184788 -0.00778667)
(-0.00509961 0.157144 -0.00511844)
(-0.00800981 0.162005 -0.0218535)
(-0.0219916 0.135799 -0.0173856)
(-0.0215176 0.127878 -0.00410045)
(-0.00235049 0.171431 -0.050511)
(0.0321895 0.179889 0.0221853)
(0.00679542 0.182412 0.0116239)
(0.0376012 0.108031 0.0464863)
(0.0178914 0.120173 0.0302126)
(0.000439719 0.177381 0.0772509)
(-0.0356587 0.18635 0.0836582)
(-0.00312639 0.219505 -0.00126913)
(0.00195836 0.217785 0.0136549)
(0.00329521 0.241361 0.0182005)
(0.0148732 0.254951 0.0336362)
(-0.00781359 0.219984 0.011414)
(0.0266597 0.239716 -0.04531)
(0.00123609 0.189557 -0.0381958)
(-0.0113962 0.218181 0.01778)
(-0.0195228 0.201683 -0.0281385)
(-0.0167277 0.145748 -0.0810333)
(-0.0100627 0.113106 -0.172299)
(-0.00121647 0.150101 -0.0408237)
(-0.00786677 0.262722 0.0212728)
(0.011932 0.229619 0.0446658)
(-0.0556676 0.225263 0.0523908)
(-0.058356 0.188435 -0.0312385)
(-0.019725 0.268682 0.0962985)
(-0.0267188 0.26397 0.0256451)
(0.00239506 0.225686 0.0438948)
(0.00262129 0.160181 -0.00618009)
(0.052255 0.341999 0.0461898)
(-0.0179852 0.328675 -0.0053202)
(-0.00272736 0.318471 0.0472159)
(-0.0349877 0.332967 -0.025784)
(-0.030142 0.309748 0.0890621)
(0.0498755 -0.226124 -0.0627028)
(-0.165916 0.0644225 0.0624281)
(0.194219 0.192962 -0.0497697)
(-0.0177356 0.582986 0.0997464)
(0.126512 0.365354 0.0704303)
(0.10364 0.191621 0.0218457)
(0.22116 0.959294 -0.140825)
(-0.0532546 1.8798 -0.0120042)
(-0.0560687 0.834984 -0.0427719)
(0.00398946 1.16195 -0.0580229)
(-0.040639 -0.71035 -0.535351)
(-0.029151 -0.556091 -0.0872682)
(0.0234296 -0.365894 -0.0159584)
(0.0122774 -0.426531 0.400393)
(0.109815 -0.235369 -0.0833444)
(-0.0572072 -0.372779 0.0377371)
(0.136983 -0.160956 0.334673)
(-0.353264 -0.640906 0.482676)
(0.361965 1.08442 -0.15122)
(0.064255 1.33348 0.192402)
(-0.665206 -0.153862 1.09998)
(0.180126 0.238005 0.52495)
(-0.320789 -0.156347 -0.226855)
(0.495737 -1.57388 -0.334661)
(-1.61322 -0.140541 -0.0424017)
(0.0669565 1.09822 0.061316)
(-0.186082 0.158193 -0.295637)
(-0.285747 0.409 -0.347746)
(0.175976 0.242906 -0.0856436)
(-0.0337576 -0.154928 -0.133651)
(-0.194442 -0.248575 0.114143)
(-0.00464335 -0.0416421 0.14025)
(0.4788 0.0321114 0.499153)
(-0.316826 -0.44732 -0.248593)
(0.0509583 0.012123 0.0628923)
(0.0969074 0.622642 0.164089)
(0.0502509 0.116175 0.134021)
(-0.119536 -0.239732 -0.0451791)
(-0.0743141 -0.014503 -0.00815005)
(-0.0824824 -0.100484 -0.0387854)
(0.0379845 -0.071278 0.0934573)
(0.0362849 -0.00057784 0.0723779)
(-0.00936069 0.0180661 -0.00992681)
(-0.0806098 -0.0345488 -0.15416)
(-0.0501975 -0.00692385 -0.102898)
(0.000245729 0.00460228 -0.00113904)
(-0.0022173 0.00632075 0.00310332)
(-0.00222769 0.00342626 0.0070254)
(-0.0040641 0.000180357 -0.01631)
(0.00178104 -0.000827277 -0.0164667)
(0.000200397 0.00619443 -0.0118648)
(0.00339848 -0.000669474 -0.00626002)
(0.00248103 -0.00146077 -0.00799506)
(0.0147588 -0.0135478 -0.0283192)
(0.00509437 -0.00286121 -0.0209647)
(0.00567083 -0.000760101 -0.00496556)
(0.00319004 -0.00208704 -0.00236973)
(-0.000462766 0.00851948 0.00245092)
(0.00904024 0.00832977 -0.00528835)
(0.00438172 -0.00043241 -0.0053767)
(-0.00797488 0.0222081 -0.00536306)
(0.0204985 0.0366975 0.00104429)
(0.0187727 -0.000203847 -0.00196581)
(0.0407 0.0218934 -0.0108427)
(0.00477343 -0.00122976 -0.00414659)
(0.00204269 -1.90834e-05 -0.00258647)
(0.0100024 0.00654249 -0.00466816)
(-0.00246737 0.000298106 0.00153936)
(-0.000739929 -0.00622827 -0.00821024)
(0.000157448 -0.000722494 0.00201382)
(-0.00158445 -0.00311092 0.00412841)
(-0.00493524 -0.0114639 0.000956059)
(-0.00744478 -0.00223113 0.00719953)
(0.000349171 0.00124105 0.00375076)
(0.0018719 0.00179614 0.00793321)
(-0.0053807 -0.0102972 0.00117755)
(-0.000411999 0.00214562 -0.00288203)
(-0.00340088 -0.00149741 -0.00853075)
(0.000722623 4.01182e-05 -0.00814343)
(-6.70458e-05 0.000827903 -0.0147517)
(0.00246279 0.00216599 -0.0135249)
(0.00410277 -0.00212882 -0.00716838)
(0.00620102 -0.00595818 -0.0202069)
(0.00350666 0.0060205 0.00144811)
(-0.000117622 0.00965281 -0.0122544)
(0.0012501 0.0105909 -0.00474012)
(0.000715378 0.00117818 0.003244)
(-0.00103725 8.5161e-05 0.000240427)
(-0.000473191 -0.00336204 0.00293515)
(-0.000986704 -0.00118773 0.00648549)
(-6.65929e-05 -0.0038259 0.00289675)
(0.00288933 -0.00106336 0.00590144)
(-0.00228874 -0.00115424 0.00564969)
(0.0153755 -0.0209383 -0.0270548)
(0.0528151 -0.0261252 -0.0533831)
(-0.00806492 -0.0197902 0.0132106)
(-0.00433671 0.00222965 -1.28985e-05)
(0.00542479 0.00355152 0.00780058)
(0.0323848 0.0102496 -0.00426167)
(0.0121388 -0.000463844 0.00508053)
(-0.0338553 0.0474007 0.0170779)
(-0.0309845 -0.0723522 -0.004956)
(-0.0324429 0.0330479 0.04544)
(0.0452424 -0.0565388 -0.0511296)
(0.0765779 -0.0323102 -0.00724208)
(0.023151 -0.00186884 0.0211512)
(-0.0558944 0.00281278 0.0493318)
(-0.00932241 -0.0369924 -0.00771086)
(-0.0691056 0.0807848 -0.0287578)
(-0.0379052 -0.0800253 0.0676418)
(0.0548286 -0.0669423 -0.0109498)
(0.0440864 -0.0349483 0.047397)
(-0.0295585 0.0858373 -0.0526463)
(-0.0165313 0.0351055 -0.0229711)
(0.207239 0.0505281 -0.197329)
(0.071476 -0.00450112 -0.201256)
(-0.0725711 0.0106268 -0.254426)
(0.201988 0.0664766 -0.409645)
(0.158951 -0.0267669 -0.326574)
(0.0796799 0.246073 -0.471429)
(0.0275703 0.129844 -0.361281)
(-0.000344669 0.0141996 -0.573636)
(0.00350122 -0.0840877 -0.477895)
(-0.0057841 0.0118693 -0.518328)
(-0.0288455 -0.204779 -0.427782)
(0.0250708 -0.198023 -0.402842)
(0.000656002 -0.107774 -0.471693)
(-0.0168788 -0.15331 -0.478937)
(-0.00290959 0.137181 -0.691368)
(-0.00552914 0.211214 -0.673033)
(0.00706637 0.14279 -0.59154)
(-0.0227804 0.239055 -0.788975)
(-0.00188094 0.121036 -0.81612)
(0.00240438 0.147189 -0.75578)
(-0.0238704 0.271944 -0.760424)
(0.0387448 0.396239 -0.750208)
(-0.0102753 0.385206 -0.757949)
(0.0269183 0.426431 -0.72045)
(0.0429599 0.245167 -0.792157)
(-0.026831 0.339289 -0.762411)
(0.0917674 0.211221 -0.829801)
(0.0148259 0.303355 -0.781743)
(0.0377182 0.349768 -0.753012)
(0.0429417 0.328883 -0.79565)
(-0.0215933 0.499227 -0.378795)
(-0.0512914 0.453248 -0.45379)
(-0.00313867 0.490685 -0.407973)
(0.00829902 0.438963 -0.638263)
(0.00220781 0.482345 -0.502178)
(-0.0258416 0.435625 -0.601105)
(-0.0289169 0.4876 -0.493128)
(-0.067717 0.409671 -0.567431)
(-0.0440585 0.48886 -0.447247)
(0.0479016 -0.610828 -0.256846)
(-0.00960672 0.116459 -0.485393)
(-0.0403388 0.386434 -0.470946)
(0.0350801 -0.778231 -0.208593)
(0.211594 0.222533 -0.0816599)
(0.0326769 0.242994 -0.167697)
(0.0557989 0.51427 -0.236998)
(-0.00263816 0.243392 0.000186745)
(-0.00271353 0.229242 -0.0020256)
(0.00130705 0.249618 -0.00065782)
(0.0113207 0.23639 0.00215917)
(0.00684481 0.2507 0.0119752)
(-0.00338907 0.263003 0.00137282)
(0.00697761 0.242925 0.00315194)
(0.0011633 0.233111 -0.00919954)
(0.00747554 0.242142 -0.0260131)
(0.00180191 0.237394 0.00225333)
(0.00600246 0.229933 -0.00263991)
(0.0216626 0.245708 -0.00542903)
(-0.00151722 0.222 -0.00442627)
(-0.000834989 0.225433 0.00619041)
(-0.00114519 0.250582 -0.00683902)
(-0.00824276 0.237192 -0.00514402)
(-0.00160431 0.216725 -0.0078491)
(0.0130099 0.229302 0.00238004)
(0.00407928 0.228217 -0.00473469)
(0.000901932 0.23751 0.0165092)
(0.0011313 0.283463 0.0208598)
(-0.0053797 0.279513 0.0217228)
(-0.00244519 0.301358 0.0133307)
(0.00751157 0.264486 0.0214603)
(-0.0021451 0.280021 0.0192435)
(0.00591656 0.297314 0.0126461)
(-0.00580734 0.287368 0.00913702)
(0.000355009 0.292115 0.00673976)
(0.0103289 0.278457 0.0186597)
(-0.000912852 0.312239 0.0172184)
(0.00666451 0.307517 0.0217707)
(0.0132936 0.301937 0.0302344)
(-0.00520095 0.302621 0.0182296)
(-0.00655868 0.268251 -0.00104936)
(-0.00125494 0.268347 -9.47043e-05)
(-0.00155343 0.263156 -0.0185246)
(0.00488724 0.281428 0.0160381)
(-0.0253321 0.279176 0.000492404)
(-0.00524337 0.278033 -0.00105048)
(0.0174233 0.283977 0.0213748)
(0.00222478 0.148718 0.00422759)
(-0.0098703 0.254944 0.00458975)
(-0.0198689 0.254503 0.0194093)
(0.00397327 0.274294 -0.0178743)
(-0.000723506 0.224237 -0.000640008)
(-0.00194972 0.292756 -0.00545648)
(-0.014828 0.274372 0.0173409)
(-0.00153295 0.266913 -0.0164903)
(0.0184678 0.28146 0.00418148)
(-0.00277062 0.283532 0.00664269)
(-0.00301242 0.271026 0.0015833)
(-0.0125496 0.270201 0.0158259)
(0.00424097 0.27994 0.00827619)
(-0.0286259 0.285895 0.0332153)
(0.00565326 0.273279 0.00570543)
(-0.00516043 0.170156 -0.00177172)
(-0.00807518 0.294783 -0.0211336)
(0.0123281 0.233684 0.00746233)