/*--------------------------------*- C++ -*----------------------------------*\
| =========                 |                                                 |
| \\      /  F ield         | OpenFOAM: The Open Source CFD Toolbox           |
|  \\    /   O peration     | Version:  v2012                                 |
|   \\  /    A nd           | Website:  www.openfoam.com                      |
|    \\/     M anipulation  |                                                 |
\*---------------------------------------------------------------------------*/
FoamFile
{
    version     2.0;
    format      ascii;
    class       volScalarField;
    location    "0.05";
    object      alpha.water;
}
// * * * * * * * * * * * * * * * * * * * * * * * * * * * * * * * * * * * * * //

dimensions      [0 0 0 0 0 0 0];


internalField   nonuniform List<scalar> 
24700
(
0.999984
0.999994
0.999946
0.999904
0.999996
0.999946
0.999996
0.999997
0.999904
0.999997
0.999704
0.999998
0.999996
0.999714
0.999704
0.999996
0.999983
0.99971
0.999873
0.998913
0.999876
0.999834
0.998908
0.998916
0.999697
0.999711
0.998908
0.999379
0.999818
1.6858e-40
9.23355e-39
3.55726e-39
8.60781e-41
2.2944e-39
2.46734e-39
6.3624e-38
3.68556e-15
2.31661e-16
1.3802e-16
1.00852e-17
2.85019e-17
3.44144e-17
3.6874e-16
1.11161e-36
4.32637e-38
3.17359e-37
7.04455e-35
3.40982e-36
2.66145e-37
3.16584e-36
9.52552e-05
3.81773e-05
7.05791e-05
3.92599e-05
3.59791e-05
8.33689e-05
7.73229e-05
0.00228957
0.00233688
0.00167241
0.00800239
0.010119
0.00230287
0.00511166
1.14888e-20
1.32206e-21
6.07287e-22
2.20962e-20
4.31682e-19
2.48145e-20
2.80355e-21
9.03121e-05
7.74709e-06
3.53736e-05
4.93696e-06
2.72977e-06
1.14554e-05
3.05422e-05
0.518855
0.101773
0.972278
0.588444
0.0679582
0.830554
0.92621
1.67388e-06
7.52056e-06
2.79381e-06
1.67524e-06
2.42501e-06
6.6391e-06
2.17246e-06
4.73814e-21
5.87248e-23
1.04919e-22
3.88824e-24
2.03694e-23
6.9651e-24
3.34568e-22
4.06871e-50
1.42262e-49
6.07113e-48
3.16982e-52
4.46453e-52
2.51245e-51
3.25636e-50
6.00219e-82
3.60966e-82
5.7531e-80
1.25376e-79
1.70368e-77
1.782e-81
8.78258e-80
2.93049e-84
5.92443e-83
1.86782e-82
8.46449e-80
2.02281e-81
9.92689e-83
4.63415e-81
8.94326e-85
8.26541e-83
2.67309e-84
2.91304e-77
1.17774e-75
5.71387e-75
1.82064e-72
4.25666e-75
6.21069e-74
1.28583e-76
9.56694e-76
7.37722e-74
1.39957e-75
1.34149e-79
9.43034e-79
1.74229e-54
2.58839e-55
5.39152e-56
1.10595e-53
2.99445e-52
8.43505e-54
3.08228e-55
5.40904e-27
1.33503e-27
2.2155e-28
3.64651e-27
3.04463e-25
2.64902e-26
8.86322e-28
5.11591e-36
3.4977e-37
4.0975e-36
1.2454e-35
2.57528e-34
2.43841e-36
4.11759e-35
4.39339e-05
5.03866e-06
9.81642e-06
5.74922e-06
3.88167e-06
2.47681e-06
1.53764e-05
1.94534e-05
1.33932e-05
9.74229e-06
8.73978e-05
4.85615e-05
3.03507e-05
4.74902e-05
0.000129088
7.41558e-05
6.47632e-05
2.60958e-05
9.53372e-05
2.42521e-05
1.02122e-05
2.58815e-05
3.64889e-05
7.47091e-05
0.000120832
0.000317593
0.000117611
5.21375e-05
0.000862076
0.00101551
0.00105018
0.00104684
0.000661155
0.000714046
0.000463526
6.52663e-12
5.30693e-14
3.38035e-12
3.09322e-11
9.10975e-10
6.09186e-12
2.18679e-10
2.57285e-44
3.80946e-45
9.17781e-45
1.1449e-45
2.10405e-45
3.26277e-45
3.39443e-45
2.7674e-13
2.17627e-12
8.20098e-13
5.07626e-12
3.9069e-11
5.2256e-12
1.12602e-12
2.60495e-23
8.17127e-22
1.47897e-22
2.29544e-24
6.60344e-24
9.08755e-23
1.6814e-23
4.92788e-21
2.15455e-20
1.10023e-21
8.72485e-20
6.88959e-20
6.362e-21
1.8892e-20
5.40086e-06
2.99755e-07
7.68175e-07
1.24555e-06
1.54994e-06
8.39154e-07
6.07281e-06
0.000584062
0.000584062
0.00058302
0.000390981
3.38944e-05
0.000226284
0.000464619
9.04105e-10
1.0203e-08
4.40049e-08
2.48833e-10
5.96838e-11
9.19772e-11
3.45887e-10
0.000389179
8.18969e-05
0.000235283
0.000112133
7.92532e-05
0.000136569
1
0.999974
0.999813
0.999999
0.999975
0.999965
0.107022
0.0639326
0.0633475
0.0619363
0.0745561
0.0745974
0.074779
0.0402426
0.0085516
0.0548468
0.0410155
0.0745879
0.0287006
0.0745808
0.000574979
0.00023243
0.000424305
0.000281509
0.000161521
0.000237809
0.000320307
6.54411e-05
6.5048e-05
6.54411e-05
9.0427e-05
0.000145664
0.000121683
0.000141921
2.00285e-05
4.82217e-05
2.17765e-05
4.85992e-05
8.4729e-05
5.27981e-05
3.34502e-05
0.000251615
0.00024717
0.000378746
0.00043486
0.000487289
0.000487512
0.000655207
2.38397e-05
0.000136946
4.82611e-05
0.000153418
9.66369e-05
5.24101e-05
3.24114e-05
2.53837e-48
4.4829e-47
3.07989e-48
6.11361e-50
3.62465e-48
2.63723e-47
9.58349e-50
1.7282e-35
3.4267e-35
5.82849e-34
3.86072e-32
1.11514e-33
1.09125e-33
8.03476e-35
1.59898e-24
7.91833e-26
2.99274e-26
4.14067e-26
8.12384e-25
1.30483e-25
2.5825e-24
2.00064e-42
2.58451e-43
1.91305e-41
3.53643e-43
2.09223e-39
9.01851e-45
7.3692e-41
7.93863e-67
6.77105e-68
3.51585e-69
2.65486e-64
3.85562e-68
4.85121e-66
7.18023e-70
1.15749e-71
2.32459e-69
2.22546e-70
9.1875e-67
4.29643e-77
1.92674e-68
6.69849e-79
5.91835e-72
1.21208e-73
5.96716e-74
6.2567e-69
2.89741e-67
1.66258e-73
8.85616e-72
4.59385e-70
1.80711e-68
7.2494e-68
3.98172e-65
2.1452e-69
1.31749e-66
3.96038e-71
7.96623e-69
9.5809e-72
1.69721e-70
8.87458e-70
2.12182e-71
1.71006e-70
1.08683e-68
4.11213e-59
2.04697e-59
1.43891e-57
1.38635e-56
3.87912e-58
1.20193e-59
4.9968e-58
4.50702e-54
1.57297e-54
4.9366e-56
4.93139e-51
2.21385e-52
6.67766e-54
2.49244e-55
7.24655e-31
1.72337e-34
5.64062e-29
3.32794e-31
1.32642e-32
1.54294e-35
6.33806e-30
1.55105e-21
8.70478e-22
6.93245e-20
3.02248e-22
5.79835e-23
1.03796e-22
4.94522e-21
1.91934e-17
8.03582e-19
8.86908e-19
7.19698e-16
5.49694e-17
4.37666e-18
2.033e-17
2.52226e-07
7.43896e-08
1.28702e-07
2.57849e-06
3.94382e-07
1.27206e-07
5.80868e-07
1.83835e-09
2.5223e-08
5.58657e-08
8.13434e-08
4.13924e-07
9.84764e-08
2.54575e-09
0.000363589
0.000252758
0.000370376
0.000255935
0.000601152
0.000596947
0.000598435
1.23585e-11
9.59379e-11
8.13088e-14
8.76281e-18
1.93752e-18
1.63861e-13
9.97158e-15
5.49303e-09
1.97506e-10
8.57617e-10
5.32052e-12
9.25739e-12
8.92032e-11
1.9199e-11
1.28666e-10
5.01549e-10
3.72106e-12
4.12004e-13
1.22041e-12
1.30639e-08
3.0154e-09
6.79362e-09
1.57804e-07
3.40572e-08
1.20509e-08
4.40556e-08
2.62426e-08
1.20185e-07
9.46128e-09
1.1366e-09
4.57189e-09
0.00129625
0.00252569
0.000758008
0.00137789
0.000749767
0.00461871
0.00221986
0.000250396
0.000300731
7.32634e-05
0.00012008
0.000234633
0.000114003
5.53893e-05
7.00429e-05
0.000217154
0.000399891
0.00012627
6.17393e-05
0.000115085
0.000218807
1.6277e-06
6.56798e-06
2.14057e-05
7.11151e-07
3.30441e-07
4.37657e-07
1.4382e-06
4.18618e-41
2.91244e-40
3.96044e-39
1.8814e-42
7.91143e-43
8.30265e-42
8.50386e-41
3.65977e-38
9.08966e-39
4.19242e-40
1.4975e-41
3.00599e-41
3.88309e-40
1.14455e-39
5.2488e-38
4.84007e-39
8.4962e-40
5.76655e-38
4.85334e-36
1.75145e-37
2.37131e-39
1.55253e-77
2.60102e-78
4.04817e-76
1.39317e-74
1.23724e-73
1.22207e-76
1.69038e-75
1.08266e-88
2.23637e-90
1.07924e-87
1.74722e-99
8.11478e-85
1.95119e-86
3.79518e-101
2.14656e-67
1.2724e-76
6.29787e-69
1.35051e-74
2.43941e-76
4.04268e-73
1.10334e-74
5.60107e-22
1.91199e-23
6.87895e-22
2.62263e-23
3.37166e-20
2.39834e-24
5.81846e-21
4.71809e-19
1.87169e-19
1.01184e-18
1.02136e-17
1.71207e-17
1.38333e-18
3.29391e-18
2.2583e-16
3.0327e-17
4.81959e-17
4.76663e-15
2.25153e-15
2.65551e-16
4.76886e-16
0.000322584
0.000141348
0.000233282
0.000142517
0.000141348
0.000177678
0.000309601
0.000299777
0.000198736
5.11119e-05
3.30813e-05
4.62843e-05
9.73639e-05
0.000148848
7.05223e-07
3.13597e-06
7.07252e-07
1.35787e-06
6.04947e-06
1.42861e-05
3.66596e-06
6.54612e-17
5.27866e-17
1.90726e-18
9.44779e-11
1.11582e-11
9.42501e-15
1.57894e-13
5.89548e-11
3.41682e-10
1.60134e-10
9.6858e-10
4.66579e-09
1.1006e-09
2.07611e-10
0.000134614
5.1632e-05
8.61989e-05
0.000562817
0.000653213
4.09609e-05
0.000168215
0.0561352
0.191529
0.161814
0.0111091
0.0355815
0.0809183
0.0219705
0.000261812
0.000819828
0.000243787
0.000396189
0.000836857
0.00147399
0.000241919
1.47398e-12
1.64576e-13
2.00615e-14
2.09907e-15
1.55615e-14
1.62557e-14
2.14427e-13
6.79421e-27
5.83192e-29
7.20849e-36
3.71954e-29
5.59128e-31
6.61564e-28
6.42233e-37
6.49222e-37
4.0078e-51
3.71374e-35
2.9658e-33
1.83822e-34
4.90004e-54
3.16911e-37
4.72075e-56
2.94656e-54
2.01218e-56
5.64128e-57
3.20808e-55
3.33237e-55
6.13672e-57
4.10899e-53
8.85194e-54
7.5537e-52
7.70733e-52
1.09199e-49
1.907e-53
2.55339e-51
3.46459e-105
9.9992e-104
2.6992e-101
2.79366e-100
5.43237e-98
3.04028e-106
1.38249e-103
7.33313e-98
6.9771e-94
4.06739e-96
8.7158e-102
1.6258e-104
7.24213e-98
1.03499e-98
4.44471e-99
8.27923e-96
1.23738e-94
2.78088e-96
1.60253e-97
2.85886e-96
1.04097e-97
4.66634e-93
9.20816e-95
2.56268e-95
2.72248e-84
2.30639e-82
1.50852e-93
5.50822e-84
1.17607e-85
9.88689e-15
4.65976e-15
1.90024e-13
1.50345e-14
6.68637e-16
9.13135e-16
7.55057e-14
2.01372e-05
1.48259e-05
2.75455e-05
9.20107e-05
0.00019833
3.99622e-05
0.000102342
2.04406e-10
7.98849e-11
4.54141e-11
9.67302e-10
2.45049e-09
5.11692e-10
2.17719e-10
1.53446e-12
6.15373e-13
1.11359e-11
2.7795e-13
1.69481e-12
1.22123e-11
1.37926e-12
8.69362e-20
8.7818e-18
1.54787e-18
2.27483e-15
8.34743e-16
1.36566e-17
2.13336e-19
3.93653e-15
7.91519e-17
1.42427e-15
1.71242e-17
2.65446e-16
1.30627e-17
1.62815e-16
0.000614359
0.00028097
0.000161935
0.000614359
0.000614359
0.000613105
0.000305621
7.09474e-05
3.60521e-05
3.59102e-05
9.17579e-05
4.91007e-05
5.63652e-05
7.26295e-05
1.89176e-18
1.23778e-15
1.03297e-16
4.09797e-21
2.94484e-20
1.93929e-20
1.38794e-21
4.52284e-21
2.2357e-19
6.27174e-22
1.06368e-20
2.00567e-19
2.3347e-09
5.69924e-10
7.26355e-11
1.03805e-10
2.2372e-11
3.64475e-11
1.54367e-10
5.56317e-06
4.2702e-06
5.47607e-05
2.56162e-05
3.26065e-05
2.69446e-06
8.10853e-06
0.000109832
5.26142e-05
6.49583e-05
0.000131493
0.000265022
0.000113273
0.000270073
0.268095
0.0201713
0.267893
0.0973979
0.211937
0.156323
0.315235
1.15892e-12
4.68266e-12
1.90344e-13
2.40324e-18
9.62636e-15
7.6493e-19
1.29445e-15
2.0687e-24
1.94636e-23
4.53063e-23
1.1259e-21
1.27105e-24
1.59927e-22
7.45554e-26
1.52946e-17
7.85394e-18
3.75786e-18
1.8021e-16
3.34914e-16
6.89846e-17
2.79303e-17
2.53828e-16
2.50458e-17
3.42252e-16
3.69701e-16
1.48862e-14
1.33639e-16
4.65339e-15
1.15552e-66
7.10985e-65
5.4289e-64
4.16886e-68
6.20362e-69
6.49777e-67
6.70239e-66
5.80848e-118
1.99159e-115
8.73045e-112
1.70295e-115
4.1508e-113
2.36523e-113
2.42994e-114
4.2681e-108
2.87785e-104
7.19668e-107
1.40923e-113
5.04028e-111
2.41706e-78
2.18499e-80
8.95191e-80
5.78066e-76
1.55213e-76
1.3597e-78
8.65496e-78
3.04771e-54
8.94827e-55
5.25611e-56
1.2909e-53
5.22057e-52
2.9575e-55
2.68699e-56
2.73816e-36
2.36222e-41
3.96765e-38
1.24365e-35
2.80197e-34
1.2549e-41
3.08044e-39
1.1286e-16
8.96556e-17
1.66156e-15
4.38534e-16
5.19441e-15
6.96966e-15
1.79517e-13
7.46742e-13
3.65516e-14
2.9978e-13
8.26948e-14
5.32997e-14
1.99657e-13
1.0681e-12
4.72528e-12
1.71384e-12
0.0507908
0.0873975
0.0516027
0.112422
0.11751
0.190722
0.0899781
0.000341443
0.000154079
9.49154e-05
9.52705e-05
0.000147962
8.48783e-05
0.000276918
7.7897e-11
1.2118e-09
8.52401e-11
9.51533e-12
2.81292e-11
1.91384e-10
2.48904e-11
2.23915e-25
4.45425e-24
8.81346e-25
2.1426e-22
3.0689e-23
1.87474e-23
2.55383e-24
9.51436e-14
2.06434e-12
2.35427e-12
4.44262e-11
7.46635e-12
2.08238e-11
4.81767e-13
1.33484e-05
3.07891e-05
1.33997e-05
1.95172e-05
3.2981e-05
6.23892e-05
9.76521e-06
0.000673481
0.000673481
0.000673481
0.000614752
0.000205664
0.000673232
0.000519204
8.67708e-07
5.3674e-07
5.9104e-07
2.21507e-06
1.24728e-06
1.64425e-06
1.71268e-06
1.69521e-15
9.25469e-16
9.04511e-16
9.85352e-16
3.06176e-15
1.08387e-15
2.52089e-15
0.219124
0.0956817
0.223896
0.288595
0.0066949
0.161454
0.314998
0.999997
0.999987
0.999943
0.999809
0.996906
0.999971
0.999368
0.999973
0.999976
0.999718
0.999958
0.998173
0.99894
0.989019
0.999999
0.999999
0.999896
4.07558e-07
4.06591e-07
1.27024e-06
1.23477e-05
4.40143e-06
4.75764e-06
2.17243e-05
1.21762e-25
7.92632e-27
9.35397e-29
7.98161e-29
4.15263e-28
3.67309e-26
9.36449e-25
7.42881e-24
2.88859e-24
1.60444e-24
1.33011e-23
7.20602e-23
2.48688e-23
4.83322e-24
1.71226e-19
3.80631e-20
4.3517e-20
6.11849e-19
1.57177e-19
1.35936e-19
6.06976e-19
4.70691e-80
6.09594e-78
1.09023e-77
1.7658e-81
1.01698e-81
8.94436e-80
1.76353e-79
6.1832e-118
1.1905e-117
8.34358e-114
8.96539e-115
1.17364e-115
5.43718e-113
2.55266e-110
1.25614e-118
1.6896e-115
2.78634e-112
2.51268e-46
8.55385e-45
6.24308e-47
5.07404e-49
7.02141e-49
8.42351e-50
1.35437e-48
1.15944e-07
4.24297e-07
1.76797e-07
1.16738e-07
1.90273e-07
1.70043e-07
4.16586e-07
5.94466e-07
2.15951e-07
1.11912e-07
8.58515e-08
2.32195e-07
3.83126e-07
4.78492e-07
3.19279e-07
1.20806e-06
9.4609e-07
8.52971e-08
4.37055e-27
5.29248e-11
4.37829e-10
4.8103e-07
5.68479e-07
1.41821e-07
1.9449e-07
2.88042e-09
1.55094e-07
3.79746e-07
1.06038e-07
2.13071e-07
6.18313e-10
7.11296e-13
4.30109e-11
2.86589e-12
2.76932e-11
3.15874e-13
1.57366e-10
1.87045e-12
1.80348e-11
1.94926e-13
1.68043e-15
1.66183e-15
9.05056e-15
2.179e-15
0.000134689
0.000258427
7.269e-05
7.27449e-05
4.14721e-05
0.000188879
3.3837e-05
1.48441e-12
5.47281e-13
1.44282e-13
2.00654e-13
4.86075e-13
5.50778e-13
2.12692e-12
9.88541e-06
8.78817e-06
8.58758e-06
1.54187e-05
3.78494e-05
8.69229e-06
2.02851e-05
0.000155385
0.000137525
7.15389e-05
7.15423e-05
7.16018e-05
0.000178841
6.99889e-05
0.000172979
0.000189583
0.000170928
0.0002488
0.000262831
0.000458527
0.000153415
0.000312595
0.000939891
0.000288729
0.000410379
0.000286957
0.00141613
0.000383361
0.999942
0.999351
0.999976
0.999783
0.999856
0.999694
0.998611
0.998282
0.990814
0.99934
0.99815
0.999673
0.99998
0.999747
0.989172
1.77295e-11
6.18954e-11
1.40075e-11
1.49476e-11
8.89575e-12
3.5198e-11
1.60023e-11
3.33391e-06
2.14463e-05
1.03054e-05
3.15616e-06
3.83308e-06
1.43227e-05
6.1752e-06
0.000374802
0.000378601
0.000706025
0.000720374
0.00103961
0.000650319
0.00103572
6.68425e-11
3.14261e-12
1.65952e-12
2.19364e-12
4.99556e-11
5.66238e-12
1.34078e-10
3.56617e-18
2.38835e-18
7.84275e-17
1.01728e-15
5.12916e-15
3.71978e-17
1.44258e-16
1.21517e-42
1.76109e-42
4.73296e-40
1.16707e-39
1.99404e-37
7.52716e-42
3.72363e-40
4.30797e-71
6.59827e-74
5.22206e-74
9.91891e-77
5.9047e-76
3.41991e-76
1.91596e-73
1.23207e-105
1.06108e-107
3.12872e-107
9.322e-107
1.05027e-104
1.34968e-108
1.1292e-106
2.1958e-113
1.04358e-110
6.96486e-113
7.70426e-114
9.48752e-112
6.5708e-112
5.21989e-114
6.29935e-83
1.83583e-83
3.46544e-80
2.85628e-77
9.4616e-80
1.34555e-80
1.97647e-82
1.02607e-81
2.46161e-83
2.57195e-83
1.54936e-79
1.73361e-79
2.36659e-81
2.37584e-81
3.37325e-58
2.00142e-56
1.66655e-57
2.55319e-55
3.91414e-57
9.91233e-57
2.09377e-58
2.57506e-08
5.17334e-08
2.75804e-07
1.35713e-08
7.48619e-09
2.04843e-08
8.25298e-08
0.00149053
0.00613746
0.00443426
0.00135263
0.00176303
0.00382407
0.00228367
1.39552e-07
8.71294e-08
9.81091e-08
1.71224e-07
2.56442e-07
3.10542e-07
5.16738e-07
5.72855e-08
7.89031e-08
1.17663e-07
4.89286e-12
2.04978e-13
1.27095e-12
3.09904e-13
9.54644e-14
5.69231e-13
2.5933e-12
0.000137509
0.000120994
0.000230541
0.000704888
0.000284583
0.000289118
0.000369321
8.95401e-14
3.91352e-14
2.7941e-14
1.31494e-13
3.44527e-13
1.19433e-13
4.58806e-13
4.65601e-09
1.96955e-08
6.91931e-10
1.19069e-10
5.86447e-11
7.10209e-10
2.4075e-10
0.000106236
0.000222016
0.000327097
0.000106255
0.000107951
0.000144213
0.000317202
6.26814e-12
1.80763e-12
4.4776e-11
7.59839e-12
1.52252e-12
1.55924e-12
2.26026e-11
1.89068e-08
1.72841e-09
1.32853e-07
6.49637e-09
1.60425e-08
1.07955e-09
6.31662e-08
0.000186348
0.000179723
0.000107278
0.000540754
0.000257409
0.000474617
0.00019499
2.54876e-71
5.349e-69
3.0128e-72
1.90902e-66
1.62453e-68
1.21686e-69
7.88227e-71
1.6646e-43
2.9472e-41
1.41048e-43
7.69343e-45
9.21216e-46
5.43998e-43
2.17314e-45
0.000323324
0.000829467
0.000153689
0.000212972
0.000143695
0.00062948
0.000238783
0.000104598
5.73938e-05
6.62767e-05
9.69542e-05
0.000312503
5.59357e-05
0.000240413
4.69634e-17
3.95528e-16
7.05802e-17
3.98996e-17
1.97303e-16
3.9285e-18
1.72303e-17
8.88898e-20
1.09576e-19
1.85492e-20
1.27755e-18
6.58899e-18
3.19646e-19
4.19297e-20
2.62502e-08
1.44002e-09
1.15263e-10
1.22426e-09
1.07901e-10
4.58019e-11
7.34672e-09
1.67099e-17
2.6503e-17
6.46697e-17
9.0042e-16
1.4832e-16
6.10777e-17
2.37328e-16
6.73812e-07
6.21965e-07
1.52008e-06
1.3389e-06
2.71916e-06
1.86556e-06
2.35332e-06
8.88419e-05
4.13007e-05
8.25117e-05
4.02268e-05
4.29027e-05
7.19608e-05
0.000117525
3.86221e-07
1.1505e-07
1.89648e-07
3.45456e-08
2.2735e-06
8.98264e-08
1.93179e-06
3.12806e-06
2.1807e-06
1.80567e-05
1.90787e-06
1.15968e-06
8.48738e-07
5.69335e-06
0.000288954
0.00011617
3.57832e-05
3.80489e-05
2.19877e-05
3.96039e-05
8.89702e-05
5.83438e-05
0.000118194
5.81986e-05
0.000113831
6.93773e-05
0.000128099
0.000113023
0.000168021
0.000167941
0.000168024
0.000164895
0.000159252
0.000217626
0.000167386
1.72227e-08
4.58457e-07
1.73502e-06
5.4364e-08
1.71848e-08
5.86049e-07
2.77091e-06
0.988309
0.997379
0.960389
0.999901
0.999939
0.99998
0.999939
0.992174
0.998123
0.999995
0.999998
0.999995
0.999822
0.999931
0.997903
0.992575
0.999723
0.999672
4.37772e-05
4.26053e-05
0.000149109
0.000261462
0.000100628
5.03642e-05
5.58275e-05
4.58818e-06
9.6093e-07
1.97113e-06
0.000101262
4.94841e-06
4.02767e-07
1.18671e-05
1.29016e-05
1.29016e-05
1.29016e-05
1.29055e-05
1.29016e-05
1.4831e-05
1.71264e-05
0.000114001
0.000259417
0.000414087
0.000115918
0.000211055
0.00036895
0.000414788
1.07206e-09
8.88298e-10
1.37239e-08
8.56921e-08
3.93677e-07
2.88513e-10
1.20807e-09
1.11427e-30
6.34542e-29
1.55733e-28
3.74923e-27
4.63847e-38
1.67348e-36
5.5466e-26
1.41353e-33
3.44023e-29
1.26059e-27
3.65401e-71
2.94483e-70
8.10231e-73
7.09528e-75
1.43929e-74
2.53381e-72
5.07636e-73
4.1736e-08
6.49895e-08
4.4943e-07
1.95997e-08
1.12251e-08
1.97284e-08
9.55079e-08
6.78445e-09
3.26987e-08
3.27057e-09
2.00556e-08
3.91033e-09
2.63927e-08
5.34952e-09
8.27218e-09
1.79391e-08
9.20429e-08
2.9529e-08
7.25698e-09
9.23534e-09
3.88839e-08
1.37977e-10
4.20226e-09
3.4099e-10
2.23276e-10
3.54534e-11
1.09499e-09
3.32738e-11
6.45523e-14
2.85019e-10
1.97436e-11
1.26741e-11
1.28717e-12
7.28883e-11
4.91771e-14
6.71443e-17
4.28107e-16
8.98426e-16
2.57346e-20
1.24887e-19
1.69509e-20
2.63912e-19
2.18175e-20
3.82176e-21
8.46118e-25
1.50832e-24
8.43526e-26
3.94162e-26
3.06056e-26
3.29937e-25
1.99967e-25
1.31619e-24
1.25695e-23
3.96421e-25
1.88959e-27
1.12851e-26
9.53554e-28
2.4872e-29
1.62246e-29
2.46615e-31
9.51039e-30
1.43473e-28
4.15702e-30
5.28567e-31
1.23561e-13
2.26552e-13
1.7971e-12
4.50145e-11
3.66684e-12
3.08287e-12
4.71794e-13
4.6539e-07
9.33276e-08
3.46724e-08
8.24484e-09
1.67696e-08
2.70716e-08
1.03125e-07
4.59326e-19
1.15914e-15
1.22801e-17
7.93852e-20
6.01699e-17
5.43337e-19
1.78692e-19
1.46504e-20
6.35253e-18
3.55217e-18
1.0071e-17
1.23431e-17
1.99667e-08
6.69013e-09
6.711e-09
1.08215e-08
2.66087e-08
7.52841e-09
3.79206e-08
4.26182e-05
6.58994e-05
2.39291e-05
3.62435e-05
3.53368e-05
2.79885e-05
5.04531e-05
0.0003257
0.000161746
6.22174e-05
6.08306e-05
0.000127029
8.35912e-05
0.000178295
2.29213e-21
9.75652e-22
1.0379e-22
7.5571e-23
5.69499e-20
8.08901e-21
4.72341e-24
0.999991
0.999994
1
0.999511
0.999997
0.999866
1.80704e-06
3.34476e-07
4.02189e-07
2.32128e-06
6.80649e-07
1.51112e-06
1.06701e-06
9.72872e-05
0.000184425
9.76298e-05
0.000258747
0.00011392
0.000369952
0.000144179
1.52082e-31
3.53571e-24
1.03772e-26
3.97353e-21
1.15352e-22
7.9381e-20
1.58409e-18
1.97407e-30
3.36697e-20
2.07851e-22
9.10121e-07
1.54623e-06
7.79446e-06
5.63797e-07
2.9463e-07
6.88058e-07
2.78592e-06
1.69381e-40
8.94936e-42
1.74669e-42
3.13458e-44
7.74892e-44
2.61788e-43
3.578e-42
3.36787e-21
1.45892e-22
8.45652e-23
3.99323e-24
8.87072e-24
1.84692e-23
1.65072e-22
2.7214e-13
5.05643e-12
6.36604e-13
2.93151e-14
5.80336e-14
5.95292e-13
1.31107e-13
4.74539e-15
4.0352e-15
3.51685e-14
1.50417e-13
2.50469e-14
1.18793e-14
8.10977e-14
4.51745e-11
1.25487e-10
2.7709e-11
1.03094e-10
5.7046e-10
3.29725e-10
7.08109e-11
1.87832e-15
5.00312e-15
4.24266e-14
3.63088e-16
2.53697e-15
2.25735e-15
2.06583e-14
9.79696e-12
3.73307e-12
1.24758e-12
1.101e-11
1.44259e-10
2.40217e-11
3.32032e-12
1.02106e-18
9.89298e-17
2.28516e-18
6.86938e-19
5.95815e-20
9.54609e-18
6.00994e-20
5.93104e-24
6.99839e-24
1.84381e-25
3.93429e-24
2.94278e-22
6.72202e-23
5.38723e-25
1.33752e-15
4.50955e-15
3.47518e-14
2.70995e-16
1.08077e-16
5.56523e-16
3.45858e-15
1.85737e-11
2.00641e-12
7.96087e-13
8.26745e-13
8.18985e-12
1.30161e-12
1.18044e-11
3.36295e-25
1.73443e-23
8.58011e-23
1.33427e-20
7.03819e-23
8.55799e-25
8.71278e-22
5.40175e-25
3.4455e-27
1.80165e-23
5.24751e-25
9.78718e-27
7.32371e-25
3.53026e-24
2.46716e-20
1.50367e-21
1.98033e-21
1.31228e-19
8.20256e-19
4.89308e-19
1.00549e-18
1.4662e-17
4.93376e-18
2.34073e-16
1.01508e-10
7.18623e-10
1.77185e-09
1.7366e-10
4.06555e-11
8.30435e-11
3.43467e-10
0.000232085
0.000255257
0.000255257
0.000202015
0.000174943
0.00034388
0.000182618
9.56944e-05
0.000102204
0.000214577
9.36122e-05
0.000102335
0.000137583
0.000236113
4.1329e-05
1.76426e-05
5.06599e-05
1.40009e-05
1.8791e-06
4.98171e-06
2.67878e-05
2.84595e-09
5.66838e-09
1.01779e-09
1.59751e-08
7.68528e-09
8.71765e-09
4.83096e-09
5.51115e-18
2.72488e-18
1.07515e-18
3.31311e-20
3.83365e-18
1.04231e-19
2.95538e-18
2.33773e-13
2.03901e-13
4.52735e-11
4.90236e-13
2.47049e-15
1.96196e-14
7.06011e-12
1.9362e-25
8.81177e-25
1.87544e-25
3.49993e-24
6.70167e-25
1.85152e-24
3.57137e-25
0.999912
0.999629
1
1
1
1
1
0.999999
1
1
0.999952
0.999993
0.999989
0.999986
0.999836
0.999486
1
0.999944
1
1
0.999998
0.999611
0.998199
0.984283
0.999739
0.996251
0.276455
0.121428
0.0866983
0.0843611
0.08483
0.0460191
0.0891443
0.000139572
0.0002231
0.000129799
0.000235527
0.000182677
0.000111587
0.000200728
7.0108e-05
0.000114905
0.000304569
6.99603e-05
0.000115665
6.43711e-05
3.83377e-05
5.70192e-05
1.97038e-05
8.78986e-05
2.61503e-05
1.93179e-05
4.15121e-05
3.16591e-05
1.47636e-05
1.74978e-07
2.3474e-06
6.42979e-07
2.1224e-06
9.88971e-07
8.3487e-06
1.49542e-05
1.50183e-05
2.38168e-05
5.42913e-05
9.30616e-05
0.000116296
4.95265e-05
1.03378e-05
5.53023e-06
1.20321e-05
2.27498e-05
7.43281e-05
1.29069e-05
4.33396e-05
5.51545e-40
1.53462e-29
7.57937e-28
2.86803e-27
5.75942e-26
4.14007e-29
9.58262e-38
6.3633e-37
1.08833e-35
1.27557e-37
8.5922e-53
2.04756e-39
8.5758e-56
4.44775e-40
5.42698e-18
4.4375e-19
1.8246e-19
1.1656e-20
1.20551e-20
4.72799e-20
1.93694e-19
1.37635e-17
4.14884e-16
5.37431e-17
1.17693e-17
1.19608e-16
2.69668e-16
3.16026e-17
5.4025e-22
2.26446e-23
1.31991e-22
8.22084e-20
6.81655e-21
5.30456e-22
4.03127e-21
2.79002e-21
1.65979e-22
8.54839e-23
2.93944e-23
3.32299e-22
6.98665e-23
7.29542e-22
8.52128e-23
7.80653e-21
5.73196e-23
1.8374e-22
2.83376e-24
1.6377e-19
6.32262e-19
8.76586e-20
6.87419e-20
1.38817e-21
5.16917e-19
7.89339e-21
2.40129e-23
9.05537e-22
3.25909e-22
5.15296e-21
4.59654e-21
1.56495e-22
2.06581e-21
3.23735e-16
4.16279e-15
2.85146e-16
4.22463e-17
1.61609e-16
1.08811e-15
6.73923e-17
1.97756e-20
1.93144e-20
4.29987e-19
1.70331e-18
9.17207e-18
1.28368e-19
1.73584e-19
1
0.999993
1
2.56387e-15
1.097e-15
2.33343e-15
5.78332e-15
2.57259e-14
1.16408e-14
3.46383e-15
9.16258e-13
2.43191e-13
1.17137e-13
6.5295e-13
1.82784e-13
6.58645e-14
1.60739e-13
1.53371e-15
1.07576e-15
5.87195e-16
1.72068e-12
1.18661e-12
3.13396e-13
4.26345e-18
1.14734e-18
5.40343e-19
9.8593e-20
1.76047e-20
3.92107e-19
1.99245e-19
5.34468e-20
1.18345e-19
2.02026e-17
6.14743e-22
1.66076e-15
2.58586e-21
1.25472e-18
7.1151e-15
1.16924e-13
1.41757e-19
2.13219e-21
1.14308e-20
1.91463e-21
6.93321e-20
1.40584e-21
5.93601e-21
1
1
1
1
1
0.999993
1
0.999847
0.999996
0.999999
0.999994
0.9998
1
1
1
1
1
1
1
1
0.999829
1
1
0.999993
0.0174976
0.00443401
0.00376145
0.00380968
0.00667528
0.00563734
0.0163144
5.33417e-08
5.11775e-07
5.57349e-08
6.76153e-08
7.29633e-08
2.87996e-07
4.28263e-08
2.48189e-06
8.30818e-07
9.14979e-07
3.06295e-07
1.33281e-07
2.95477e-07
3.51511e-07
5.43209e-05
4.3633e-05
5.57119e-05
5.54572e-05
2.94406e-05
4.42313e-05
7.57646e-05
3.05086e-05
1.93018e-05
1.90713e-05
0.000173178
8.79689e-05
3.36084e-05
0.000120606
0.0001532
0.000232176
0.000150554
0.000255885
0.000184978
0.000334227
0.000115791
3.62524e-39
1.59481e-28
5.76207e-27
2.54086e-26
3.11255e-25
2.14704e-28
2.53135e-38
1.23985e-24
9.45316e-26
4.02413e-26
5.98152e-26
8.64472e-25
4.87396e-26
6.54268e-25
3.84133e-14
5.07431e-15
2.75926e-15
7.95896e-14
9.45268e-13
6.79578e-14
1.06774e-14
3.92561e-36
3.3682e-36
8.08247e-38
4.09244e-39
8.50415e-39
1.02835e-37
2.39778e-37
5.01015e-40
3.58172e-40
2.09418e-38
1.20046e-39
8.17504e-39
8.10911e-34
5.86521e-35
8.83969e-34
5.78339e-32
1.08448e-33
2.92372e-32
1.01751e-33
1.84151e-32
4.3642e-33
1.07053e-33
9.91132e-33
3.98712e-33
6.93677e-34
2.73266e-33
7.92524e-33
4.57389e-42
1.43378e-40
6.17488e-40
9.86951e-44
5.10995e-39
1.08147e-41
3.11996e-39
7.87108e-31
1.27818e-30
1.18065e-32
5.71317e-38
1.5468e-28
1.45407e-29
4.88322e-39
6.41135e-10
4.59121e-09
4.40222e-08
4.38726e-09
1.07513e-09
3.0623e-10
1.90312e-08
1.42755e-12
4.76978e-12
4.92713e-11
1.45373e-10
4.23952e-10
1.85995e-11
6.4428e-12
3.8705e-14
1.13144e-14
7.35452e-14
3.76474e-13
7.1476e-15
1.05391e-14
1.76068e-13
1
0.999999
0.999995
0.999995
0.99996
0.999941
0.999464
1
1
0.999993
0.999884
0.99999
0.999932
0.99913
1
1
0.999993
0.00131603
0.00134037
0.00131052
0.00751095
0.00979244
0.00380183
0.00224941
0.00425473
0.00039994
0.00251201
0.00302677
0.00119397
0.000703355
0.000592206
2.9852e-17
1.24105e-17
2.20399e-17
1.11212e-16
4.10361e-17
1.80834e-17
5.10859e-17
2.22022e-17
6.39558e-17
1.79904e-16
1.07249e-18
3.68946e-18
8.67094e-19
6.37094e-21
7.8238e-21
9.92161e-21
6.06026e-18
8.83692e-19
1.12747e-18
4.90496e-18
1.2615e-17
3.7636e-20
8.83507e-19
1.3871e-17
0.460241
0.0227279
0.0994343
0.952318
0.426191
0.11427
0.573716
0.999534
0.999932
0.999898
0.99698
0.997324
0.999629
0.999916
0.999631
1
0.99995
0.999995
0.999684
0.999285
0.999442
0.996061
0.998809
0.999984
0.998346
0.99999
0.999534
1
2.44384e-05
0.000181452
1.51628e-05
1.63023e-05
0.000138967
0.000128212
1.11787e-05
2.10045e-05
2.00998e-05
1.82796e-05
4.41486e-05
9.70021e-05
7.27505e-05
2.21258e-05
9.95355e-06
9.16679e-06
2.34393e-06
2.75335e-05
4.8764e-07
9.64416e-07
2.86223e-05
8.03632e-06
1.80994e-05
1.23878e-05
4.69708e-05
5.40874e-05
7.90594e-06
8.94386e-06
9.91986e-07
1.095e-06
1.89787e-07
1.40464e-07
2.16186e-07
6.18994e-07
4.27738e-07
8.54883e-47
3.38784e-47
1.48655e-47
3.93655e-46
8.9338e-47
8.58665e-47
4.18697e-47
1.27783e-31
4.55736e-32
3.65199e-31
1.43282e-29
7.08635e-30
6.56158e-32
2.58258e-31
3.17258e-07
5.78213e-07
5.43032e-08
2.73366e-07
3.48091e-06
1.82638e-06
8.78063e-08
0.000246939
0.000155289
7.64782e-05
9.37063e-05
0.000138048
0.000177173
0.00030198
6.36749e-05
3.29196e-05
0.000171429
1.99981e-05
3.91875e-05
3.45623e-05
0.000117294
1.14536e-15
1.43897e-15
1.42307e-16
4.55396e-15
3.68423e-14
7.53041e-15
6.44003e-16
4.24517e-35
1.31078e-33
8.00301e-35
8.43235e-35
1.99319e-33
2.35743e-33
1.7169e-34
6.51079e-40
2.1604e-38
8.59613e-38
1.09541e-44
2.85692e-44
3.00247e-43
4.89478e-43
1.3644e-41
1.73378e-43
1.14148e-44
3.88636e-44
1.50313e-42
2.85149e-43
7.36516e-42
1.36011e-43
1.32173e-41
1.32829e-40
4.35282e-41
7.93008e-43
6.59652e-40
2.16131e-39
1.0041e-40
6.6563e-43
5.57426e-42
9.15221e-42
0.998469
0.993777
0.993756
0.993777
0.993756
0.999133
0.993844
0.99576
0.999073
0.000109146
2.54429e-05
4.11045e-05
0.0362584
0.0120876
3.96967e-05
0.000186253
0.00191285
1.95154e-05
1.7744e-24
2.31112e-06
0.000377956
0.993845
0.999177
0.999196
1
1
0.999997
1
1
1
1
0.999994
0.999994
0.999994
1
1
1
1
1
1
0.999998
0.999993
1
1
1
0.999997
0.999999
1
1
1
1
1
0.999997
0.999997
0.999997
1
1
1
1
0.999993
0.999997
1
0.466453
0.21686
0.96966
0.990428
0.989571
0.937432
0.950926
6.76241e-87
9.26801e-88
7.27918e-89
2.71831e-89
1.36267e-87
2.64062e-84
3.28319e-86
4.194e-87
1.14246e-85
0.9999
0.999986
0.999995
0.999972
0.999921
0.999819
0.999961
0.999948
0.998974
0.99547
0.999649
0.999775
0.995844
0.999811
0.998943
1.2981e-85
1.18719e-85
5.04319e-83
2.73929e-83
3.85378e-82
6.84521e-82
2.56441e-13
3.00319e-12
9.0899e-14
1.07812e-20
2.42537e-21
4.22242e-22
1.552e-08
7.32017e-09
1.20634e-08
1.51393e-09
9.74635e-15
9.99805e-16
9.30666e-16
2.40365e-25
1.20071e-23
2.42973e-24
1.30334e-22
7.60468e-25
6.88278e-23
0.000527089
0.00108555
0.000957472
3.4289e-15
2.47418e-14
1.37834e-14
1.77197e-13
7.97692e-08
2.5546e-07
2.08779e-07
2.36036e-25
2.27199e-26
9.90769e-25
5.3236e-26
2.1324e-05
0.000239952
0.000103915
7.89649e-05
1.32642e-24
2.20538e-23
4.78097e-22
9.26517e-22
4.07476e-09
1.21279e-08
1.59505e-10
9.04545e-09
1.0583e-10
4.56187e-09
6.84086e-11
3.08247e-10
2.71168e-09
1.01064e-10
4.79609e-20
1.17174e-21
3.48116e-20
8.08584e-21
0.000114379
7.38134e-05
1.59143e-05
1.62622e-05
2.17532e-05
2.32452e-05
1.76756e-05
1.60592e-05
8.40675e-06
3.22803e-05
2.2738e-08
5.92538e-08
2.08367e-10
2.31052e-09
3.18024e-10
1.22157e-08
9.22434e-08
9.91755e-08
1.17302e-08
7.06743e-09
5.57808e-07
8.37241e-09
6.56e-09
1.36586e-08
3.26138e-11
1.09981e-11
7.94818e-12
2.35647e-12
0.028557
0.0116225
0.0309381
0.00699915
3.97089e-21
8.41912e-23
3.74151e-22
1.27611e-63
1.54305e-65
2.23434e-65
4.0895e-67
0.0287215
0.39581
0.0372503
0.133621
2.92923e-05
6.67895e-05
0.000105276
0.000192217
8.77327e-72
2.9322e-70
4.7647e-68
0.000155451
0.000414748
3.09669e-06
8.73427e-06
4.17301e-06
8.26796e-06
1.58813e-26
1.61198e-25
2.85434e-24
2.3956e-25
2.22957e-16
2.73981e-17
3.63171e-68
5.30784e-66
1.94947e-67
3.85256e-64
0.999844
0.995972
0.999692
0.998262
2.54616e-37
1.06473e-36
6.34198e-36
3.2032e-35
1.54105e-06
9.49112e-07
1.95862e-05
5.59824e-05
1.12269e-06
4.58187e-06
1.93943e-07
1.63851e-06
0.000862764
0.000448673
0.000615439
0.000213718
3.69677e-13
1.70192e-13
0.000179976
0.000166804
1.73095e-05
4.19435e-05
0.000355137
0.000500311
0.000485029
0.000483684
3.66952e-05
3.67031e-05
2.5187e-05
2.93804e-05
3.54625e-05
7.5719e-05
0.998469
0.999191
5.24946e-22
2.6361e-21
4.33601e-24
1.95163e-23
2.44998e-05
0.000124771
9.10924e-05
0.000608243
9.02498e-05
2.36593e-05
0.000116249
0.0001156
3.03585e-17
4.96547e-18
4.75109e-26
2.27158e-26
6.44305e-25
5.25732e-25
8.49937e-05
2.50166e-05
3.43098e-05
9.72298e-06
2.09629e-25
5.67658e-26
4.9353e-36