/*--------------------------------*- C++ -*----------------------------------*\
| =========                 |                                                 |
| \\      /  F ield         | OpenFOAM: The Open Source CFD Toolbox           |
|  \\    /   O peration     | Version:  v2012                                 |
|   \\  /    A nd           | Website:  www.openfoam.com                      |
|    \\/     M anipulation  |                                                 |
\*---------------------------------------------------------------------------*/
FoamFile
{
    version     2.0;
    format      ascii;
    class       volScalarField;
    location    "0.05";
    object      p;
}
// * * * * * * * * * * * * * * * * * * * * * * * * * * * * * * * * * * * * * //

dimensions      [1 -1 -2 0 0 0 0];


internalField   nonuniform List<scalar> 
24700
(
-391.377
-431.545
-345.552
-406.577
-424.563
-307.401
-357.186
-416.804
-443.155
-452.255
-418.884
-444.94
-436.578
-374.522
-401.469
-425.447
-408.843
-215.536
-245.099
-251.314
-199.139
-180.751
-241.582
-229.577
-164.361
-204.706
-194.509
-200.003
-189.431
-2.92624
-2.9254
-2.93719
-2.90462
-2.90051
-2.91458
-2.91051
-2.35742
-2.39115
-2.41097
-2.46417
-2.43781
-2.43245
-2.40335
-1.06094
-1.04076
-1.04963
-1.0803
-1.07331
-1.05763
-1.06455
-0.412488
-0.410907
-0.414953
-0.723171
-0.549457
-0.573512
-0.54799
-5.06175
-3.06987
-4.5028
-4.66303
1.64114
-4.21801
-6.40575
-1.78024
-1.73962
-1.78213
-1.82361
-1.77385
-1.75468
-1.80193
-3.70314
-3.38453
-3.44525
-3.28138
-3.23778
-3.35333
-3.51764
-39.399
-15.9509
-29.3394
-43.784
-10.4773
47.2192
-67.8986
-2.80563
-2.87138
-2.82874
-2.71908
-2.76878
-2.80802
-2.77097
-2.2146
-2.18208
-2.21667
-2.22039
-2.25479
-2.20255
-2.23608
-1.89076
-1.91549
-1.88916
-1.86163
-1.88824
-1.90027
-1.8732
-1.39327
-1.41775
-1.4261
-1.45068
-1.42601
-1.42978
-1.4051
-2.79523
-2.81983
-2.79256
-2.78027
-2.755
-2.7697
-2.79516
-2.79631
-2.80928
-2.83482
-2.89641
-2.91941
-2.89198
-2.87596
-2.85143
-2.89155
-2.86787
-2.90455
-2.90559
-2.93423
-2.90974
-2.88155
-2.76614
-2.79515
-2.79078
-2.82278
-2.79805
-2.78094
-2.80604
-2.20964
-2.24702
-2.21573
-2.17642
-2.20661
-2.22862
-2.19836
-1.04952
-1.04046
-1.06082
-1.07325
-1.08024
-1.0575
-1.06448
-0.201459
-0.145785
-0.202851
-0.261788
-0.227291
-0.192541
-0.239997
-0.0710807
-0.100753
-0.0724977
-0.0362099
-0.0106388
-0.110675
-0.0452941
0.051888
0.129071
0.0261571
-0.0159646
-0.113272
-0.0292087
-0.00713594
-0.321678
-0.285221
-0.37208
-0.457259
-0.418277
-0.374145
-0.349763
-0.207041
-0.109055
-0.188733
-0.257247
-0.213394
-0.182456
-0.225959
-0.718116
-0.724806
-0.721502
-0.715939
-0.724525
-0.721099
-0.718508
-0.886178
-0.865498
-0.874774
-0.844952
-0.856501
-0.871394
-0.86022
-1.09987
-1.09755
-1.0841
-1.12014
-1.0831
-1.08367
-1.10899
-1.28093
-1.29235
-1.26358
-1.27096
-1.303
-1.29945
-1.26967
-0.904365
-0.927242
-0.926479
-0.950633
-0.926146
-0.938478
-0.9153
-0.80116
-0.747152
-0.75563
-0.723121
-0.786234
-0.72182
-0.780107
-0.311004
-0.387738
-0.378466
-0.325161
-0.289966
-0.245578
-0.425813
-0.225574
-0.232045
-0.207237
-0.227031
-0.243537
-0.238218
-0.217287
0.348809
0.240741
0.297318
0.289287
0.192944
0.249791
93.958
75.1164
75.8124
66.0068
76.4278
56.7377
2.65687
3.48177
2.72964
0.824042
3.37773
1.17403
1.4967
0.041998
-0.363407
1.4312
0.818332
3.24807
0.335285
1.95768
-0.136259
-0.146193
-0.182085
-0.123137
-0.307558
-0.210386
-0.046462
0.332177
0.464616
0.313181
0.223873
0.327918
0.404755
0.288858
0.164318
-0.0213437
-0.0576067
-0.219448
-0.215271
-0.150359
-0.0251146
-1.61494
-1.20641
-1.43043
-2.07845
-1.64784
-1.50045
-1.79094
-0.586429
-0.507297
-0.445131
-0.57096
-0.467656
-0.446489
-0.605684
-0.712261
-0.721141
-0.733687
-0.704298
-0.692141
-0.706836
-0.719897
-0.955999
-0.968993
-0.974873
-0.990583
-0.978971
-0.97768
-0.965914
-1.41774
-1.40754
-1.38732
-1.364
-1.37073
-1.38813
-1.3963
-2.13222
-2.10615
-2.09854
-2.07127
-2.09657
-2.09186
-2.11742
-2.10435
-2.13362
-2.10902
-2.09706
-2.0726
-2.11421
-2.08967
-2.21355
-2.20514
-2.23897
-2.19995
-2.17535
-2.22129
-2.19651
-2.4741
-2.4985
-2.501
-2.53481
-2.50974
-2.52054
-2.49533
-2.61247
-2.6378
-2.60037
-2.59939
-2.57474
-2.6249
-2.60004
-2.70119
-2.69537
-2.72635
-2.65913
-2.68474
-2.70233
-2.6778
-2.69472
-2.69827
-2.67
-2.70771
-2.73296
-2.71698
-2.69224
-2.79508
-2.76612
-2.79075
-2.79803
-2.82277
-2.78095
-2.80604
-2.60574
-2.58009
-2.60546
-2.63325
-2.6075
-2.59423
-2.62014
-2.21681
-2.18209
-2.21466
-2.25487
-2.2208
-2.20269
-2.23616
-2.09877
-2.09172
-2.05727
-2.10128
-2.14072
-2.11666
-2.07757
-0.959916
-0.982653
-1.01242
-0.912222
-0.926546
-0.963242
-0.976471
-0.81109
-0.78602
-0.790165
-0.802007
-0.752756
-0.780813
-0.812302
-0.863777
-1.17875
-1.0285
-1.34578
-1.57391
-1.09243
-1.17741
-0.251618
-0.222618
-0.257213
-0.258047
-0.278335
-0.234656
-0.259028
-0.136972
-0.169763
-0.167031
-0.172403
-0.188935
-0.146227
-0.168853
-0.158637
-0.134553
-0.169394
-0.200366
-0.181178
-0.0877893
-0.104003
-0.0859695
-0.0498629
-0.0799689
-0.085306
-0.0598635
-0.0765085
-0.0489292
-0.0865455
-0.114278
-0.094219
0.0208661
0.0498022
0.12186
0.0309015
-0.0327159
0.102693
0.0259454
0.198536
0.175272
0.179804
0.0655143
0.237481
0.192997
0.0626407
-0.273299
-0.356071
-0.357945
-0.26854
-0.145544
-0.223815
-0.291117
-0.198763
-0.181681
-0.176781
-0.238475
-0.19126
-0.17249
-0.201008
-0.999171
-0.99864
-1.01851
-0.998254
-0.97726
-0.987367
-1.00778
-1.40531
-1.43559
-1.40907
-1.41051
-1.38172
-1.42307
-1.39196
-1.87537
-1.90011
-1.87623
-1.84172
-1.86573
-1.87911
-1.85429
-1.93724
-1.91329
-1.90967
-1.88003
-1.90368
-1.89543
-1.91928
-2.03487
-2.01064
-2.00854
-1.97183
-1.99613
-2.01115
-1.98744
-2.4031
-2.40135
-2.42726
-2.37524
-2.39885
-2.38914
-2.41308
-2.84507
-2.82078
-2.8137
-2.78546
-2.8103
-2.80541
-2.82926
-2.7629
-2.73792
-2.73764
-2.70877
-2.73585
-2.72192
-2.74797
-1.5409
-1.52023
-1.56273
-1.57362
-1.52621
-1.52551
-1.56897
-1.17742
-1.25688
-1.60093
-1.0962
-1.31127
-1.15232
-1.57428
-0.636656
-0.607265
-0.588482
-0.560257
-0.538683
-0.617916
-0.587786
-0.566056
-0.553152
-0.534848
-0.564737
-0.557236
-0.557042
-0.576759
-0.25832
-0.257974
-0.278824
-0.223735
-0.251702
-0.259465
-0.235929
-0.222197
-0.2036
-0.20421
-0.212221
-0.183738
-0.192639
-0.214986
0.51378
0.429184
0.408523
0.447403
0.432128
0.434572
0.454884
3.56598
11.0213
5.66587
1.36883
1.46573
3.8919
1.06511
0.366988
0.382569
0.348621
0.359662
0.359479
0.361291
0.358685
-0.203861
-0.234659
-0.202098
-0.19876
-0.176342
-0.21636
-0.191262
-0.466307
-0.463041
-0.4875
-0.441539
-0.461354
-0.45545
-0.475713
-0.717254
-0.73511
-0.715342
-0.710355
-0.691539
-0.721099
-0.702983
-1.24254
-1.26018
-1.27107
-1.2807
-1.29922
-1.2791
-1.26097
-1.72231
-1.69945
-1.69145
-1.66826
-1.68956
-1.68726
-1.70964
-1.72486
-1.70151
-1.72532
-1.76308
-1.73853
-1.72765
-1.75132
-1.72322
-1.73567
-1.76067
-1.68709
-1.71331
-1.91358
-1.93876
-1.91403
-1.88716
-1.91137
-1.92507
-1.90022
-1.9138
-1.95085
-1.91216
-1.88823
-1.93723
-2.04837
-2.02425
-2.01228
-2.02449
-2.04847
-2.7568
-2.72988
-2.75583
-2.77817
-2.75386
-2.7391
-2.76469
-3.35752
-3.21266
-3.25949
-3.44317
-3.75044
-3.38747
-3.55796
-1.94249
-1.88893
-1.96303
-2.01324
-1.91398
-1.90868
-1.9867
-1.97698
-2.03416
-1.98438
-2.04857
-2.07638
-2.0265
-2.00527
-2.07619
-2.10208
-2.13144
-2.13951
-2.07939
-2.14156
-2.08248
-1.85911
-1.84041
-1.79183
-1.81732
-1.8796
-1.79791
-1.86385
-1.40857
-1.48892
-1.46847
-1.53333
-1.33119
-1.43024
-1.41898
-1.21117
-1.36529
-1.40259
-1.44031
-1.53765
-1.3858
-1.35853
-0.60492
-0.59517
-0.581855
-0.602946
-0.620103
-0.602982
-0.588127
-0.605205
-0.628614
-0.582655
-0.594241
-0.611461
-0.208898
-0.232201
-0.22655
-0.228177
-0.244369
-0.238788
-0.218328
-0.150142
-0.17928
-0.164884
-0.197394
-0.170286
-0.189202
-0.155694
0.244566
0.392779
0.262414
0.338181
0.237084
0.384809
0.207055
10.8083
-0.191338
1.47079
-0.617328
14.1042
0.295693
7.15616
0.169081
0.171911
0.191936
0.197574
0.221918
0.184294
0.195928
0.17269
0.145582
0.143067
0.118481
0.133759
0.131059
0.153005
-0.251166
-0.227644
-0.242032
-0.27357
-0.260299
-0.24422
-0.257359
-0.636392
-0.65185
-0.660848
-0.682408
-0.667998
-0.665938
-0.651429
-0.909598
-0.911405
-0.933779
-0.907458
-0.884982
-0.897985
-0.920675
-1.44501
-1.4227
-1.44535
-1.48218
-1.45842
-1.44803
-1.47089
-1.4433
-1.45583
-1.47992
-1.40873
-1.43415
-1.90965
-1.91326
-1.93717
-1.90369
-1.88002
-1.89541
-1.91926
-2.10031
-2.06759
-2.09356
-2.12953
-2.10346
-2.08372
-2.10964
-2.30302
-2.27023
-2.29572
-2.33138
-2.30587
-2.28535
-2.31149
-2.90828
-2.91761
-2.93726
-2.8995
-2.91866
-2.91961
-2.93448
-2.91743
-2.91314
-2.9171
-2.93376
-2.9189
-2.90299
-2.94006
-2.92342
-2.92503
-4.28708
-10.6774
-4.11085
3.47831
0.61468
-3.64336
-3.56159
-3.40343
-3.38706
-3.36298
-3.3034
-3.31059
-3.31968
-3.3531
-2.41741
-2.41546
-2.37174
-2.42006
-2.4729
-2.44957
-2.40073
-2.14776
-2.13117
-2.10801
-2.11527
-2.15624
-2.11028
-2.15231
-2.28153
-2.30754
-2.34177
-2.39644
-2.36657
-2.34684
-2.31979
-3.06409
-3.09133
-2.89563
-2.92784
-3.25919
-3.18639
-2.91415
-1.45636
-1.14052
-1.25969
-1.24756
-1.29489
-1.31004
-1.2812
-1.15282
-1.21768
-1.23985
-1.30009
-1.28715
-1.25285
-1.21392
-0.913768
-0.888554
-0.930384
-0.945353
-0.973517
-0.917724
-0.943397
8.41204
-0.0328829
12.5827
4.9958
0.731213
1.53665
8.35291
80.3936
61.0414
56.421
66.8951
48.4268
81.7435
62.1304
76.9951
77.4973
85.3887
59.8438
58.4841
67.3433
67.9185
67.5712
87.302
67.1583
0.292266
0.275196
0.288837
0.317418
0.27972
0.277236
0.304152
0.241361
0.220791
0.207637
0.18271
0.197595
0.204343
0.221915
-0.00728565
0.0168665
0.0176993
0.0432561
0.0155186
0.00430868
0.0308068
-0.116469
-0.0906369
-0.0910304
-0.0959701
-0.0675055
-0.0812061
-0.108842
-1.03852
-1.04119
-1.06509
-1.03474
-1.01086
-1.02558
-1.0494
-1.37418
-1.35129
-1.3491
-1.35165
-1.32939
-1.31564
-1.33788
-1.3529
-1.38755
-1.36442
-2.12595
-2.09973
-2.09788
-2.06349
-2.0902
-2.0787
-2.10509
-2.91319
-2.88818
-2.90811
-2.92944
-2.92833
-2.92658
-2.91722
-2.89859
-2.91494
-2.93851
-2.93319
-2.93587
-2.94427
-2.9325
-2.92216
-2.8894
-2.92219
-2.92311
-2.94763
-3.06838
-3.00203
-2.99597
-3.01514
-3.02481
-3.00201
-3.05275
-3.01518
-3.02833
-3.08182
-3.04128
-2.65872
-2.62061
-2.64133
-2.62367
-2.66309
-2.62426
-2.6612
-2.40901
-2.44054
-2.40699
-2.40591
-2.37176
-2.42099
-2.38777
-3.60053
-3.8282
-3.63464
-3.87477
-3.61945
-3.88577
-3.62754
-1.3825
-1.34166
-1.39495
-1.40651
-1.44638
-1.37401
-1.41472
-1.01468
-0.938466
-1.14723
-0.817261
-1.05459
-0.907294
-1.0694
0.0182536
0.0584693
0.0504574
-0.0142269
0.0365084
-0.00860133
0.0132943
-0.13652
-0.0856392
-0.225697
-0.356626
-0.314116
-0.225755
-0.221524
0.37025
0.370708
0.353277
0.334568
0.353312
0.348086
0.367802
53.3743
42.761
63.1623
54.1778
56.4965
73.7722
43.4861
24.9388
37.1065
55.2289
61.6882
65.8502
85.3025
66.4562
47.992
-0.175101
-0.21432
-0.185353
-0.195637
-0.14776
-0.20403
-0.161196
-0.589321
-0.623788
-0.656092
-0.50461
-0.496984
-0.536768
-0.579129
-0.606846
-0.798329
-0.733796
-0.771251
-0.716866
-0.660022
-0.751143
-0.69325
-0.71602
-0.694847
-0.695494
-0.670084
-0.704326
-0.680196
-0.804808
-0.787226
-0.779355
-0.756798
-0.7753
-0.773646
-0.791588
-0.989043
-0.969967
-0.963773
-0.93768
-0.956136
-0.953147
-0.971893
-1.06397
-1.08653
-1.06675
-1.06341
-1.04031
-1.07194
-1.04892
-1.19358
-1.17171
-1.16745
-1.13788
-1.15939
-1.15294
-1.17454
-1.16964
-1.19515
-1.17318
-1.13972
-1.1614
-1.17582
-1.15409
-1.08072
-1.10218
-1.07543
-1.06711
-1.04586
-1.08293
-1.06188
-1.03852
-1.01088
-1.03473
-1.06509
-1.04119
-1.02559
-1.0494
-1.28066
-1.29923
-1.27104
-1.26016
-1.24258
-1.27918
-1.26098
-2.06184
-2.21211
-2.06496
-1.96926
-2.0547
-2.13614
-2.02372
-3.39525
-3.77601
-3.68206
-2.45744
-3.88582
-4.45006
-3.12237
-2.94574
-2.94282
-2.94545
-2.94828
-2.94927
-2.94965
-2.95302
-2.93908
-2.94373
-2.94462
-2.8475
-2.84191
-2.85944
-2.81463
-2.82576
-2.83888
-2.82826
-3.37063
-3.26719
-3.14179
-3.96843
-3.86038
-3.72162
-3.35839
-1.44674
-1.40699
-1.3954
-1.34174
-1.38277
-1.37397
-1.41506
-0.646496
-0.629713
-0.682419
-0.729943
-0.722389
-0.68647
-0.683551
-0.843655
-0.769889
-0.732661
-1.03914
-1.04411
-1.06322
-0.961753
0.0315837
0.030455
0.00371823
0.0391088
0.0677105
0.053269
0.0233009
-0.0926197
-0.0967212
-0.130174
-0.0387729
-0.0762959
-0.0614099
-0.0974613
-0.796061
-0.544982
-0.454891
-0.429137
-0.350591
-0.524813
-0.436824
-0.997732
-0.989382
-1.01887
-0.986427
-0.965592
-1.00565
-0.984553
-0.915318
-0.894024
-0.89433
-0.872938
-0.89421
-0.883638
-0.904649
-2.63056
-3.05715
-3.04228
-3.11033
-2.89397
-3.11704
-2.76705
-3.34062
-3.29673
-3.36956
-3.35618
-3.40368
-3.30484
-3.38988
-2.93002
-2.93065
-2.93848
-2.90902
-2.90899
-2.91641
-2.91622
-2.71503
-2.68862
-2.70257
-2.74441
-2.72688
-2.70835
-2.72472
-2.75803
-2.70377
-2.7145
-2.6877
-2.66444
-2.69197
-2.72908
-2.36603
-2.39425
-2.39684
-2.4334
-2.4119
-2.39395
-2.41484
-1.24023
-1.22035
-1.14849
-1.2898
-1.30372
-1.25362
-1.21246
-1.32535
-1.01715
-1.095
-0.94828
-1.17634
-1.06959
-1.34383
-0.810448
-0.73218
-0.765738
-0.744812
-0.808232
-0.719848
-0.789702
-0.204053
-0.14792
-0.198868
-0.260811
-0.226044
-0.192117
-0.23805
0.0327567
-0.0714475
-0.020913
-0.0224536
-0.00812296
0.0181474
0.0405287
-0.192044
-0.123623
-0.193551
-0.215186
-0.228815
-0.224008
-0.211654
-2.36618
-2.65042
-3.20699
-1.83858
-1.87245
-2.31164
-2.58856
0.293688
0.278911
0.316453
0.291289
0.276173
0.277717
0.305791
47.5884
57.1254
26.0119
80.1446
60.6166
70.3133
51.464
35.5679
57.6461
89.175
80.6604
79.2609
70.593
60.7314
25.1741
45.7631
56.3508
66.6306
0.358298
0.387543
0.385348
0.389849
0.42183
0.352967
0.349096
0.105111
0.0952771
0.0714835
0.133728
0.120849
0.112129
0.111971
-0.180457
-0.280198
-0.172422
-0.179248
-0.104904
-0.211854
-0.116581
-0.656861
-0.768985
-0.832005
-0.655759
-0.526124
-0.62309
-0.742238
-0.497455
-0.469675
-0.463766
-0.432781
-0.461033
-0.447902
-0.479292
-0.763381
-0.748469
-0.764968
-0.763159
-0.778993
-0.790934
-0.772711
-0.76227
-0.740404
-0.753912
-0.944266
-0.921372
-0.920856
-0.916921
-0.894175
-0.906023
-0.928986
-0.96788
-0.93334
-0.930787
-1.01623
-0.987247
-0.967972
-0.980127
-1.3253
-1.27007
-1.37072
-1.40407
-1.43353
-1.32397
-1.36545
-1.78053
-1.70077
-1.68915
-1.87051
-1.83126
-1.75724
-1.77075
-2.53743
-2.59065
-2.57536
-2.61503
-2.56305
-2.61192
-2.5527
-2.6209
-2.65928
-2.64148
-2.66296
-2.62328
-2.66124
-2.62418
-2.90466
-2.89599
-2.91614
-2.90088
-2.91459
-2.93591
-2.89139
-2.91089
-2.91082
-2.85411
-2.88061
-2.89313
-2.92128
-2.89526
-2.8953
-2.86964
-2.93447
-2.90866
-2.90825
-2.90528
-2.88006
-2.87545
-2.84455
-2.888
-2.89823
-2.93008
-2.90069
-2.87362
-2.89917
-2.41153
-2.36837
-2.35266
-2.27687
-2.3403
-2.32473
-2.37705
-2.36474
-2.52954
-2.4265
-2.4316
-2.3697
-2.47761
-2.35493
-2.58037
-2.58663
-2.57768
-2.57549
-2.57924
-2.57404
-2.57657
-2.57455
-2.57543
-2.34748
-2.37919
-2.39118
-2.25173
-2.17147
-2.17885
-2.08714
-2.17954
-2.12925
-2.2147
-1.13917
-1.34032
-1.30662
-1.65896
-1.41083
-1.35929
-1.34567
-0.397647
-0.351697
-0.260157
-0.17972
-0.278893
-0.271611
-0.338986
0.143071
0.145594
0.172625
0.133739
0.118393
0.131021
0.152996
62.5924
71.2299
89.9056
53.557
70.7331
71.7051
-0.0764519
-0.0631394
-0.0384433
-0.00356873
-0.0198358
-0.0311064
-0.0524653
-0.815142
-0.75151
-0.818106
-0.887899
-0.798318
-0.818096
-0.810137
-0.716796
-0.700081
-0.699548
-0.701796
-0.691772
-0.68348
-0.692296
-0.726031
-0.709715
-0.703993
-0.563092
-0.582312
-0.571345
-0.555802
-0.561436
-0.573229
-0.562938
-1.01851
-0.998646
-0.999177
-0.97726
-0.998256
-0.987371
-1.00778
-1.10898
-1.09879
-1.10092
-1.09248
-1.10782
-1.09678
-1.10883
-1.09756
-1.08341
-1.1201
-1.10004
-1.08414
-1.08384
-1.1092
-1.63896
-1.60223
-1.59456
-1.6859
-1.68548
-1.64214
-1.63865
-1.93866
-2.00862
-1.96426
-1.86794
-1.87111
-1.93264
-1.90667
-1.88053
-1.84322
-1.84238
-1.91378
-1.92612
-1.88126
-1.89121
-2.41874
-2.47693
-2.42084
-2.3726
-2.41634
-2.45197
-2.40172
-2.37642
-2.39762
-2.40372
-2.43239
-2.40511
-2.41692
-2.3919
-2.78695
-2.80809
-2.77618
-2.7534
-2.78285
-2.78762
-2.7564
-2.41015
-2.38795
-2.3563
-2.4369
-2.46404
-2.43056
-2.40211
-2.25131
-2.29559
-2.2578
-2.28153
-2.21455
-2.28696
-2.22979
-2.5387
-2.54681
-2.5345
-2.53825
-2.53803
-2.542
-2.5422
-2.54478
-2.54485
-2.53944
-2.54692
-2.54729
-2.54912
-2.54566
-2.57726
-2.5731
-2.56826
-2.57423
-2.57722
-2.56798
-2.5848
-2.57228
-2.58435
-2.58678
-2.50992
-2.46977
-2.53352
-2.54472
-2.48627
-2.47704
-2.53779
-2.39749
-2.41959
-2.86081
-2.52589
-2.32856
-2.56407
-2.66859
-1.2011
-1.42315
-1.29139
-1.36096
-1.4276
-1.59283
-1.47161
-1.3548
-1.39229
-1.43245
-1.38322
-1.41045
-1.38706
-1.40848
-0.854383
-0.833639
-0.880349
-0.88301
-0.817293
-0.830092
-0.881254
-0.824455
-0.809056
-0.832847
-0.84662
-0.862288
-0.830575
-0.846171
-0.20214
-0.234729
-0.203907
-0.176367
-0.198422
-0.216388
-0.19141
0.0173758
-0.00715626
0.017626
0.0155057
0.0432049
0.00429713
0.0306197
40.2725
57.5564
60.7403
82.9891
64.4802
70.746
52.9789
82.978
83.4389
90.2855
63.6306
64.6076
81.4952
80.6348
62.7551
61.4979
79.4039
79.8083
91.7681
72.9837
61.3683
59.0351
50.1016
31.3034
67.0975
47.5661
4.45078
1.18639
2.90099
-0.229241
3.13298
0.347697
2.39157
0.304683
0.286835
0.273085
0.30282
0.316859
0.30343
0.287535
-0.500951
-0.700614
-0.47839
-0.438128
-0.49439
-0.602906
-0.472775
-0.997036
-0.848594
-1.12465
-0.768201
-0.643437
-0.914451
-0.85856
0.283521
0.279234
0.270853
0.244587
0.266519
0.254712
0.268022
-0.6568
-0.671624
-0.616577
-0.6569
-0.635805
-0.652226
-0.627256
-0.606052
-0.611743
-0.6284
-0.703036
-0.670726
-0.657842
-0.633631
-0.743705
-0.723113
-0.72431
-0.701553
-0.723706
-0.710998
-0.731979
-0.691709
-0.71037
-0.715322
-0.735104
-0.717234
-0.721119
-0.70306
-1.16606
-1.17733
-1.16013
-1.1484
-1.1446
-1.16118
-1.15279
-1.54125
-1.57982
-1.58314
-1.5141
-1.5105
-1.54749
-1.54883
-2.44089
-2.45206
-2.46237
-2.42319
-2.42621
-2.43754
-2.4433
-2.68171
-2.72424
-2.72213
-2.76064
-2.71874
-2.74084
-2.69644
-2.55274
-2.54665
-2.54867
-2.54737
-2.55159
-1.15108
-1.1242
-1.11743
-1.0876
-1.11252
-1.10696
-1.13304
-0.926614
-0.9274
-0.90443
-0.950645
-0.926019
-0.938612
-0.915379
0.0396782
0.0105831
0.0379068
0.0772601
0.0479869
0.0323724
0.0599995
0.138991
0.162284
0.133019
0.12017
0.0994096
0.136465
0.114732
60.3579
51.7946
70.3616
-0.384767
-0.36459
-0.390137
-0.40542
-0.416554
-0.408404
-0.388744
-0.477955
-0.467277
-0.466364
-0.466999
-0.448238
-0.438271
-0.45898
-0.385343
-0.371433
-0.344643
-0.495572
-0.476023
-0.465363
0.0545797
0.0755777
0.0900976
0.112989
0.08963
0.0546023
0.0746925
0.0918107
0.0728316
0.169414
0.151528
0.173794
0.152291
0.170096
0.184522
0.165623
0.16852
0.141774
0.184945
0.171269
0.172374
0.153659
0.142779
59.9646
63.3641
82.1769
55.6386
37.9922
50.4975
68.7565
78.7428
78.0372
91.5663
72.0651
59.4217
59.4284
36.8105
55.4548
81.6945
63.2473
49.8202
68.4468
77.9634
77.7805
91.2176
72.4346
59.3413
0.757485
0.427135
0.668239
0.466175
0.392702
0.503861
0.60695
0.0942977
0.0611584
0.0864595
0.124497
0.10006
0.0818048
0.1067
-0.319421
-0.292728
-0.268279
-0.184372
-0.267204
-0.230349
-0.296786
-0.850472
-0.693538
-0.675335
-0.50547
-0.640708
-0.611828
-0.766192
-0.0745145
-0.0756027
-0.176762
-0.137762
-0.312395
-0.127891
-0.0636965
-0.734731
-0.692831
-0.67713
-0.543421
-0.83198
-0.553356
-0.723102
-0.662468
-0.644882
-0.64151
-0.620568
-0.639169
-0.633306
-0.651139
-1.5231
-1.52652
-1.50089
-1.47273
-1.47083
-1.49823
-1.49442
-2.35376
-2.36846
-2.41235
-2.34364
-2.27923
-2.32601
-2.37846
-2.79089
-2.77035
-2.79465
-2.79706
-2.82153
-2.78195
-2.80605
-2.83768
-2.7998
-2.77137
-2.79706
-2.82091
-2.64134
-2.66279
-2.63358
-2.61094
-2.63294
-2.63748
-2.66162
-2.62398
-0.971144
-0.992396
-0.994368
-1.01297
-0.988451
-0.979293
-1.00306
-0.74473
-0.752821
-0.733824
-0.773985
-0.763456
-0.761146
-0.750312
-0.441539
-0.463042
-0.461357
-0.487501
-0.466305
-0.455449
-0.475718
-0.0987743
-0.0939331
-0.129919
-0.0767945
-0.0398704
-0.0623538
-0.0974908
-0.0813657
-0.0500401
-0.0892102
-0.110833
-0.133596
-0.0847247
-0.111416
0.032346
0.0665646
0.0392913
0.00574306
0.0316553
0.0534786
0.0240974
84.501
66.2142
60.3961
84.2665
66.1819
69.2424
51.1775
84.3489
84.0737
91.9114
65.9075
66.1914
73.7163
74.0749
73.237
91.322
73.152
0.463513
0.313152
0.455873
0.411408
0.665498
0.463588
0.520909
0.442536
0.244745
0.222656
0.234678
0.281304
0.31005
0.247741
-0.0870062
-0.0465378
-0.0736156
-0.112763
-0.0913901
-0.0667563
-0.0923847
-0.0944253
-0.107644
-0.1236
0.0351634
0.0139493
0.00804501
0.0949344
0.106049
0.126253
-0.0228269
0.0043329
0.0352962
0.00958257
-0.00955527
0.172647
0.192786
0.183247
5.46704
0.640677
-2.91572
22.723
-7.5318
-2.70998
-1.19664
71.6556
62.0202
89.6715
53.845
69.9502
70.5695
70.5546
70.8379
91.9816
82.6358
82.1017
62.016
60.8524
60.8008
49.3783
29.4707
68.5626
47.0863
60.8468
51.1573
69.6781
0.390684
0.39265
0.353415
0.411527
0.409895
0.389611
0.370892
0.291039
0.318211
0.326668
0.263032
0.281369
0.299125
0.299108
0.100584
0.0859693
0.117774
0.0614493
0.0751334
0.0968838
0.0760273
-0.260216
-0.265902
-0.397422
-0.178153
-0.112595
-0.229807
-0.253449
-0.639497
-0.562989
-0.56333
-0.48921
-0.493888
-0.523518
-0.566239
-0.856475
-0.865622
-0.845032
-0.886259
-0.874918
-0.871321
-0.860213
-1.3811
-1.36826
-1.40827
-1.39311
-1.35571
-1.3628
-1.40063
-2.82349
-2.79313
-2.7312
-2.82404
-2.89957
-2.85621
-2.76941
-3.43098
-3.52491
-3.59877
-3.81978
-3.75408
-3.53367
-3.41734
-1.40523
-1.21379
-1.24301
-1.35972
-1.68069
-1.39663
-1.53728
-2.35358
-2.34225
-2.39503
-2.35411
-2.30691
-2.3186
-2.36276
-2.78878
-2.78148
-2.80856
-2.78977
-2.76518
-2.77064
-2.79634
-2.89701
-2.88206
-2.9063
-2.90583
-2.92605
-2.89793
-2.89449
-2.87074
-2.9037
-2.93369
-2.92438
-2.89493
-2.89203
-2.86387
-2.89459
-2.88935
-2.86597
-2.85615
-2.89187
-2.85588
-2.87839
-2.90212
-2.93775
-2.91558
-2.91235
-143.539
-133.084
-125.572
-98.3261
-125.582
-142.804
-172.469
-123.612
-116.407
-3.39843
-2.69033
-3.17434
-0.195855
-5.51374
-2.32377
-3.82111
-3.27246
-3.17896
-2.98837
-3.00123
-2.67011
-162.872
-137.492
-146.927
-474.087
-494.381
-474.493
-470.286
-455.199
-456.545
-464.23
-476.133
-491.333
-486.778
-501.445
-479.187
-475.285
-464.352
-476.657
-486.653
-463.573
-477.415
-466.431
-495.217
-474.452
-474.581
-442.631
-465.918
-472.554
-455.653
-481.567
-505.047
-491.792
-495.837
-485.03
-479.518
-490.912
-481.372
-471.753
-485.034
-479.547
-472.149
100.295
-15.0281
17.7096
-17.7038
-14.6808
-23.4158
-35.0271
-2.86991
-2.89432
-2.89696
-2.92747
-2.90405
-2.89427
-2.91985
-2.92968
-2.90387
35.1495
56.5644
58.2484
82.8747
65.2483
56.4087
74.9757
82.9335
64.2231
73.6804
72.7771
91.1641
42.844
53.665
21.0005
-2.89218
-2.85399
-2.87916
-2.93822
-2.91335
-2.91257
-0.437844
-0.459648
-0.465668
-0.776042
-0.757796
-0.780001
-0.777227
-0.771672
-0.779073
-0.77865
-0.463419
-0.488786
-0.471202
-2.13091
-2.11426
-2.15728
-0.776178
-0.780126
-0.758258
-2.84063
-2.97023
-3.0488
-0.453678
-0.434715
-0.471315
-0.455187
-1.84001
-1.79776
-1.90897
-2.15268
-2.14738
-2.11159
-2.10889
-0.953269
-1.08511
-1.06024
-0.938357
-0.78802
-0.795591
-0.765487
-0.773152
-0.071329
-0.0957466
-0.0386564
-0.0562773
-0.00610003
-0.0226583
-0.00474485
-0.0108261
-0.0209441
-0.0376505
-0.795571
-0.787962
-0.773021
-0.765411
-0.944147
-0.930149
-0.715531
-0.776138
-0.704451
-0.793465
-0.800002
-0.733293
-0.771608
-0.812489
-0.0715505
-0.0960221
-0.0039486
-0.0100716
-0.0366315
-0.0199396
-0.772644
-0.777435
-0.779192
-0.780365
-0.772735
-0.789291
-0.787555
-0.78286
-2.04063
-1.9666
-2.05375
-1.98646
0.63416
0.515102
1.02207
0.465908
-2.73366
-2.71776
-2.69472
-1.89947
-1.93233
-1.90188
-1.93462
0.370704
3.96272
1.03479
2.25575
-0.922999
-0.903429
-0.829484
-0.817105
-2.59741
-2.56949
-2.5571
0.271338
0.292546
-0.583303
-0.50466
-0.597124
-0.551013
0.0767069
0.0662016
0.0662251
0.0767425
-2.37622
-2.38202
-2.91473
-2.88605
-2.87796
-2.86141
60.6895
40.4908
74.2396
49.9237
-2.74219
-2.69834
-2.73829
-2.69958
0.138532
0.161046
0.149571
0.171429
-0.665569
-0.691664
-0.672404
-0.738263
-4.47733
-4.12452
-4.3931
-4.00603
-1.59969
-1.55674
0.311457
0.330601
0.319088
0.346312
-0.809646
-0.819346
-0.557575
-0.651386
0.122611
0.0863098
0.142353
0.113629
-1.07766
-1.10524
-92.6077
-85.2534
-2.80976
-2.78817
-2.81899
-2.78043
-0.141284
-0.10175
-0.0852498
-0.048568
-0.0881603
-0.127652
-9.37246e-05
-0.0656865
-1.60302
-1.59317
-2.70126
-2.71976
-2.69158
-2.72192
-0.276891
-0.354145
-0.340541
-0.37802
-2.76909
-2.79894
-2.82406
-2.81009
0.0650559
0.0429141
-1.35803
-1.33496
-1.36245
-1.32846
2.47258
14.8909
48.7269
10.1503
13.7534
39.8477
51.1145
-0.104306
-0.0795624
-0.0997259
-0.0616865
0.17106
0.191606
0.195944
48.0123
41.2943
3.03065
7.67879
28.2391
44.4444
-3.92235
-4.13959
-2.31103
-2.3155
-2.38207
-2.46417
-2.47006
-2.42839
-2.86998
-2.8977
-2.86415
-2.89374
-2.91101
-2.88493
-2.43569
-2.44993
-0.222377
-0.205971
-0.243261
-0.209651
-0.205876
-0.222313
-0.209523
-0.243351
0.306847
0.300649
0.298112
0.313759
-0.316025
-0.33575
-0.25548
-0.335965
-1.874
-1.81017
-0.966294
-0.87693
-1.99698
-2.06625
-0.971584
-0.856968
-1.57894
-1.61483
-0.505395
-0.493944
-0.655788
-0.810962
-0.212567
-0.652817
-0.493935
-0.505387
-3.24411
-6.61074
33.448
-30.3905
-0.447895
-0.438246
-0.457332
-0.439893
-0.332182
-0.319559
-0.216674
-0.250619
0.14059
0.116431
-1.9529
-1.98185
-1.9324
-1.97583
-1.95311
-1.96387
-173.168
-171.191
-133.904
-137.752
-2.70379
-2.77682
-2.7722
-2.87603
0.316398
0.310859
0.285066
0.337609
-4.83528
-3.31064
-4.83594
-4.9723
-0.879624
-0.868743
-0.351161
-0.130459
-1.03513
-0.995885
-0.999535
-0.945451
0.514141
0.429083
0.474305
0.381324
-2.39184
-2.40535
-2.38549
-2.41173
-2.21068
-2.19328
-2.49077
-1.57688
-2.70588
-2.6899
0.314341
0.522569
-383.623
-0.953262
-0.95738
-0.977187
-0.973368
-1.43245
-1.41013
-1.42869
-1.39574
-2.13153
-1.87979
-0.71437
-0.716349
-2.17347
-2.17657
-0.819326
-0.821883
-0.849213
-0.843045
0.147017
0.121007
-0.113272
-0.068641
-0.161662
-0.0530409
12.5099
17.6414
41.6872
-1.81747
-1.82376
-1.86917
-1.86044
-1.52278
-1.57098
-1.51755
-1.66264
-2.38517
-2.38194
-2.38312
-2.36719
-0.884752
-0.89484
-3.71699
-3.76873
-3.27794
-3.67806
-0.451328
-0.422877
-0.485052
-0.450311
-2.05047
-2.05408
-1.88429
-1.89275
-1.13633
-1.1586
-1.14645
-1.17658
0.321758
0.344674
-1.53952
-1.53697
-2.09447
-2.11465
-2.0914
-2.12476
-2.10978
-2.08863
0.133351
0.111789
0.123535
0.0930733
-1.11034
-1.11675
-1.09868
-1.10156
-2.68557
-2.67653
-2.72244
-2.72338
-2.38189
-2.38527
-2.3673
-2.38331
-0.89485
-0.884685
-1.37438
-1.38558
-0.52669
-0.536446
-0.557132
-0.577661
-0.538688
-0.527955
-0.579607
-0.558861
-0.914813
-0.870923
-0.818276
-0.429121
-0.994555
-0.913098
-0.877161
-0.778655
-2.86141
-0.738587
-0.721864
-0.152351
-0.132877
-0.183938
-0.172392
-2.11524
-2.09573
-2.06867
-2.05158
0.111761
0.133154
0.0931549
0.123692
0.234158
0.226047
0.194625
0.194728
-0.135505
-0.15244
-0.175147
-0.18592
0.379601
0.331986
0.369823
0.385034
-2.06358
-2.06811
-0.74587
-1.0793
13.4457
14.598
-1.48546
-1.46815
-1.53776
-1.54615
-2.5234
-2.48445
-2.53009
-2.45296
-0.922332
-0.924074
-0.861692
-0.891124
-68.8636
-77.0603
0.619757
0.700984
-5.18551
-3.43265
-10.2701
4.37627
-0.99622
-0.982914
-2.05237
-2.0562
-0.163554
-0.183626
-0.707402
-0.695286
-0.73992
-0.736424
-66.4264
-61.3422
-0.694828
-0.707176
-0.736353
-0.739803
-1.02977
-1.02052
-2.85226
-2.85144
-0.156624
-0.142142
0.263499
-3.50106
-3.67807
-2.63747
-2.63396
-0.66169
-0.665081
-0.49908
-0.584313
-2.84905
-3.06021
-1.09972
-1.08074
-1.10019
-1.06915
-1.86321
-1.82197
-1.77027
-1.74424
-2.10682
-2.08506
-1.82096
-1.86302
-1.74326
-1.76894
-2.84113
-2.82417
-2.82417
-2.84112
-1.11452
-1.12156
-1.12667
-1.13628
-1.00515
-1.35118
-0.939528
-0.949351
-0.937257
-0.958449
-1.74103
-1.7362
6.48429
3.99572
6.927
4.44661
-0.274086
-0.301802
0.317456
0.368672
0.342063
0.470583
0.320825
0.321336
0.525271
0.361297
0.0728372
0.101616
-1.25332
-1.26998
-1.11026
-1.10588
-1.11225
-1.1037
-0.793109
-0.809551
-0.778049
-0.802705
-0.222972
-0.399972
-4.48075
-4.18842
0.193609
0.220235
0.175796
0.20971
-0.453691
-0.442387
-0.718598
-0.768856
-0.764944
-0.879429
-0.197743
-0.234495
-0.174793
-0.240061
-0.844835
-0.829535
-0.605344
-0.649562
-0.560659
-0.597179
-1.74414
-1.70877
-1.7954
-1.76034
-0.557178
-0.583528
-0.580116
-0.645177
-2.49855
-2.52025
-2.21513
-2.24678
0.0767301
0.0647718
0.0387159
0.0366863
-2.21515
-2.24671
-0.67109
-0.673998
-0.655817
-0.646503
-0.829413
-0.844826
0.320278
0.312209
-0.837494
-0.841987
-0.817947
-0.813134
-1.97118
-2.06848
-44.2309
-36.1678
-72.1361
-70.1723
-1.90527
0.0690575
0.0760794
0.0764134
-1.17653
-1.15765
-2.42098
-2.39213
-2.47668
-2.40082
-0.378642
-0.359883
-0.403482
-0.37398
-0.767557
-0.78159
-0.747844
-0.755072
-0.744945
-0.763139
-2.34359
-2.31345
-0.984764
-0.988689
-0.0456042
-0.0212232
-0.124942
-0.016022
0.00446144
0.00265164
0.0180301
-0.0618189
-2.34364
-2.31351
-2.04401
-2.05003
0.157878
0.165891
-2.72301
-2.72313
-2.73855
-0.425672
-0.427754
-0.511941
-0.566271
-0.751206
-0.859774
-0.802924
-0.646564
-0.735043
-0.773419
-0.711672
-0.749594
-3.52307
-4.47862
-4.03768
-8.728
-404.892
-393.028
-0.41244
-0.410932
-0.779157
-0.779078
-0.811696
-0.808666
-0.779418
-0.786428
-1.14838
-1.15651
-3.23301
-3.272
-1.01038
-1.01985
-1.00671
-1.02342
-0.967344
-0.95895
-0.958927
-0.96724
-0.931496
-0.916413
-0.0771987
-0.0951926
-0.425618
-0.427791
-2.33217
-2.35376
-2.33278
-2.35346
-333.848
-337.957
0.311749
0.336627
0.351111
0.342254
-3.20446
-3.25687
-1.96473
-1.97165
-1.00105
-1.04287
-0.892407
-0.943017
-1.39915
-1.40537
-1.33503
-1.4138
-1.74352
-2.19407
-2.32002
-2.28772
0.0498852
-0.489588
-0.62214
0.050122
0.308952
0.332383
-0.678558
-0.694615
-0.683151
-0.707273
-1.94515
-1.93553
-2.43269
-2.41431
-2.43712
-2.40478
-1.96458
-1.97152
-2.36194
-2.34905
-377.982
2.67364
1.3184
1.82162
0.226549
0.207067
-1.42167
-1.38251
-0.98688
-1.00498
-2.34863
-2.32917
-1.82506
-1.80866
-1.88225
-2.3486
-2.32922
-3.81503
-3.38089
-2.30665
-2.28669
-0.126792
-0.143183
-0.668166
-0.683616
-1.65673