/*--------------------------------*- C++ -*----------------------------------*\
| =========                 |                                                 |
| \\      /  F ield         | OpenFOAM: The Open Source CFD Toolbox           |
|  \\    /   O peration     | Version:  v2012                                 |
|   \\  /    A nd           | Website:  www.openfoam.com                      |
|    \\/     M anipulation  |                                                 |
\*---------------------------------------------------------------------------*/
FoamFile
{
    version     2.0;
    format      ascii;
    class       surfaceScalarField;
    location    "0.05";
    object      phi;
}
// * * * * * * * * * * * * * * * * * * * * * * * * * * * * * * * * * * * * * //

dimensions      [0 3 -1 0 0 0 0];
oriented        oriented;


internalField   nonuniform List<scalar> 
49400
(
-5.65811e-06
1.53768e-09
5.60955e-06
4.7023e-08
1.30506e-05
3.59527e-06
-2.2304e-05
1.28553e-05
1.96859e-07
-3.42749e-06
1.73461e-05
-8.30905e-06
2.02431e-05
-2.00753e-05
-2.07819e-05
5.09832e-05
-3.41878e-07
8.10898e-06
1.95983e-05
-5.00113e-05
-1.53045e-07
-6.30039e-07
-1.22792e-05
2.4288e-07
1.21306e-05
-9.42771e-08
2.62939e-05
1.15492e-05
-5.01222e-05
2.59068e-05
-1.31259e-05
1.50812e-06
2.37484e-05
-1.32639e-05
4.36482e-08
2.946e-05
-3.11748e-05
5.68749e-05
-2.68146e-05
4.34366e-07
2.63782e-05
2.12197e-09
9.16521e-06
1.56184e-05
-5.15983e-05
4.87443e-07
9.11214e-06
4.11614e-05
2.27409e-05
-4.82839e-05
1.73062e-05
5.02333e-05
7.68004e-06
-7.39357e-06
2.00974e-07
-3.68835e-06
2.04805e-05
6.23596e-06
9.11137e-06
1.98538e-05
8.84993e-06
4.62411e-07
-2.00062e-05
4.93367e-05
3.10006e-07
-3.71328e-07
3.5848e-06
-1.21788e-06
-1.99558e-06
5.8018e-06
-2.03191e-06
-4.14122e-06
-4.36174e-06
-6.40252e-06
-1.24778e-06
3.56996e-07
-3.27102e-07
7.40975e-07
-4.02066e-06
-4.22783e-06
2.23085e-07
-9.88938e-06
1.9568e-06
2.32616e-06
2.59011e-06
-6.87307e-06
6.25154e-07
2.80614e-06
-1.4745e-06
2.30582e-06
6.45495e-07
-1.90142e-06
-2.30582e-06
6.51306e-06
-2.72709e-06
1.47116e-06
-7.54191e-07
1.25451e-06
-8.91174e-07
9.55241e-07
-5.7249e-07
-9.62111e-07
5.7936e-07
-1.79689e-06
-2.20725e-07
2.97286e-06
-8.62699e-07
-1.50668e-06
1.81766e-06
2.61022e-07
-3.0408e-06
7.90955e-07
1.60607e-06
-1.18189e-06
1.75213e-06
-1.78357e-06
-2.40514e-07
-6.38538e-06
6.79739e-06
-1.71494e-07
-6.63291e-06
7.27972e-06
-8.87327e-07
1.61008e-06
-1.46284e-05
-7.32486e-06
-4.92828e-06
1.95329e-05
-7.90424e-06
-3.07945e-07
-4.84602e-06
6.71513e-06
-1.11402e-05
-1.13989e-05
-1.35061e-05
-6.48123e-06
3.13861e-05
-5.61207e-06
-1.32222e-05
7.43545e-06
-2.01319e-05
1.01376e-06
1.02595e-05
1.03084e-05
-3.37901e-05
1.71274e-05
5.67489e-07
8.19737e-06
-1.80209e-05
1.88436e-05
5.86887e-08
1.38698e-06
-1.46344e-08
-1.43103e-06
1.53544e-06
-1.67519e-06
1.98433e-07
-8.8728e-07
3.8097e-06
-1.85554e-06
1.64906e-06
1.91843e-07
1.27748e-06
-4.56405e-06
1.25251e-06
-1.65022e-06
2.01429e-06
5.36593e-07
6.62745e-06
-3.67229e-06
-3.49176e-06
4.51069e-06
-3.99359e-06
1.94928e-08
-1.68288e-06
1.2821e-05
5.59524e-06
1.14592e-06
-1.07348e-05
2.80919e-06
2.80554e-06
-4.77278e-06
5.89909e-06
-7.29914e-06
-7.57067e-06
-1.29451e-05
-8.80896e-06
2.93247e-05
3.60088e-07
-6.94611e-06
-9.84655e-07
-1.47501e-05
2.16513e-06
8.87598e-06
3.80254e-06
-1.96246e-05
9.45217e-06
-1.56085e-06
-1.30271e-05
1.36703e-05
-2.39747e-05
-8.88203e-07
-4.54434e-07
3.70073e-07
9.72563e-07
1.73683e-06
2.92815e-06
-5.55319e-06
2.19948e-06
-9.17084e-07
-9.25231e-08
-1.47522e-06
1.93782e-06
-2.22248e-06
3.10252e-06
1.07222e-06
-3.66546e-07
1.79648e-06
2.7133e-07
8.61333e-07
1.40573e-06
-2.53839e-06
7.15387e-07
1.3217e-06
-1.76575e-06
8.52688e-07
7.24033e-07
-1.17153e-07
-1.33926e-06
2.3091e-06
-1.4052e-06
2.01208e-06
-1.29441e-07
1.11877e-07
-1.28909e-07
2.96497e-07
-4.10975e-07
-2.71727e-07
3.86205e-07
-8.94768e-07
2.70047e-07
9.21217e-07
1.06139e-07
-1.41188e-06
7.33909e-07
-2.71529e-07
-7.34107e-07
6.47729e-09
1.11364e-06
-4.80858e-07
7.57382e-07
-6.46248e-07
3.32413e-07
2.37313e-08
-2.88296e-07
-6.78478e-08
-2.45267e-07
-7.58358e-08
6.53516e-07
3.49186e-08
-2.56454e-07
-4.0274e-07
2.78639e-07
1.59019e-07
1.70645e-07
-8.29839e-07
-2.99372e-07
5.02176e-07
-4.17023e-07
2.97865e-07
-1.07284e-07
-2.92467e-07
1.01886e-07
-8.35312e-07
-2.56264e-07
1.38944e-06
-1.41906e-07
-8.0069e-07
-1.28042e-06
1.20682e-06
-6.8307e-08
1.10661e-06
-3.18773e-06
2.1546e-07
5.98688e-07
1.16602e-06
1.68191e-07
5.32383e-07
1.23432e-06
9.98943e-08
3.15614e-06
3.45218e-07
-9.54376e-08
-5.03072e-07
2.53292e-07
-5.44805e-07
-4.76386e-07
1.36641e-06
-1.32365e-07
-5.07878e-07
-6.27174e-07
6.77942e-07
-1.83132e-07
6.67972e-07
-1.80302e-06
-1.72032e-07
3.73587e-07
-7.13227e-09
1.56737e-07
2.08238e-06
-6.25742e-07
-1.61337e-06
2.02745e-06
-1.49713e-06
-1.56467e-06
-1.48505e-06
1.73668e-07
-2.11792e-06
6.6562e-07
8.2577e-07
3.42748e-07
-1.83414e-06
-1.66277e-08
7.12115e-07
-2.98673e-08
6.97505e-07
1.11637e-07
-9.03558e-07
-3.61808e-07
1.97748e-06
-7.34558e-07
-1.98868e-07
6.79413e-07
-1.07122e-06
1.01511e-06
6.30333e-07
7.39241e-07
-6.36738e-07
-7.32837e-07
1.52499e-07
-1.18145e-06
1.65928e-06
-9.62806e-07
1.85455e-06
-3.28231e-07
1.40643e-06
-1.71493e-06
1.30009e-06
-2.36116e-06
4.02683e-07
-2.8404e-07
8.46303e-07
1.80099e-06
5.72421e-07
-8.63442e-07
-1.50997e-06
-9.5683e-07
-2.20905e-07
2.97872e-06
5.79602e-07
-9.64012e-07
-1.82006e-06
7.91124e-07
1.60854e-06
2.61555e-07
-3.04563e-06
-1.18459e-06
1.75481e-06
-1.78648e-06
-2.66715e-07
1.61004e-06
1.3905e-06
-2.73383e-06
1.07546e-06
1.95781e-06
-3.29998e-06
1.20722e-06
1.47828e-06
2.10918e-07
-1.85267e-06
2.84897e-06
-2.31706e-06
4.00626e-06
4.4252e-07
-8.01772e-07
-1.96464e-08
2.83463e-06
-1.47825e-06
-2.5889e-06
1.23251e-06
-4.83918e-06
-8.08992e-07
8.48281e-06
-2.13633e-06
-4.1811e-06
3.79755e-06
8.63997e-07
-7.25044e-06
3.66995e-06
1.36012e-06
-3.04459e-06
5.90555e-06
-4.31693e-06
6.40082e-07
-2.87309e-06
-1.77841e-06
4.01142e-06
-3.17154e-06
1.12156e-06
2.69006e-06
-3.35123e-06
-2.6934e-06
5.24537e-06
1.10003e-06
-8.12381e-06
1.21542e-06
8.04137e-06
-3.2686e-06
5.60558e-06
-5.5198e-06
6.69571e-06
3.65228e-06
-2.46132e-06
-7.88667e-06
-1.9202e-06
1.25751e-06
7.3584e-06
4.3683e-06
-2.63622e-06
-8.00229e-06
1.20725e-06
1.11633e-05
-1.47864e-07
-1.04906e-05
-4.89769e-06
7.36245e-06
-7.50687e-06
1.01345e-06
1.89967e-06
1.19323e-06
-4.10636e-06
5.44212e-07
2.9719e-06
-2.50266e-06
2.25996e-06
1.83921e-07
-1.92981e-06
-3.06897e-06
7.25875e-06
-3.03537e-06
1.28948e-06
-1.00449e-06
9.07426e-07
-2.84663e-06
-8.70353e-07
-3.35308e-07
3.36452e-07
8.69209e-07
2.9778e-07
1.14062e-07
-1.28219e-06
-3.066e-07
2.69072e-07
9.3394e-07
-4.78477e-07
-7.62064e-07
9.1357e-08
1.11166e-06
6.54098e-07
-1.01851e-06
1.08191e-06
8.34619e-07
1.49017e-06
1.88985e-07
-2.51377e-06
3.92303e-07
8.28543e-07
-3.86227e-07
7.73775e-07
1.1087e-06
-1.48678e-06
-2.29777e-07
2.5451e-06
-7.98804e-07
-1.0742e-06
1.11168e-06
-1.7215e-06
1.65568e-06
-2.23496e-06
-3.1411e-06
-1.17841e-06
6.55447e-06
-3.66608e-07
4.70906e-07
-2.33925e-06
-2.62875e-06
-8.78952e-07
-3.69703e-06
2.40391e-06
1.76402e-06
1.36608e-06
-7.40236e-06
2.63655e-06
-3.89922e-06
3.86204e-06
-1.51581e-06
-9.52261e-07
1.53336e-06
9.34716e-07
9.19915e-07
2.19984e-06
-4.63556e-06
2.54797e-06
-2.58032e-06
-7.48782e-07
-1.60249e-06
3.88463e-06
-2.15946e-06
2.34539e-06
9.93046e-07
-9.52672e-07
1.93853e-06
-2.48775e-07
-1.16767e-06
3.06693e-07
1.10975e-06
-6.63014e-07
-3.147e-07
7.28939e-07
-2.35568e-08
-1.80712e-06
1.21872e-06
-3.8258e-07
-1.15084e-06
7.0251e-08
1.87741e-06
8.57472e-07
-1.26361e-06
1.23442e-06
-8.69199e-07
1.21062e-06
5.46833e-06
-5.80974e-06
2.70282e-06
2.15439e-06
-5.72641e-06
5.34042e-08
3.86003e-06
2.61911e-06
-3.00634e-06
4.40633e-07
-4.22209e-06
1.07012e-05
-1.75247e-07
-6.76702e-07
1.07099e-06
-6.33301e-06
3.07288e-06
6.58485e-06
-3.32472e-06
1.2167e-05
2.34599e-06
-2.0846e-05
9.09807e-06
6.14177e-06
-7.80286e-06
-5.1803e-07
1.49057e-05
-2.28182e-06
-8.84576e-06
8.74098e-06
-8.67681e-06
1.7321e-05
2.00993e-06
-2.20397e-07
-1.84242e-06
5.28822e-08
-2.76032e-06
-1.21093e-06
5.98118e-06
-2.03842e-06
-9.42299e-07
2.17007e-06
9.3242e-07
-4.94491e-06
2.10696e-06
1.15989e-07
-1.8917e-06
2.78773e-06
-2.99769e-06
2.86645e-06
4.35547e-06
4.77352e-06
-1.19954e-05
-1.18949e-06
7.13368e-07
3.34257e-06
4.4032e-06
-1.23723e-06
4.84273e-06
6.44157e-07
-5.28501e-06
1.34703e-05
-2.37653e-07
1.44009e-07
2.32126e-08
2.63713e-08
-1.93593e-07
-3.21159e-07
-1.47376e-07
6.12544e-07
-8.81392e-08
-2.09807e-07
-1.48548e-07
2.7543e-08
3.91415e-07
-7.33556e-07
3.30819e-07
2.52112e-06
1.94427e-06
3.11632e-07
-4.77702e-06
-4.93544e-08
1.14011e-06
1.43036e-06
3.85474e-07
1.50944e-06
1.02341e-06
7.57483e-07
-1.39542e-06
1.30918e-06
1.22367e-06
-5.95768e-07
3.04506e-06
4.73347e-07
-2.99352e-07
-7.44819e-07
-7.74568e-07
1.81874e-06
1.824e-06
-1.33235e-06
-7.91005e-07
4.98093e-07
5.81089e-07
-3.38367e-07
1.86526e-06
-1.0288e-06
1.4664e-06
-1.15279e-07
6.48194e-07
5.76548e-07
3.33509e-06
-1.44198e-06
4.94866e-06
-6.84177e-06
-2.33663e-06
1.38356e-06
4.28816e-06
2.27234e-06
-6.05095e-06
5.47944e-06
-9.41227e-06
5.31639e-06
-5.93244e-06
1.57e-05
-1.62035e-06
-2.03976e-06
-6.08396e-06
1.72187e-06
2.97301e-06
-2.52673e-06
-2.16815e-06
5.61544e-07
-3.74846e-06
4.90879e-06
-4.72528e-06
8.25983e-06
2.03871e-06
5.05903e-06
-9.62447e-06
3.5472e-06
-3.67664e-06
-1.434e-06
1.23274e-06
-1.10025e-06
-7.48162e-06
-2.15345e-06
1.5438e-07
9.48069e-06
3.22908e-06
-3.62616e-06
-7.08453e-06
4.88569e-06
-3.81006e-06
-9.65634e-06
2.05963e-06
1.24824e-05
3.49107e-07
-1.38155e-05
5.22853e-06
-8.50559e-06
7.44254e-06
-7.34318e-07
-5.18927e-06
1.17908e-06
4.74451e-06
-7.10136e-06
2.46862e-06
3.89841e-06
-1.5792e-06
-1.07114e-05
5.19254e-07
-1.9142e-06
2.57403e-06
-3.12048e-06
8.38424e-06
-2.67102e-06
2.01916e-06
-6.16443e-06
5.40207e-06
1.3132e-05
-3.49172e-06
-1.50424e-05
5.48829e-06
-5.62396e-06
5.53774e-06
1.22513e-06
1.73952e-05
1.4061e-05
-1.85174e-06
-1.78332e-05
1.98211e-06
1.76166e-05
-8.44468e-06
1.16519e-05
-1.37881e-05
9.69408e-08
-8.23183e-07
-1.2046e-07
8.46702e-07
-1.57142e-06
1.07196e-06
5.964e-07
3.54267e-07
-2.74887e-06
1.2511e-06
-7.66241e-07
-6.05319e-07
-1.49079e-07
2.24688e-06
-1.42111e-06
2.34399e-06
-1.83309e-06
-1.03302e-06
-8.97372e-07
-6.04057e-07
2.53445e-06
-3.18929e-08
-1.10226e-06
1.0114e-07
-8.94781e-07
-3.4484e-08
1.1456e-06
6.96829e-07
-2.73721e-06
1.04292e-06
6.8197e-08
8.80598e-07
-1.28603e-06
1.31946e-06
1.72441e-06
6.14552e-07
-6.2543e-07
-1.71353e-06
-9.33133e-07
1.83239e-08
2.63922e-06
6.07078e-07
-9.25658e-07
-1.92043e-06
5.34597e-07
1.99291e-06
3.50667e-10
-2.84644e-06
-1.20472e-06
1.75764e-06
-1.8298e-06
-6.62841e-08
-5.02045e-07
-7.56408e-07
1.32474e-06
-4.61001e-07
-7.84112e-07
1.17883e-06
-4.98002e-07
-4.65043e-07
8.33164e-08
6.25945e-07
-1.20726e-06
8.35854e-07
-1.21758e-06
1.41599e-07
-2.99766e-07
2.21045e-07
4.4339e-07
1.84346e-07
-1.89842e-07
-4.37894e-07
-2.95769e-07
-5.41841e-07
1.281e-06
-5.8836e-07
4.76937e-07
-2.4331e-07
5.54132e-07
-5.00663e-07
3.63815e-07
-1.04502e-06
-1.96946e-07
2.09237e-07
-4.21491e-07
-1.54495e-07
3.39258e-07
-4.30436e-07
2.45674e-07
4.30727e-07
-1.50346e-07
-4.34877e-07
-3.74728e-07
1.14471e-06
-3.2046e-07
5.76214e-07
-4.06099e-07
4.79921e-07
-1.23526e-06
-1.5484e-07
3.56325e-07
-1.05354e-07
7.59154e-07
5.60447e-07
3.00184e-07
-1.61979e-06
1.54023e-09
6.27099e-07
1.30515e-07
5.49707e-07
1.228e-08
-5.95618e-07
-2.84959e-07
1.43028e-06
-5.17027e-07
-6.63106e-08
-4.87277e-07
8.29417e-07
-7.04119e-07
5.02963e-07
-1.34076e-07
-5.18367e-07
1.49481e-07
-5.13344e-07
-3.14163e-07
1.33047e-06
-7.70164e-08
-5.70404e-07
-7.54275e-07
7.78465e-07
-1.01206e-07
5.20125e-07
-1.8448e-06
-4.37455e-07
9.01757e-07
-4.35698e-07
-1.77798e-08
7.38608e-07
-6.41339e-07
-7.94891e-08
5.27028e-07
-4.92448e-07
-5.23599e-08
-5.02225e-07
1.76786e-06
5.36447e-07
3.01575e-07
4.79477e-07
4.61061e-09
-3.81158e-07
3.58409e-07
-7.20922e-07
-2.65436e-08
-7.81098e-07
6.36095e-07
1.71547e-07
-5.9975e-07
1.09974e-09
5.72107e-07
4.2946e-07
-1.81031e-06
6.72933e-07
-5.37815e-07
-1.34018e-07
-3.24081e-07
1.56912e-06
-4.27954e-07
7.39968e-07
-5.36309e-07
-6.68723e-07
-1.76051e-08
-2.83964e-08
7.14725e-07
8.20583e-07
3.36123e-07
-1.82543e-06
6.96405e-07
1.06573e-07
9.03217e-07
-7.32705e-07
-1.98909e-07
-3.60406e-07
1.97835e-06
6.77411e-07
-1.07399e-06
1.01341e-06
-8.51511e-07
-3.21304e-07
8.74834e-07
2.97981e-07
7.39171e-07
8.50844e-07
-2.44153e-06
1.24886e-06
-8.3099e-07
-7.53329e-07
-7.21422e-07
2.34958e-06
-1.08485e-06
6.29498e-07
7.46786e-07
-9.80787e-07
1.27422e-06
-7.17037e-07
-8.59915e-07
7.23377e-07
8.53575e-07
-2.72269e-07
1.32086e-06
-1.76563e-06
1.4039e-06
-2.53608e-06
1.22839e-07
-1.39877e-06
1.99931e-06
-1.34098e-06
2.31739e-06
-1.30445e-07
1.10324e-07
-1.25316e-07
1.12316e-06
-5.90799e-07
-1.1872e-06
6.54844e-07
-2.08291e-06
-4.40849e-07
3.64692e-06
-1.1962e-06
-1.47752e-06
1.92601e-06
4.3278e-07
-3.54599e-06
9.03891e-07
1.67696e-06
-1.14899e-06
1.61203e-06
-1.9124e-06
3.2842e-06
1.37463e-06
-3.48086e-06
-1.17796e-06
-2.35718e-06
-3.60173e-06
9.24311e-06
-4.51558e-06
3.53303e-06
3.03915e-06
4.49042e-06
-1.10104e-05
4.33494e-06
-2.47375e-06
-1.32734e-06
2.06055e-06
-1.35249e-06
3.91788e-07
2.74447e-07
1.73452e-07
-8.39687e-07
-4.89677e-08
-2.85366e-07
7.26122e-07
2.07346e-07
1.81336e-08
-3.07163e-07
-2.4139e-07
7.55899e-07
8.13121e-07
-1.10215e-06
-7.59717e-09
5.35352e-07
-7.55355e-08
-1.23091e-06
-3.56112e-07
-3.74934e-06
5.33636e-06
3.40287e-06
-2.90086e-06
-1.73291e-06
-8.513e-06
1.15598e-05
3.2152e-06
9.31407e-06
-1.54301e-05
6.5344e-06
-5.05212e-06
4.59236e-06
-3.79129e-06
7.37742e-06
-1.59939e-06
-9.34819e-07
-3.6443e-07
2.89864e-06
2.86498e-08
-8.61505e-07
-7.66531e-07
-6.70348e-07
-2.35822e-07
5.94595e-07
4.2668e-08
-1.30761e-06
1.11385e-06
-7.55074e-07
1.18319e-06
-2.00203e-06
1.93261e-06
4.91405e-07
3.73799e-06
1.17349e-06
-5.40289e-06
2.57738e-07
-7.71494e-08
3.10817e-07
9.70924e-07
3.0248e-06
2.64693e-07
-4.39132e-07
9.72904e-08
-1.23779e-07
6.99288e-07
5.92746e-07
-1.77191e-06
7.4003e-07
-8.90369e-07
1.35934e-06
-3.8994e-06
3.97995e-06
-4.49781e-06
4.8739e-07
3.4993e-07
-5.44787e-08
1.24116e-06
1.65479e-06
7.65358e-07
-1.6419e-07
-9.64408e-07
3.63239e-07
-1.04031e-06
-3.15653e-07
2.12132e-06
-1.0933e-06
-1.11205e-07
2.12009e-06
9.55971e-07
-4.04046e-06
1.16831e-06
1.31502e-06
-1.34524e-06
2.19789e-06
-1.48256e-06
-2.49311e-06
-2.3176e-07
2.26867e-06
4.56202e-07
1.61219e-06
-5.58786e-06
1.26922e-06
-1.10727e-06
3.35929e-06
-3.52891e-06
-2.78333e-06
-3.22632e-06
9.53856e-06
1.08344e-06
-5.73262e-06
1.12027e-06
-2.85181e-06
1.15192e-06
2.43582e-06
7.7403e-07
-6.06165e-06
2.85345e-06
7.34281e-07
3.29318e-06
-8.25177e-06
2.92031e-06
-3.88857e-06
-2.53247e-06
5.58625e-06
8.34791e-07
2.51556e-06
3.64061e-06
-1.00447e-05
8.06667e-06
-8.08358e-06
-4.60108e-06
-4.45587e-06
1.46432e-05
-4.17687e-06
4.10573e-07
2.1359e-06
-2.67216e-06
5.7467e-06
5.21322e-06
-2.4244e-06
-4.07704e-06
1.28821e-06
-9.32978e-06
-1.2532e-06
1.57962e-05
-2.80183e-06
-8.95235e-06
7.67084e-06
-1.95424e-06
-9.79363e-06
3.76469e-06
5.19436e-06
-7.46876e-06
9.98025e-06
-1.22248e-05
2.59761e-06
-1.28628e-06
-2.1304e-06
8.19071e-07
-4.30106e-06
-4.88034e-07
7.3867e-06
-9.54207e-07
-4.63314e-06
3.85704e-06
-1.03857e-07
-5.88358e-06
1.63438e-06
3.04173e-06
-2.32698e-06
3.47333e-06
-3.38504e-06
-1.46534e-07
-6.57066e-07
1.46035e-07
6.57564e-07
-6.2434e-07
8.02819e-07
-3.25013e-07
6.61302e-07
-1.94271e-06
5.94274e-07
-7.97935e-07
3.49696e-07
-5.73266e-07
1.8251e-06
-3.92696e-07
6.2225e-07
-5.29329e-07
4.87472e-07
6.69744e-07
7.13652e-07
-1.87087e-06
2.39047e-07
8.8379e-07
-6.35365e-07
6.66579e-07
2.42213e-07
-5.1267e-07
-7.39347e-07
1.9186e-06
-9.97491e-07
7.27033e-07
-4.11476e-07
5.5592e-07
-6.95315e-07
3.55924e-07
5.95662e-07
-3.14957e-07
-6.36629e-07
2.92934e-07
-9.28228e-07
9.91218e-07
-8.6736e-07
1.75596e-06
-3.51833e-07
7.01186e-07
-6.6431e-07
7.90843e-07
-1.7793e-06
4.7933e-08
-1.85319e-07
-1.18241e-07
-2.32597e-07
-3.41368e-07
-3.28015e-07
9.0198e-07
-1.76131e-07
-4.45823e-07
3.89358e-07
-3.14553e-07
-2.02946e-07
1.35072e-07
3.13137e-07
-7.62763e-07
4.74857e-07
-5.4273e-07
1.90551e-07
-3.23237e-07
3.37393e-07
-2.4584e-07
-4.62222e-07
-1.89504e-07
8.97565e-07
-6.08048e-08
-2.3396e-07
4.89255e-08
-3.87392e-07
-1.35634e-07
5.91388e-07
7.29366e-07
-1.70815e-06
7.02146e-07
-2.46392e-07
-1.26437e-07
6.39079e-07
3.68968e-07
-2.49948e-08
7.54668e-07
-5.42602e-07
-1.87071e-07
5.89263e-07
-5.49803e-07
-6.4455e-08
-1.5579e-07
1.49972e-06
7.89147e-07
1.96176e-07
-1.53513e-06
6.31972e-07
9.27202e-08
7.81894e-07
-1.12832e-06
1.25808e-06
-8.82436e-07
-1.04779e-06
-1.03931e-06
2.96953e-06
-2.31373e-07
-1.14631e-06
4.95252e-07
-9.94914e-07
-2.84248e-07
9.67995e-07
1.30691e-06
-3.26981e-06
1.51252e-06
-8.28773e-07
3.89694e-07
-2.29102e-07
8.62904e-07
-9.0227e-07
-1.11928e-06
-1.64146e-06
3.66301e-06
-3.40079e-07
-1.6737e-06
1.11151e-06
-1.05503e-06
-4.04334e-07
6.88084e-07
1.21846e-06
-2.96158e-06
1.37311e-06
-1.08936e-06
2.57473e-07
-7.12712e-07
-1.08732e-08
1.56279e-06
1.82909e-06
-1.54454e-06
-1.84734e-06
1.02681e-06
-4.37608e-06
4.91206e-06
-2.6419e-06
5.49781e-06
-1.12869e-06
3.13292e-06
-3.54876e-06
1.52427e-06
-4.50031e-06
3.09004e-06
-5.94184e-06
3.58105e-06
4.76364e-06
-5.19382e-06
1.41369e-05
-1.37067e-05
-7.5216e-06
6.68206e-06
5.60317e-06
9.53028e-06
-2.22457e-05
-8.7021e-07
-1.15692e-05
1.91215e-05
-1.13598e-05
1.60927e-05
-3.26663e-06
5.83434e-06
-5.09612e-06
-2.03822e-06
1.10798e-06
5.5796e-06
-4.64936e-06
2.26934e-06
4.12879e-06
-8.43635e-06
1.24998e-06
2.12734e-06
2.40035e-07
-3.35955e-06
4.3695e-06
-4.29552e-06
6.66289e-06
-4.88186e-07
1.25743e-06
7.95887e-07
-2.63765e-06
-1.50106e-06
3.5212e-07
3.78659e-06
1.3963e-06
-1.05471e-06
-2.97924e-06
1.45292e-06
-1.55769e-06
-3.11952e-06
-7.46033e-07
5.31848e-06
-3.41847e-06
-1.25874e-06
2.68255e-06
-7.15572e-06
2.28863e-06
6.54066e-07
5.73728e-07
1.11219e-07
-1.33901e-06
-2.46858e-07
1.06153e-09
8.99862e-07
1.12343e-06
-7.96565e-07
1.47051e-06
-8.69137e-07
-6.00307e-07
-4.18015e-07
2.78838e-06
-1.14985e-06
1.85527e-06
-1.90777e-06
-1.4814e-06
-1.49089e-07
1.25595e-06
3.74534e-07
1.33422e-06
3.19255e-07
-3.13487e-06
1.54702e-06
-3.61887e-07
-2.52645e-06
-9.14332e-07
4.9878e-06
-1.17306e-06
-1.71528e-06
1.24838e-06
-2.10218e-06
1.59e-06
-3.73204e-06
4.69312e-06
2.93359e-06
-3.89466e-06
8.46785e-06
-5.50907e-06
-6.69083e-06
-1.55866e-06
1.47196e-05
-7.03737e-06
3.9254e-06
6.04556e-06
2.06005e-07
-1.1138e-05
5.57005e-06
-1.08731e-05
7.93679e-06
2.86306e-07
-1.43895e-06
-2.16202e-07
1.36884e-06
-2.47566e-06
2.08279e-06
6.79179e-07
-1.29492e-06
-2.61969e-06
2.01001e-06
-2.85234e-06
6.26127e-07
-9.45982e-07
4.32484e-06
-9.194e-07
2.05621e-06
-5.06667e-06
-1.582e-07
1.24252e-06
2.56951e-07
-1.34127e-06
1.83202e-06
-2.65745e-06
6.67237e-07
-1.98589e-06
5.06043e-06
-1.45462e-06
1.94769e-06
-2.36124e-07
2.55391e-06
-5.3498e-06
-1.16895e-07
1.33472e-08
-1.55094e-07
-1.92071e-06
1.47967e-07
2.33082e-06
-5.58087e-07
1.73814e-06
1.30378e-06
-4.96263e-06
9.78731e-09
1.87632e-06
2.34227e-06
-2.08964e-06
-2.42846e-07
-1.38225e-06
5.60085e-06
1.66038e-06
-2.44624e-06
2.60895e-06
2.70592e-07
-1.09035e-06
1.64252e-06
-8.22764e-07
-1.17605e-06
1.23997e-06
2.06668e-07
1.08851e-06
-3.35491e-06
-1.3401e-06
-1.13401e-06
3.71408e-06
-1.62652e-06
4.93085e-07
-1.01629e-06
1.5248e-06
-1.55429e-06
-1.19483e-06
-3.79422e-07
4.7525e-07
1.099e-06
6.34999e-07
3.59806e-08
-1.86581e-06
-4.05595e-07
6.61173e-07
1.2686e-06
-4.33854e-07
-1.24034e-06
2.47184e-08
1.90505e-06
9.2165e-07
-1.31952e-06
1.42162e-06
-6.69662e-07
-8.58869e-08
3.75943e-07
3.79606e-07
4.44764e-07
1.07005e-07
-1.22143e-06
4.49381e-07
-9.0504e-08
-6.43921e-07
-1.40773e-07
1.23407e-06
-4.22486e-07
-3.11938e-07
5.13026e-07
-8.28508e-07
7.48196e-07
1.89158e-07
-2.23514e-07
-4.9434e-07
5.28696e-07
-4.48122e-07
-4.56383e-07
1.09366e-06
-2.26626e-07
-4.4501e-07
-2.59555e-07
5.42105e-07
-5.09176e-07
5.93069e-07
-1.29763e-06
-1.24963e-08
9.82181e-08
8.62339e-08
-2.60555e-07
-1.1449e-08
2.05257e-07
6.67466e-08
1.79238e-07
5.39212e-08
-4.93714e-07
1.81161e-07
-1.33715e-08
-3.84189e-07
-3.16342e-07
9.05788e-07
-2.94303e-07
-2.31388e-08
1.54494e-07
-3.94876e-07
1.93131e-08
-1.17907e-08
2.43736e-07
-2.45317e-07
3.74439e-07
-2.77972e-07
-1.08258e-07
6.37488e-07
2.00095e-07
-9.39126e-07
-4.72753e-07
4.68304e-07
1.00643e-08
-4.29307e-07
-4.90608e-08
-3.05046e-07
-1.20437e-07
8.93787e-07
-2.47901e-07
-4.70811e-08
7.0322e-07
6.56234e-07
-1.78876e-06
7.49779e-07
-9.56197e-08
-3.16666e-07
9.46008e-07
9.16676e-08
4.59748e-07
-5.938e-08
-4.47449e-07
-3.54609e-07
-4.73339e-07
5.0887e-07
-9.49113e-08
-8.2912e-07
1.10027e-06
-9.74084e-07
-3.28935e-07
-8.32105e-07
2.13512e-06
-8.89589e-08
-5.99317e-07
-2.85808e-07
1.88622e-06
-1.84646e-06
1.95168e-06
-1.10505e-06
-4.38082e-07
1.16785e-06
3.75282e-07
7.05077e-07
1.32101e-06
-3.13114e-06
1.42586e-06
-1.15887e-06
-9.26327e-07
-1.83964e-06
3.93381e-06
-1.73986e-06
1.18881e-06
1.4061e-07
-5.59455e-07
-2.73164e-07
1.5654e-08
-4.43146e-06
4.64817e-06
-2.32357e-07
-5.84952e-06
2.84348e-06
3.0217e-06
6.56776e-07
-1.09378e-05
-4.41659e-06
-2.64401e-06
1.17088e-05
-4.50835e-06
-1.40596e-07
-3.45337e-06
3.65284e-06
-7.30494e-06
6.80105e-07
2.23182e-06
-4.87426e-07
-2.4245e-06
1.82713e-06
-2.91878e-06
1.77176e-06
-1.79182e-06
5.85077e-06
-2.73255e-06
3.4155e-06
-1.17038e-06
3.03753e-06
-8.19457e-06
1.60888e-06
-1.49013e-06
3.23255e-06
-3.34502e-07
-2.61944e-06
1.78304e-06
1.17091e-06
-1.93639e-06
1.76257e-06
-1.60686e-07
1.29494e-06
-2.70704e-06
-1.47719e-06
5.9468e-06
-2.5734e-06
-2.94333e-07
1.67564e-06
-2.9541e-06
1.98149e-06
1.20346e-06
-1.23783e-07
1.46039e-06
-2.54006e-06
-1.20528e-06
1.14353e-06
1.26521e-06
1.78211e-06
-3.11118e-06
3.34005e-07
-2.23185e-06
3.04138e-06
-2.39009e-06
3.9893e-06
-2.49258e-07
-2.00478e-07
-1.17896e-06
-1.61739e-06
-6.73752e-07
-1.78445e-06
4.0756e-06
1.12519e-06
-1.54321e-06
-1.19937e-06
-2.38121e-06
2.83265e-06
1.24252e-07
1.93848e-06
-3.60594e-06
2.44767e-06
-3.52279e-06
6.70027e-07
-1.11275e-06
1.33324e-06
1.47677e-05
-6.12341e-07
-1.45587e-05
4.03342e-07
-1.81023e-05
-9.61097e-06
4.24809e-05
-1.29711e-05
-5.74355e-06
1.68119e-05
6.06283e-06
-3.74334e-05
1.49042e-05
2.31101e-06
-1.45862e-05
1.98794e-05
-2.14944e-05
-6.06549e-06
1.1299e-06
4.53828e-06
3.97312e-07
4.2932e-06
-4.55941e-07
-9.90275e-06
3.24413e-07
5.09869e-06
5.89326e-06
-4.07825e-08
-5.52806e-06
-1.47875e-06
1.24707e-05
4.43303e-06
-4.92975e-06
7.49256e-06
-3.14961e-08
1.17009e-06
1.3572e-08
-1.15216e-06
1.66929e-06
-1.53379e-06
-1.66993e-07
-1.0589e-06
3.89827e-06
-1.12195e-06
1.1653e-06
-2.97767e-08
6.91125e-07
-2.96523e-06
9.29405e-07
-1.77207e-06
1.0358e-06
-1.28884e-06
1.2376e-06
2.14641e-08
1.6809e-06
-5.93497e-06
-1.6202e-06
3.89361e-06
-1.63817e-06
3.9435e-08
-1.72934e-06
2.75392e-06
2.60822e-07
-2.09496e-06
-9.19781e-07
-1.96572e-06
-1.22673e-06
5.94638e-06
-1.81538e-06
1.10474e-07
2.17674e-06
8.85545e-07
-4.87766e-06
2.05994e-06
2.2728e-07
-1.89597e-06
2.72917e-06
-3.10539e-06
5.063e-08
1.92961e-06
3.31518e-06
-5.29543e-06
1.90227e-06
4.24695e-06
-6.0986e-06
2.27289e-06
1.559e-06
-5.09608e-07
-3.83907e-06
6.62157e-06
-2.93654e-06
3.98593e-06
3.26459e-07
8.14225e-08
7.051e-07
2.13471e-06
-1.14702e-06
-4.05966e-06
3.07197e-06
-2.575e-06
-3.70753e-06
8.41723e-06
-4.6543e-07
-3.25659e-06
-6.58017e-06
3.93247e-06
2.18227e-06
1.39676e-06
-1.12335e-05
-3.96303e-06
4.18798e-06
-6.62593e-06
-2.16948e-06
2.96268e-07
1.06483e-06
8.08388e-07
-1.81038e-07
9.19475e-07
-2.90792e-06
7.72091e-07
-6.56862e-07
-3.46932e-06
1.74198e-06
2.79218e-06
4.75708e-07
-3.13664e-06
-2.30134e-06
4.96279e-06
-1.05354e-06
-4.83923e-06
-3.10782e-06
-5.66406e-07
8.51345e-06
1.08627e-06
-2.04434e-06
-3.88115e-06
-2.72126e-06
6.99706e-07
4.60734e-06
6.14866e-07
-7.94346e-06
2.74263e-06
2.56442e-06
3.59173e-06
-5.02121e-06
5.76795e-06
5.42535e-07
-1.25948e-06
-2.80879e-06
3.52573e-06
-1.65473e-06
-2.69801e-06
4.89528e-06
-1.51865e-06
-1.39556e-06
4.83155e-08
3.03758e-06
-4.60455e-06
2.27565e-06
-3.6229e-06
-6.28352e-07
9.67927e-07
-1.16149e-06
1.54004e-06
2.7279e-07
-1.51113e-06
-3.01708e-07
-1.38529e-06
-1.50789e-06
4.43322e-06
-1.9324e-06
8.19899e-07
1.46481e-06
1.71898e-06
-4.69492e-06
2.15645e-06
-9.93346e-07
-8.28597e-07
1.47716e-06
-1.04201e-06
3.50964e-07
-1.35269e-07
-5.69527e-07
3.53831e-07
-4.4708e-07
-5.11415e-07
1.30946e-06
-1.58375e-07
-4.23974e-07
-2.94332e-07
6.14527e-07
-4.78571e-07
4.65425e-07
-1.18373e-06
-1.8114e-07
2.84253e-07
-2.85241e-07
-1.3133e-07
-1.36758e-07
1.37193e-07
1.30895e-07
-4.27789e-08
2.44298e-07
-3.3285e-07
3.33691e-07
-5.13228e-07
-4.10433e-08
-2.1207e-07
3.90307e-07
-2.02313e-07
2.92165e-07
6.44362e-08
-2.24509e-08
1.86058e-07
-1.25222e-07
5.35505e-09
8.13959e-08
3.84714e-08
5.0428e-08
-9.36025e-09
-1.6629e-07
6.31351e-08
-7.35189e-09
-1.42384e-07
-9.24104e-08
3.16191e-07
-7.14375e-08
-3.24753e-08
4.13047e-08
-1.22102e-07
1.20295e-08
-1.66185e-08
3.51146e-08
-2.58479e-08
1.65097e-07
-6.71279e-08
-1.14588e-07
2.12241e-07
-2.27253e-08
-1.69412e-07
-2.11955e-07
1.75239e-07
3.39165e-07
-2.01391e-07
-3.13014e-07
2.30327e-07
-4.44266e-07
3.89179e-07
-3.25283e-07
8.94774e-07
-1.35666e-07
4.72034e-07
-5.37758e-07
3.11931e-07
-7.60611e-07
1.89841e-07
-3.22176e-07
3.36593e-07
-3.79032e-07
2.78772e-07
4.09065e-07
-3.08805e-07
7.09274e-07
-1.00059e-07
-9.88246e-07
1.79786e-07
8.08259e-07
-9.36621e-07
2.09767e-08
1.32471e-06
-1.58707e-07
-1.08672e-06
5.19998e-07
-7.78764e-07
7.20761e-07
-6.00161e-07
3.59727e-07
6.41082e-07
-4.00648e-07
1.11698e-06
-8.16684e-08
-1.63547e-06
3.50965e-07
1.12574e-06
-1.17186e-06
-1.89361e-08
1.83187e-06
-3.31855e-07
-1.24065e-06
7.50042e-07
-1.16356e-06
1.08207e-06
2.96594e-07
2.61976e-06
-2.53504e-06
-3.81312e-07
3.58267e-06
-4.39815e-06
1.11207e-06
-4.57114e-06
-5.36134e-06
7.37567e-07
-7.67076e-06
-3.39287e-06
-1.55959e-06
-8.01664e-06
-1.45845e-06
-2.0792e-06
-8.46449e-08
3.62229e-06
2.61333e-07
-9.36305e-07
-7.83476e-07
1.59301e-07
-1.97716e-06
1.87019e-06
-1.90938e-06
-8.97112e-07
-2.89044e-06
4.67598e-06
-4.29073e-06
-8.17727e-06
-4.13065e-06
-5.36446e-06
-2.61529e-06
-2.29884e-06
-8.87686e-06
-1.13873e-05
-8.69051e-06
-9.43018e-06
2.9508e-05
1.14794e-07
-1.24965e-05
9.94375e-07
-8.52032e-06
-5.53961e-08
8.80394e-06
6.95995e-06
-2.42842e-05
9.73128e-06
-9.82738e-07
5.1042e-06
-1.06408e-05
5.40531e-06
8.07731e-07
5.82593e-07
-6.91023e-07
-6.99302e-07
1.18756e-06
2.29389e-06
-2.67372e-06
2.83659e-07
1.48649e-06
1.40934e-06
-3.43171e-06
2.30604e-06
-1.43516e-06
4.33099e-06
-1.77569e-07
-9.60251e-07
-2.30375e-06
-1.76274e-06
-9.46003e-07
1.61656e-06
1.09219e-06
1.28132e-06
2.44301e-06
-5.48707e-06
2.52366e-06
-2.18835e-06
-6.76e-07
-2.10086e-06
4.39342e-06
-2.67471e-06
3.0909e-06
9.49061e-07
-1.18076e-06
1.37186e-06
-9.68337e-07
-5.1366e-07
-1.00924e-06
2.49124e-06
5.69828e-07
-1.05894e-06
-4.79223e-07
-1.52731e-06
1.58348e-06
8.72806e-07
1.21667e-06
-3.14842e-06
1.24412e-06
-8.50538e-07
6.49382e-07
-9.60016e-07
8.84258e-07
2.48675e-06
4.41506e-07
-1.38386e-06
-1.54439e-06
-1.65649e-06
-2.44253e-07
4.38749e-06
3.39013e-07
-1.554e-06
-2.49645e-06
1.65966e-06
1.1758e-06
4.89295e-07
-4.53974e-06
-2.06877e-06
3.48418e-06
-2.96334e-06
-4.19183e-06
-3.78567e-06
3.12849e-06
4.84902e-06
1.84934e-06
5.78202e-06
-1.18232e-05
4.86236e-06
-6.79869e-06
7.23216e-07
-7.2273e-06
9.63257e-06
-6.44746e-06
1.20197e-05
-2.51116e-07
-4.14322e-07
-2.61605e-06
1.90286e-05
1.51058e-05
7.85197e-06
-4.19864e-05
-3.12501e-07
1.78069e-05
1.5342e-06
1.51723e-05
-3.7894e-07
-1.5644e-05
-8.57689e-06
3.93932e-05
-1.04487e-05
-5.57429e-06
-1.44501e-05
2.36801e-05
-1.70468e-05
-2.36705e-06
-4.27914e-07
1.21809e-06
1.57688e-06
1.78462e-06
-5.67326e-07
-3.58435e-06
-7.77354e-07
2.13406e-06
3.51327e-06
-4.0905e-07
-3.88157e-06
1.40203e-07
5.50713e-06
2.42897e-06
-3.40535e-06
3.78726e-06
7.94193e-07
2.32663e-07
-6.39296e-07
-3.87561e-07
-4.17442e-07
-2.46007e-07
1.45764e-06
1.28448e-07
-3.13226e-07
-3.07067e-07
6.71341e-07
-2.35825e-07
6.57551e-07
-1.27784e-06
-2.55396e-07
6.80731e-07
-2.37141e-07
1.19174e-06
6.01297e-07
2.38726e-07
-2.03176e-06
-3.44607e-06
1.31267e-06
3.32513e-06
8.30551e-08
-2.92783e-06
-3.58524e-07
9.84552e-07
-3.87302e-07
1.08234e-06
-3.47262e-06
-1.86785e-06
4.26286e-06
-8.00244e-07
3.17643e-08
-5.92594e-08
-5.15809e-08
7.90761e-08
-1.71982e-07
-3.85945e-08
2.42341e-07
-1.22041e-07
-1.09201e-07
-4.24841e-07
2.09473e-07
9.33271e-08
5.82083e-07
-1.11613e-06
-6.96835e-08
2.27576e-07
4.73805e-07
-5.53199e-09
-9.29111e-08
2.26669e-08
7.57762e-08
-1.27477e-07
7.81848e-08
4.37601e-08
-5.83496e-08
-1.62038e-07
-1.88988e-08
9.77108e-09
3.17946e-08
-3.62099e-07
4.21385e-07
-4.70928e-07
4.2235e-07
-9.95066e-07
-1.99737e-07
7.62866e-08
3.65791e-07
1.06915e-07
6.57007e-07
-5.07613e-07
-2.32847e-06
2.58996e-07
2.57709e-06
-1.93456e-06
3.25856e-06
-1.83162e-06
2.06643e-06
-6.32946e-06
2.78269e-06
-3.16657e-06
6.42877e-07
-2.48126e-06
7.84104e-06
-1.59826e-06
2.37556e-06
-2.69841e-06
1.90607e-07
-5.78544e-07
-9.70197e-07
1.35813e-06
-7.04645e-07
-9.23078e-07
1.81833e-06
-6.84794e-07
-5.98395e-07
9.26741e-08
1.66254e-06
-2.44001e-06
1.13054e-06
-1.63626e-06
-2.74925e-07
1.01438e-06
-1.14584e-07
1.21152e-06
2.04036e-06
5.67016e-07
-3.81889e-06
4.86377e-07
1.14564e-06
-4.20496e-07
1.12428e-06
1.40246e-06
-1.92106e-06
-4.28282e-07
3.49498e-06
-1.22658e-06
-1.11498e-06
1.3969e-06
-2.05647e-06
2.09289e-06
1.399e-06
1.98493e-06
8.05447e-07
-4.18937e-06
2.88655e-07
-2.28804e-07
1.33915e-06
1.41598e-06
8.57602e-07
2.00168e-06
-1.65166e-06
-5.78825e-07
-8.42681e-07
4.18351e-06
-1.43573e-06
2.00903e-06
-2.28195e-06
-3.5337e-07
-9.22167e-08
3.48396e-07
9.71907e-08
3.28922e-07
2.77299e-07
-9.59591e-07
4.70402e-07
-2.33697e-07
-3.41234e-07
-2.81884e-07
9.71514e-07
-4.66487e-07
2.22444e-07
3.31328e-07
-5.20517e-07
5.19847e-07
-2.14973e-08
1.19795e-08
-1.9813e-08
2.93308e-08
-4.52292e-09
2.55935e-09
-1.95337e-08
4.20099e-08
-3.45531e-08
3.61158e-08
2.11445e-08
-7.70732e-08
-7.36616e-08
1.12337e-07
-1.85918e-07
1.54267e-07
-1.99327e-07
7.56293e-08
1.71743e-08
-6.4452e-08
-1.24351e-07
-1.0469e-06
-4.52521e-07
1.24273e-07
1.37515e-06
3.75761e-07