/*--------------------------------*- C++ -*----------------------------------*\
| =========                 |                                                 |
| \\      /  F ield         | OpenFOAM: The Open Source CFD Toolbox           |
|  \\    /   O peration     | Version:  v2012                                 |
|   \\  /    A nd           | Website:  www.openfoam.com                      |
|    \\/     M anipulation  |                                                 |
\*---------------------------------------------------------------------------*/
FoamFile
{
    version     2.0;
    format      ascii;
    class       volScalarField;
    location    "0.5";
    object      alpha.water;
}
// * * * * * * * * * * * * * * * * * * * * * * * * * * * * * * * * * * * * * //

dimensions      [0 0 0 0 0 0 0];


internalField   nonuniform List<scalar> 
6576
(
1
1
1
1
1
1
1
1
1
1
1
1
1
1
1
1
1
1
1
1
1
1
1
1
1
1
1
1
1
1
1
1
1
1
1
1
1
1
1
1
1
1
1
0.223861
0.448107
0.610827
0.467147
0.685822
0.472485
0.570628
0.473947
0.684217
0.000126571
0.000254873
0.000135703
0.000216447
0.000110718
0.000221607
0.000275561
0.000403642
0.00040552
0.000406106
0.000180928
0.000406489
0.000406106
0.000135722
0.000251457
0.000195877
0.000194423
0.000195734
0.000258871
0.000193285
0.000258241
0.039843
0.0142674
0.0314317
0.0145644
0.0177338
0.0147997
0.0267097
0.00897817
0.00943017
0.0089945
0.0109621
0.0153791
0.0183877
0.00977689
0.0425683
0.0303711
0.0697253
0.046914
0.0696141
0.0315696
0.0878385
0.442742
0.113056
0.47606
0.107709
0.119031
0.750461
0.719551
0.51767
0.506845
0.506845
0.589723
0.512439
0.523366
0.506845
0.689378
0.496456
0.496456
0.694147
0.63403
0.496404
4.50627e-14
1.25152e-152
8.25787e-15
6.69222e-18
3.42238e-19
6.6505e-14
2.48455e-13
0.230959
0.800587
0.937563
0.940205
0.858836
0.977407
0.870621
1.80909e-66
8.80964e-79
3.69561e-321
2.45673e-51
8.12546e-38
3.7694e-53
5.41208e-37
0.827856
0.827856
0.769268
0.669829
0.642256
0.496105
0.345335
0.0326012
0.0444221
0.0432407
0.0204586
0.0156335
0.0137339
0.00661349
0.00199028
0.00363319
0.0038674
0.0113005
0.0340098
0.02493
0.00911417
0.000606985
0.000676844
0.000607829
0.000606985
0.0010324
0.00388016
0.00195985
0.00291036
0.0019857
0.000567772
0.000619633
0.000382485
0.000394244
0.000861224
0.00146527
0.000393075
0.000815473
0.000477741
0.000536899
0.000823676
0.000311579
0.00159161
0.00159863
0.000875812
0.001554
1.84764e-06
1.77167e-06
4.76703e-06
4.73304e-06
2.71516e-06
8.90667e-06
1.87513e-05
1.5371e-05
6.31517e-06
9.31174e-08
1.10595e-07
3.91716e-08
2.2496e-07
6.78216e-07
1.85476e-07
3.2263e-07
5.43173e-08
5.78108e-08
3.45628e-08
1.394e-07
2.7184e-07
1.31044e-07
5.5473e-08
3.87814e-09
5.76972e-09
1.03527e-08
1.48784e-08
5.11449e-09
1.02322e-08
2.50864e-08
4.55097e-23
4.18316e-21
1.18505e-19
1.17343e-18
3.06238e-18
4.36385e-19
3.80347e-20
4.55159e-08
2.73952e-08
4.95336e-09
1.21172e-08
2.02935e-08
1.74713e-08
1.3889e-08
8.29601e-09
8.737e-09
1.02371e-08
1.55961e-08
8.29601e-09
9.48085e-09
5.67221e-09
3.24187e-07
1.87007e-06
5.64918e-07
1.93592e-07
3.5766e-07
1.60565e-06
5.66756e-07
4.4976e-05
2.70729e-05
7.84655e-05
4.42258e-06
9.88423e-06
1.65355e-05
1.61419e-05
0.00016753
0.000284934
0.000446802
0.000129056
0.000178238
0.000130859
0.000193374
0.00018601
0.000261219
0.00366571
0.00716842
0.0252307
0.00131402
0.00358105
0.00245963
0.0114353
0.0306089
0.00947762
0.0093298
0.00936933
0.0300468
0.00998968
0.0113472
0.699849
0.698198
0.61831
0.699305
0.703173
0.702932
0.646956
0.703173
0.576848
0.45622
0.390427
0.456514
0.389768
0.39877
0.400341
0.397211
0.517731
0.306687
0.31169
0.461592
0.314083
0.533072
0.52753
0.535563
0.42252
0.387551
0.387551
0.388802
0.409272
0.50952
0.408611
0.44367
0.509485
0.407663
0.408339
0.883397
0.631252
0.827847
0.455069
0.525935
0.791632
0.823976
0.144278
0.0551893
0.0169721
0.035313
0.0305021
0.0178524
0.0210823
0.0205125
0.0169722
0.591048
0.591048
0.824794
0.591358
0.77997
0.803097
0.937879
0.00429958
0.00429687
0.00429687
0.00429202
0.00538622
0.00429054
0.00429583
0.00987425
0.00978657
0.0166268
0.0519806
0.0242584
0.021805
0.00767907
0.0143101
0.027468
0.0254336
0.0542476
0.0262317
0.0258089
0.0412239
0.0933982
0.274128
0.363845
0.0703404
0.702636
0.702621
0.70262
0.613436
0.702636
0.605028
0.701653
0.574261
0.664653
0.574261
0.702753
0.703173
0.703173
0.703171
0.703098
0.574389
0.112956
0.0279573
0.211224
0.022574
0.318413
0.0184857
0.113286
0.0125149
0.00694023
0.0203192
0.00869892
0.02063
0.00521006
0.010611
0.64811
0.184751
0.779498
0.0944401
0.054736
0.148259
0.116325
0.464863
0.209279
0.809846
0.168809
0.272018
0.109874
0.180744
0.134792
0.614882
0.0823983
0.145973
0.442065
0.317127
0.314533
0.156359
0.441902
0.441777
0.209563
0.0167999
0.0331878
0.0821632
0.0436803
0.0151226
0.00894175
0.0703138
0.94161
0.936418
0.941771
0.756861
0.905368
0.940282
0.941372
0.0346936
0.0227774
0.0297606
0.0831762
0.150618
0.0500856
0.0562947
0.293521
0.110689
0.102325
0.169791
0.699863
0.205102
0.102639
0.739304
0.849725
0.877543
0.771109
0.875146
0.881993
0.884063
0.731847
0.644364
0.767391
0.132175
0.212331
0.767391
0.373569
0.544674
0.433362
0.836562
0.900184
0.71549
0.592777
0.733146
0.697273
0.400467
0.648717
0.587064
0.820914
0.651247
0.654401
0.686579
0.890281
0.683488
0.879041
0.889367
0.771565
0.591147
0.665912
0.892158
0.262802
0.520035
0.729535
0.165598
0.358863
0.432238
0.319421
0.788602
0.574563
0.574563
0.904488
0.577145
0.734265
0.845379
0.247089
0.165598
0.173275
0.905416
0.577771
0.904116
0.00215431
0.00214181
0.00214181
0.00375062
0.00215049
0.00333184
0.00375401
0.0180037
0.00931341
0.00998919
0.0269149
0.00871626
0.014629
0.00635564
0.00237936
0.00214211
0.00614598
0.00574917
0.011263
0.00547357
0.00262921
0.000943186
0.00221174
0.00263886
0.00741118
0.00471088
0.000804478
0.000932523
0.00181745
0.000818917
0.00215279
0.00196731
0.00617398
0.00457853
0.00169153
0.000358559
0.000369004
0.000173792
0.000256022
0.000733986
0.000555791
0.000168476
0.00313875
0.00744807
0.0104335
0.000356696
0.0011635
0.00124162
0.00114427
0.004372
0.00526341
0.00193811
0.00194093
0.000488112
0.000102408
0.00054053
0.000440949
0.000840799
2.37868e-05
2.28641e-05
3.64841e-05
6.87506e-05
2.84988e-05
3.83347e-05
9.0067e-05
0.00159404
0.000415128
0.000769088
0.000132189
0.000337364
0.000379001
0.000438681
9.62257e-05
0.000143472
0.000257688
9.57914e-05
0.000156824
6.39979e-05
8.76829e-05
3.31801e-05
5.1481e-05
3.30156e-05
7.55967e-05
5.5325e-05
0.000402586
0.000733291
0.000338854
0.000339247
0.00040653
0.000871596
0.000437207
0.00010041
6.97081e-05
2.13225e-05
2.17181e-05
1.23662e-05
3.10931e-05
4.90233e-05
0.00831996
0.00217252
0.00532582
0.00233783
0.00190162
0.0036978
0.0029194
0.00439867
0.00439867
0.00439867
0.0022724
0.00439867
0.00320799
0.00261186
0.00439864
0.00439857
0.00356152
0.00171557
0.00351265
0.00137924
0.00127743
0.00139154
0.000954822
0.287672
0.171512
0.287672
0.150911
0.150917
0.151727
0.149953
0.00173731
0.0678687
0.129423
0.00214367
0.0256741
0.0545858
0.129423
0.000598225
0.00191088
0.0021419
0.00143593
0.00143972
0.00066525
0.00213991
0.0444494
0.0256294
0.0432736
0.0192932
0.00612188
0.0200054
0.0110383
0.127286
0.0468437
0.0464917
0.530349
0.221598
0.218884
0.114558
0.0740468
0.0683111
0.583109
0.583181
0.501758
0.578214
0.502088
0.583186
0.541217
0.583415
0.583928
0.354226
0.575747
0.579425
0.568894
0.581956
0.35198
0.354847
0.460976
0.364952
0.583049
0.582369
0.581792
0.581792
0.448864
0.581715
0.583015
0.145885
0.515399
0.511458
0.511758
0.143547
0.142038
0.535567
0.535988
0.53555
0.536166
0.534959
0.157399
0.123583
0.176081
0.0918421
0.123042
0.0920055
0.0927762
0.429978
0.535823
0.535673
0.145119
0.53537
0.396195
0.396195
0.466797
0.0543842
0.0250611
0.0549106
0.0090079
0.0224176
0.0518563
0.0308151
0.486697
0.283896
0.47728
0.0258575
0.0747367
0.70247
0.701756
0.701542
0.568793
0.700685
0.151503
0.355494
0.702636
0.694562
0.702636
0.173694
0.406921
0.421439
0.452531
0.242841
0.229463
0.19336
0.695502
0.411288
0.203079
0.478541
0.450197
0.39708
0.0760773
0.125741
0.0853936
0.701332
0.69536
0.68445
0.192951
0.532171
0.534425
0.239249
0.301489
0.534425
0.534425
0.175172
0.53411
0.4659
0.4659
0.4659
0.340904
0.286042
0.268123
0.249502
0.463011
0.462076
0.282754
0.512793
0.511583
0.511486
0.512347
0.164721
0.168761
0.205054
0.394064
0.0857213
0.53411
0.437032
0.121129
0.325816
0.507258
0.0203938
0.0178641
0.0175239
0.0459997
0.0257247
0.0182582
0.0178828
0.0176887
0.011992
0.012979
0.0132164
0.0351017
0.0215901
0.0198074
0.000788688
0.000541017
0.000957938
0.000411974
0.000314551
0.000316797
0.000314627
0.00109523
0.00103605
0.00103942
0.00105157
0.00103495
0.00110201
0.00157525
0.000339634
0.000340834
0.000480645
0.00038047
0.000314205
0.000360739
0.000814343
0.00485841
0.00293292
0.00313668
0.00349993
0.00267618
0.00524394
0.00330948
0.00252493
0.00485754
0.0035045
0.00199931
0.00344237
0.00335523
0.00185608
0.00188104
0.00231202
0.00202378
0.00498951
0.107397
0.0563048
0.106204
0.0509314
0.0245441
0.15098
0.0706397
0.00584426
0.00606941
0.00579221
0.00251495
0.00436693
0.0110904
0.00355528
0.00226602
0.00517318
0.00960879
0.00197784
0.00280526
0.00620948
0.00928591
0.00161262
0.0010777
0.00164759
0.000645335
0.000609417
0.590355
0.753172
0.752787
0.316926
0.701988
0.742534
0.75216
0.0627477
0.188022
0.0619563
0.190194
0.0441218
0.0612762
0.063642
0.412126
0.138481
0.528429
0.151148
0.695509
0.529756
0.0810914
0.696341
0.695309
0.696931
0.664607
0.689061
0.664607
0.694921
0.697211
0.697394
0.69738
0.697097
0.697053
0.697443
0.697081
0.695611
0.642115
0.695677
0.642115
0.642115
0.694406
0.692161
0.696029
0.666437
0.696173
0.696204
0.695514
0.696959
0.595977
0.586916
0.587064
0.731516
0.638271
0.587064
0.70517
0.708882
0.892158
0.65776
0.841054
0.890215
0.800158
0.870973
0.904901
0.840085
0.905495
0.905726
0.0232076
0.0160788
0.0216218
0.0499435
0.072935
0.0382123
0.0305001
0.0140912
0.0106368
0.0068419
0.0118341
0.0269573
0.0149102
0.00391221
0.000519872
0.000711079
0.00171906
0.0037927
0.00158727
0.00550026
0.00149428
0.000763348
0.00214864
0.00184267
6.88003e-05
0.000107378
5.77994e-05
0.000307019
5.52144e-05
0.000147045
3.43354e-05
1.20673e-05
1.34302e-05
1.20138e-05
1.20467e-05
2.31182e-05
6.38633e-06
5.45768e-06
5.6286e-06
9.33552e-06
7.36997e-06
6.8755e-06
9.36309e-06
1.37367e-05
1.22966e-05
1.37507e-05
1.37507e-05
4.35016e-06
4.83264e-06
1.18908e-05
2.76016e-06
2.88449e-06
1.19614e-06
2.09541e-06
1.16554e-06
1.28592e-06
1.14676e-06
9.9908e-07
9.9908e-07
1.30424e-06
2.26028e-06
3.57882e-06
1.00922e-06
1.82836e-06
2.57855e-06
4.1059e-07
2.12645e-07
3.05258e-08
5.80689e-08
7.03862e-08
2.93326e-08
8.29197e-08
3.08406e-08
3.33547e-06
6.37332e-06
1.38472e-05
1.87667e-06
2.27144e-06
9.21206e-07
1.77557e-06
4.36744e-07
4.89779e-07
4.32622e-07
1.25233e-06
6.10356e-07
4.91084e-06
9.0323e-06
4.43819e-06
8.95082e-06
1.90808e-05
1.01175e-05
2.44596e-05
1.41748e-05
5.45476e-06
0.00395223
0.00250634
0.00460159
0.00460193
0.00143014
0.00460193
0.00452009
0.00310859
0.0046021
0.00227977
0.000904212
0.000903673
0.00195696
0.00195301
0.00285812
0.00200571
0.00377944
0.00244765
0.00264879
0.0027076
0.00265266
0.00389257
0.00208939
0.0123371
0.0142763
0.0191443
0.00639183
0.0254719
0.00838357
0.0350478
0.0423491
0.00619341
0.884542
0.88452
0.88452
0.670822
0.774225
0.88452
0.88452
0.572808
0.525357
0.52533
0.579239
0.579655
0.536141
0.579627
0.527964
0.491415
0.583723
0.550895
0.581557
0.584081
0.584097
0.513431
0.584095
0.58001
0.559696
0.584098
0.561734
0.584097
0.571269
0.581907
0.584226
0.584228
0.584226
0.500102
0.584228
0.387112
0.584212
0.58285
0.584228
0.478235
0.583159
0.583181
0.583184
0.581221
0.499699
0.368307
0.00209441
0.00470017
0.00884409
0.00433635
0.00909523
0.00490457
0.00562239
0.455214
0.192206
0.442119
0.210194
0.235077
0.115735
0.639667
0.365079
0.108344
0.436469
0.512793
0.172262
0.160542
0.399204
0.508961
0.4061
0.39094
0.571467
0.447861
0.626887
0.562749
0.573372
0.39094
0.614454
0.464448
0.464448
0.464448
0.69471
0.470391
0.509276
0.634035
0.634035
0.634034
0.631865
0.50986
0.54321
0.0143657
0.0241288
0.0149261
0.0215164
0.0359443
0.0234431
0.0233875
0.0235703
0.00970463
0.046283
0.0159972
0.0482482
0.010826
0.0251157
0.00149693
0.000695237
0.00287719
0.00128857
0.00295933
0.000862264
0.00163602
0.00071937
0.000604898
0.000807795
0.000429118
0.000428728
0.00042833
0.000428033
0.116631
0.186948
0.118244
0.119515
0.212737
0.215393
0.118317
0.61741
0.775242
0.904356
0.81516
0.904315
0.904354
0.897713
0.0105719
0.0105716
0.0105716
0.0115732
0.0105719
0.0105716
0.0120148
0.0124827
0.0301185
0.0138089
0.0218358
0.0400067
0.0400963
0.0379736
0.00199793
0.00458846
0.00247474
0.0085185
0.00436393
0.00241635
0.00372107
0.811898
0.340371
0.32875
0.49263
0.804683
0.618003
0.0953271
0.157058
0.0461747
0.0521234
0.0481644
0.152149
0.0455513
0.0348471
0.0394087
0.0494722
0.0494722
0.0176344
0.0165488
0.0126315
0.00980909
0.0270334
0.0456696
0.0369409
0.053312
0.0240422
0.0667571
0.0380051
0.0858535
0.17591
0.0844836
0.292214
0.113525
0.100438
0.120961
0.13481
0.132152
0.21214
0.159826
0.100244
0.21214
0.100361
0.100043
0.207881
0.526458
0.625023
0.625421
0.545255
0.526764
0.625396
0.625396
0.622244
0.563639
0.620856
0.622249
0.622244
0.620592
0.569901
0.539896
0.539896
0.539896
0.440984
0.539191
0.413812
0.235721
0.613351
0.613511
0.620965
0.367177
0.453659
0.368992
0.665528
0.539158
0.378552
0.34723
0.624501
0.662409
0.695509
0.696547
0.697233
0.664607
0.385044
0.391424
0.380939
0.43139
0.417396
0.391176
0.441122
0.489026
0.530708
0.25332
0.111815
0.109847
0.684687
0.721607
0.703309
0.438644
0.352318
0.608716
0.689464
0.249681
0.0615248
0.320612
0.373426
0.138555
0.0614538
0.563368
0.747919
0.680889
0.884458
0.883803
0.88417
0.884741
0.884591
0.00157952
0.0019138
0.00161837
0.00166861
0.00365304
0.00012052
8.97483e-05
0.000110817
0.000155309
0.000291282
0.00019421
0.000449025
0.00173085
0.0007907
0.000820707
0.000298615
0.000238319
0.000353835
0.000531684
1.51561e-05
1.20002e-05
1.0318e-05
3.53229e-05
1.69889e-05
1.04048e-05
2.37669e-05
5.45126e-06
5.45126e-06
5.45768e-06
4.09711e-06
4.82154e-06
6.61592e-06
1.14008e-06
3.79799e-06
5.01932e-06
1.01074e-06
8.24424e-06
1.37507e-05
3.70763e-06
1.09777e-05
6.76865e-06
1.09922e-05
9.66788e-06
4.67349e-06
1.76484e-06
9.14741e-06
1.31742e-05
1.32548e-05
6.52104e-06
1.34827e-05
1.0865e-05
6.38742e-06
7.04098e-06
1.55527e-05
1.08338e-05
1.55181e-05
4.80109e-06
1.66005e-06
3.55369e-06
3.05209e-06
1.25651e-06
9.47076e-07
1.16733e-06
4.73602e-06
1.34343e-06
4.96441e-06
1.0377e-06
1.67794e-06
2.8277e-06
1.5934e-06
6.03818e-09
7.23517e-09
5.96724e-09
9.26209e-09
1.67772e-08
1.15349e-08
5.97276e-09
2.57816e-09
1.22595e-08
1.83395e-08
3.55793e-08
3.45231e-08
1.88199e-08
6.20384e-09
2.14937e-05
1.86957e-05
2.30601e-05
0.000101206
4.69226e-05
1.86886e-05
4.08465e-05
0.000109679
4.66786e-05
7.86943e-05
3.58017e-05
2.29034e-05
8.86503e-05
3.67941e-05
3.59946e-05
5.2117e-05
3.57525e-05
1.77025e-05
1.2358e-05
3.83013e-05
1.64202e-05
0.000153913
0.000193598
0.00013285
7.742e-05
7.53442e-05
0.000154577
9.75913e-05
0.000100946
0.000186578
0.00180279
0.00155009
0.00113231
0.000333972
0.000596743
0.000891697
0.0013388
0.000916074
0.00122111
0.000790695
0.00103301
0.000976707
0.000609306
0.000611099
0.00181393
0.00212933
0.00239777
0.00116988
0.00113933
0.00058735
0.000592987
0.00109224
0.000908673
0.00276711
0.00276944
0.00126745
0.00193808
0.00244278
0.00100687
0.00135856
0.00237441
0.000586636
0.00189525
0.00264802
0.00285993
0.00304589
0.000955591
0.000849747
0.000662865
0.423756
0.648841
0.142615
0.12557
0.260066
0.838007
0.61721
0.122806
0.119453
0.162438
0.119453
0.123491
0.407614
0.340567
0.0682356
0.0369671
0.0476836
0.0616396
0.0384285
0.0374787
0.062301
0.385309
0.0723631
0.584145
0.111278
0.350045
0.430493
0.584638
0.514631
0.488266
0.467873
0.253053
0.101258
0.166023
0.49075
0.567964
0.566522
0.234351
0.570925
0.561642
0.514809
0.211758
0.580481
0.580425
0.580481
0.282369
0.279536
0.354663
0.399177
0.57014
0.539696
0.575831
0.577352
0.574198
0.50924
0.579815
0.579754
0.579621
0.579944
0.579948
0.579943
0.363475
0.549979
0.579944
0.579755
0.584095
0.58413
0.563314
0.0027839
0.00281904
0.006554
0.0027942
0.00333017
0.00331322
0.00419587
0.625305
0.701623
0.676136
0.701623
0.701623
0.265898
0.700435
0.626794
0.632148
0.480811
0.279292
0.244985
0.597122
0.244209
0.614362
0.611767
0.23879
0.600258
0.244739
0.687603
0.00741246
0.00753479
0.00510766
0.00284976
0.00824357
0.00792555
0.00133635
0.00183299
0.00297252
0.0018103
0.00295562
0.00497252
0.00681627
0.00204396
0.0909711
0.0909711
0.0910494
0.0910505
0.0738774
0.0910494
0.0910494
0.18002
0.154923
0.21644
0.809632
0.0614754
0.061149
0.160714
0.0607656
0.276395
0.0236044
0.0741212
0.0243975
0.384614
0.150062
0.636768
0.133473
0.0398328
0.0878767
0.0208934
0.0878568
0.0880757
0.0877163
0.0140604
0.0808788
0.0880841
0.00807911
0.00343744
0.000789836
0.00295296
0.000790193
0.000793375
0.000789836
0.000789864
0.000790031
0.000761974
0.00134879
0.00134258
0.000760727
0.00104093
0.000889802
0.000892903
0.00476898
0.00502223
0.00859658
0.0047455
0.00473422
0.00841875
0.0049162
0.014434
0.0192865
0.0390438
0.016322
0.00872312
0.0398292
0.0103883
0.431791
0.441916
0.427943
0.345058
0.104358
0.0998282
0.51651
0.607233
0.615292
0.613189
0.616185
0.617783
0.616733
0.484464
0.51651
0.454893
0.51651
0.21052
0.0844091
0.605367
0.607239
0.615473
0.618264
0.605212
0.111549
0.379296
0.0677002
0.058258
0.0645136
0.622493
0.621093
0.621123
0.46297
0.617495
0.625363
0.624344
0.580739
0.0995406
0.124438
0.180541
0.0995406
0.0999583
0.0184392
0.0738308
0.0695966
0.0687456
0.0538306
0.0218586
0.0126096
0.191135
0.0756604
0.220048
0.198548
0.21091
0.0608258
0.209735
0.083337
0.070249
0.0879229
0.0224091
0.0359208
0.0461971
0.0374144
0.0614259
0.061588
0.078447
0.0619168
0.144465
0.0618188
0.061588
0.0266656
0.0124481
0.0110397
0.0437367
0.0136828
0.0222013
0.012414
3.96246e-08
1.11514e-07
3.76476e-08
3.65177e-08
7.10997e-08
1.98913e-08
1.16261e-08
2.13556e-06
4.80109e-06
1.29039e-06
1.49523e-08
2.21368e-08
2.88518e-08
1.51058e-08
2.86232e-08
2.88518e-08
2.88518e-08
1.49352e-08
7.99558e-09
1.62288e-08
3.55381e-14
4.42912e-15
3.62354e-15
2.02006e-14
2.59535e-14
3.56766e-15
2.37755e-15
5.40575e-13
1.21326e-13
1.80427e-12
4.52291e-46
2.06458e-46
1.30869e-35
5.67753e-18
2.92281e-18
7.75644e-36
4.151e-50
1.30226e-48
1.16607e-37
5.58378e-21
3.38344e-21
4.19198e-23
2.67695e-22
1.85832e-22
1.28779e-22
2.70989e-23
0.324139
0.809527
0.970652
0.956759
0.986641
0.955229
0.938423
0.000534402
0.00170234
0.000451939
0.00791959
0.00235751
0.000453803
0.000777129
0.00450249
0.0225253
0.00576294
0.0182717
0.00408725
0.0680499
0.00960272
0.000106201
2.24351e-05
3.22654e-06
2.87674e-07
3.26807e-07
8.56901e-08
2.13875e-08
8.9321e-05
0.000417689
0.00113114
3.35693e-05
0.000317164
5.44289e-05
0.00253096
5.79239e-06
1.94023e-06
1.26812e-05
4.54769e-06
4.07714e-06
9.7158e-06
9.22566e-06
8.39995e-09
2.86863e-08
2.37644e-07
8.50306e-08
5.92842e-08
1.90568e-09
7.16019e-09
2.64328e-08
8.9779e-09
2.29407e-05
4.18843e-05
4.02096e-05
7.09397e-06
2.57914e-06
1.24902e-05
2.09293e-05
4.19305e-05
2.62941e-05
4.19305e-05
1.70258e-05
1.7439e-05
2.89689e-06
1.07288e-05
0.000140731
9.56406e-05
0.000156549
8.73416e-05
0.000273823
0.000347465
0.000577843
0.00120831
0.0024536
0.00123932
0.00109105
0.000743611
0.00103565
0.00173226
0.777413
0.674068
0.777413
0.418041
0.472154
0.512564
0.491602
0.652099
0.65208
0.652099
0.625932
0.618991
0.652099
0.608049
0.660861
0.660765
0.660778
0.660599
0.660765
0.660861
0.651083
0.660861
0.639319
0.576534
0.573453
0.573453
0.573453
0.573587
0.573549
0.621132
0.65259
0.652597
0.652495
0.652154
0.652597
0.639774
0.390659
0.652597
0.652597
0.652597
0.622413
0.625882
0.625882
0.624355
0.575302
0.509035
0.508747
0.49035
0.0535076
0.325898
0.0518437
0.0670159
0.428899
0.0507912
0.530609
0.290679
0.562095
0.232615
0.579297
0.221699
0.084259
0.133759
0.131972
0.0840633
0.0849773
0.13364
0.0840276
0.00031421
0.000352273
0.000314194
0.000314194
0.000314216
0.000314205
0.000314194
0.000388909
0.000715129
0.00102305
0.00067424
0.000428144
0.000439273
0.000427262
0.0187781
0.0586301
0.0610901
0.0325082
0.00379201
0.00560167
0.0274998
0.0155226
0.00725228
0.0278553
0.0479135
0.0270189
0.0140452
0.0732455
0.87084
0.872851
0.874698
0.872433
0.872397
0.877924
0.760637
0.783082
0.835827
0.835827
0.835827
0.835827
0.835022
0.00478017
0.00448581
0.00518189
0.00448804
0.00448841
0.00448953
0.00526932
0.00707878
0.0171107
0.0250845
0.00575052
0.0162593
0.0088085
0.0268521
0.126076
0.259846
0.046795
0.300675
0.0744141
0.0497051
0.167827
0.452674
0.499392
0.649817
0.647487
0.49273
0.659553
0.657982
0.517648
0.518766
0.517545
0.288143
0.223281
0.518766
0.222524
0.518766
0.508107
0.183234
0.155158
0.101285
0.0391424
0.162413
0.0469159
0.10709
0.039009
0.0233574
0.0189653
0.00919508
0.00804924
0.0243888
0.0150552
0.00675301
0.00636584
0.00496439
0.00666265
0.00449276
0.00665487
0.00448581
0.0044867
0.0108979
0.00643817
0.0085173
0.00450389
0.00451425
0.00448514
0.00448468
0.000238619
3.64518e-05
0.000600264
3.18314e-05
7.04356e-05
0.000697064
0.000319291
0.000496742
0.00069135
0.000365457
0.000516875
0.000420208
0.000355219
0.000490273
2.41797e-06
7.51801e-06
4.99491e-06
2.27572e-05
3.9367e-05
4.78868e-09
2.82098e-09
2.86278e-08
2.31379e-09
1.01967e-08
5.78858e-09
5.62655e-08
0.894634
0.653689
0.960719
0.606536
0.797175
0.171772
0.855641
0.00336567
0.00814265
0.00675811
0.00334221
0.00460799
0.00815267
0.00554335
0.00128603
0.000372886
0.000624659
0.00035142
0.000395305
0.000722519
0.00176829
5.51003e-13
6.96581e-13
2.8196e-12
2.30268e-05
4.10397e-05
5.92851e-05
1.21211e-05
8.95844e-06
2.15259e-05
5.59933e-05
2.36638e-06
3.8208e-05
8.76195e-06
0.000119662
0.000120538
0.000121019
6.5216e-05
0.000139081
5.48314e-05
8.45697e-05
0.000105921
4.17594e-05
0.0001057
0.000105921
6.15388e-05
9.19805e-05
5.88348e-07
2.0394e-07
3.6327e-07
9.1074e-07
9.79551e-08
3.54794e-07
1.15179e-06
4.34194e-05
6.87209e-05
4.13582e-05
0.000178794
0.000420851
0.000238169
0.000129307
0.000162274
0.000167336
0.000162274
0.000246021
0.000263334
0.000298981
0.000167036
0.000178503
0.000358612
0.000427965
0.000177002
0.000189452
0.000262358
0.000224314
0.00334737
0.00708865
0.0046248
0.00285931
0.00241333
0.0044961
0.00178826
0.0085657
0.00225056
0.0109895
0.00681913
0.0150329
0.0201366
0.0149734
0.0235094
0.0453953
0.695467
0.651606
0.49326
0.865097
0.863154
0.827502
0.723943
0.492654
0.519946
0.552676
0.554688
0.744698
0.677442
0.742761
0.845083
0.800217
0.861009
0.65149
0.50882
0.65149
0.497923
0.651724
0.492795
0.59657
0.596931
0.631495
0.650369
0.651158
0.6493
0.59667
0.596618
0.620168
0.596569
0.650323
0.573549
0.609669
0.301475
0.640932
0.655923
0.46979
0.660861
0.273231
0.334693
0.0233673
0.00926232
0.0280092
0.014001
0.00976544
0.00914089
0.00914693
0.00412602
0.00190758
0.00768398
0.00187891
0.0018803
0.000634399
0.000781284
0.000734079
0.000549547
0.000682587
0.000480302
0.000342933
0.00437866
0.00465888
0.00277065
0.00303428
0.0052416
0.00453074
0.00401685
0.00143246
0.00104844
0.00194617
0.00620924
0.00203839
0.00442737
0.0028733
0.00244942
0.00243234
0.00365733
0.00315636
0.00641353
0.000430752
0.000452583
0.000429713
0.000898307
0.000429404
0.00072342
0.000429132
0.00154174
0.00110555
0.00174584
0.000986597
0.000979012
0.000658231
0.00123681
0.872124
0.806891
0.396995
0.90943
0.919456
0.919444
0.919509
0.919479
0.915596
0.919455
0.916253
0.884714
0.916253
0.670616
0.916196
0.905649
0.8751
0.871179
0.87464
0.88866
0.88841
0.870124
0.63632
0.866381
0.914977
0.715031
0.580692
0.655297
0.587964
0.65834
0.619681
0.579097
0.65772
0.573506
0.655594
0.597777
0.0186864
0.0476797
0.044917
0.025808
0.00851959
0.02838
0.00682705
0.0495568
0.00675329
0.0212726
0.00501026
0.00462485
0.0133292
0.0185292
0.00868494
0.0766198
0.00904338
0.0743933
0.0376605
0.32109
0.186717
2.56957e-06
1.46627e-06
1.50248e-06
1.84561e-06
1.40024e-06
1.47571e-06
2.58374e-06
3.95607e-06
7.27356e-06
2.85951e-07
5.89304e-06
1.24456e-05
5.96821e-07
2.85951e-07
6.58313e-09
4.84569e-09
7.64721e-09
5.1281e-09
5.36417e-09
7.0767e-09
2.60548e-09
6.25458e-09
1.26556e-08
4.64141e-10
2.66861e-09
3.25755e-09
4.64141e-10
1.59884e-09
9.22583e-05
0.000164309
0.000246751
0.000166093
0.000340673
8.88089e-05
4.85391e-05
7.32371e-05
0.000107416
8.5976e-05
4.76565e-05
9.10002e-05
7.72769e-05
0.000124372
9.69045e-05
0.000100496
8.95913e-05
8.95913e-05
0.000100028
0.000182858
0.000128782
0.000132819
0.000101817
2.36297e-05
4.78186e-05
2.42863e-05
4.78186e-05
4.78064e-05
2.02388e-05
2.24094e-05
3.82794e-05
3.72965e-05
0.000115563
2.58565e-07
8.96598e-13
1.57794e-11
4.94654e-14
1.55625e-07
2.22914e-13
2.47707e-08
8.07058e-06
1.19684e-72
2.48316e-06
5.83839e-15
3.15961e-13
1.24204e-37
1.38848e-13
2.09135e-15
1.20634e-15
1.076e-16
3.46981e-18
1.00551e-15
1.95804e-13
6.49273e-14
4.58233e-12
1.51184e-12
0.000720407
0.000640788
0.000239773
0.000719502
0.000720866
0.000239636
0.000240322
0.000425875
0.000255184
0.00263732
0.001446
0.00150059
0.00240953
0.00148441
0.00146545
0.00445405
0.0280384
0.075258
0.0561988
0.140038
0.0300607
0.266207
0.0666973
0.14967
0.181427
0.149667
0.150862
0.149667
0.149667
0.149663
0.149734
0.150105
0.257416
0.162239
0.149807
0.188693
0.734272
0.149681
0.149734
0.149734
0.627959
0.802018
0.80774
0.863197
0.64798
0.805445
0.784358
0.797601
0.493597
0.856058
0.853579
0.799748
0.855482
0.854971
0.732031
0.846248
0.139443
0.120238
0.120238
0.633889
0.124946
0.485425
0.491224
0.761506
0.761506
0.761527
0.476419
0.749257
0.73943
0.847824
0.901379
0.880421
0.90124
0.90111
0.901379
0.900055
0.901305
0.930743
0.928894
0.841684
0.865142
0.838035
0.93108
0.841984
0.722376
0.310842
0.301168
0.692187
0.84799
0.731137
0.144838
0.071919
0.035986
0.0999514
0.0359022
0.0361694
0.0481363
0.0663164
0.413723
0.137001
0.139291
0.197065
0.528722
0.00316586
0.00316586
0.00652066
0.00316586
0.00316586
0.00734577
0.00520121
0.00619729
0.00210633
0.00619729
0.00187996
0.00187891
0.00617074
0.0050557
0.00452637
0.00452651
0.00452637
0.00452637
0.00452637
0.00516188
0.00452716
0.88866
0.88866
0.888352
0.842329
0.842313
0.842329
0.841815
0.842291
0.842313
0.842374
0.868861
0.870233
0.868861
0.868809
0.421729
0.701513
0.852607
0.852607
0.852607
0.852544
0.852528
0.840394
0.507391
0.787704
0.84218
0.489261
0.0688188
0.0681702
0.0681113
0.0988241
0.0914007
0.131213
0.130887
0.437262
0.375278
0.431264
0.437262
0.242222
0.409227
0.139412
0.499774
0.49812
0.49812
0.163338
0.0511789
0.499774
0.102816
0.4408
0.254937
0.552722
0.222836
0.198593
0.499774
0.0860867
0.0375546
0.284309
0.0385079
0.279894
0.0374048
0.107843
0.0813924
0.0315745
0.0806971
0.038138
0.0461034
0.040234
0.0294798
0.061718
0.0602958
1.08682e-05
1.508e-05
1.08658e-05
2.55088e-05
1.40343e-05
8.09768e-05
2.59028e-05
1.52991e-05
1.31647e-05
1.95095e-05
2.24987e-05
2.44611e-05
4.84477e-05
5.33132e-05
1.89378e-09
5.6296e-09
2.20234e-08
9.66134e-09
6.80981e-09
3.61092e-10
1.96831e-09
3.57065e-11
9.7296e-12
2.20275e-13
2.66443e-06
5.39292e-07
3.3845e-10
1.31224e-11
4.2832e-07
1.65411e-07
4.09357e-11
1.08357e-15
1.66513e-21
1.067e-13
2.78438e-13
2.92845e-13
5.58116e-16
2.42102e-30
1.41359e-13
4.04643e-13
6.84651e-15
3.35293e-34
2.39777e-15
4.59219e-06
3.25993e-05
6.06445e-05
0.000224965
0.000203093
0.000172246
0.000168175
9.51271e-05
6.51135e-05
0.000132615
0.000553927
0.000610387
0.000401878
0.000453815
0.000395281
0.000610001
0.00019759
0.000213066
0.000189889
0.000224481
0.000408462
0.000245998
0.000189889
5.72765e-05
5.71046e-05
5.70232e-05
5.65649e-05
6.32484e-05
6.03019e-05
5.68514e-05
0.0821645
0.0495281
0.0492724
0.104235
0.0493661
0.0492724
0.252227
0.176462
0.256751
0.256727
0.25504
0.266207
0.240191
0.049896
0.149707
0.191753
0.149675
0.0116672
0.0122211
0.0239516
0.0243566
0.0116082
0.0116626
0.0294749
0.0587263
0.0198459
0.089673
0.313431
0.202377
0.0648499
0.0703827
0.683974
0.618966
0.258734
0.257859
0.401831
0.145518
0.364631
0.0875536
0.421556
0.173488
0.117577
0.0722029
0.154061
0.248344
0.403776
0.489396
0.40332
0.855871
0.470562
0.663792
0.855957
0.102693
0.305502
0.075101
0.0612988
0.137855
0.0528581
0.0498623
0.43014
0.844822
0.746858
0.428758
0.887663
0.887677
0.887676
0.00483634
0.00646626
0.00519245
0.0123747
0.0187075
0.0061355
0.00888466
0.0679103
0.0861661
0.0679103
0.204738
0.083003
0.0728733
0.0954854
0.0463335
0.0250852
0.0239192
0.00770437
0.00485084
0.00585993
0.0102505
0.0247734
0.00960814
0.0160993
0.00348895
0.0054637
0.00775326
0.00552353
0.0208542
0.00887362
0.0196687
0.00605181
0.00335971
0.0125157
0.00831564
0.00687278
0.00713728
0.460085
0.648632
0.440072
0.443422
0.647302
0.64869
0.649499
0.128575
0.128575
0.128575
0.233271
0.400517
0.515597
0.646303
0.836397
0.594359
0.924507
0.593384
0.941438
0.942036
0.761577
0.363165
0.408794
0.35452
0.941968
0.843293
0.908302
0.448336
0.127593
0.0577126
0.0586919
0.059528
0.0922025
0.0728565
0.108471
0.117073
0.116412
0.125282
0.209605
0.116501
0.342078
0.116631
0.852544
0.83638
0.852314
0.857478
0.857434
0.857434
0.759235
0.857302
0.857478
0.857092
0.842156
0.842157
0.842157
0.842157
0.825399
0.516133
0.857478
0.857478
0.773971
0.70613
0.70613
0.706237
0.552508
0.707623
0.32142
0.706007
0.110966
0.0887916
0.0898249
0.448271
0.850212
0.349225
0.85437
0.84891
0.849627
0.84941
0.849626
0.688155
0.849627
0.849627
0.84951
0.663967
0.723859
0.687569
0.723014
0.72363
0.673058
0.722278
0.183373
0.0548799
0.464581
0.324872
0.0994124
0.613567
0.25999
0.257279
0.677772
0.0322896
0.0285106
0.0549973
0.0287604
0.0428467
0.054765
0.0516403
0.0291786
0.0685161
0.00103038
0.0016566
0.00112172
0.00926107
0.00509802
0.00347396
0.00153628
0.0183945
0.0245185
0.0277809
0.00158716
0.0161229
0.00415208
0.0252812
0.100542
0.236212
0.236294
0.0556753
0.0509111
0.18228
0.204273
0.0240323
0.0246183
0.0240382
0.0567799
0.0240318
0.0240324
0.024034
0.0398862
0.0240684
0.0240364
0.0241251
0.0243721
0.0259194
0.0240349
0.380254
0.592544
0.249927
0.592544
0.393966
0.511671
0.571509
0.631316
0.636915
0.401482
0.273073
0.555862
0.637963
0.424081
0.637946
0.637946
0.637946
0.638004