/*--------------------------------*- C++ -*----------------------------------*\
| =========                 |                                                 |
| \\      /  F ield         | OpenFOAM: The Open Source CFD Toolbox           |
|  \\    /   O peration     | Version:  v2012                                 |
|   \\  /    A nd           | Website:  www.openfoam.com                      |
|    \\/     M anipulation  |                                                 |
\*---------------------------------------------------------------------------*/
FoamFile
{
    version     2.0;
    format      ascii;
    class       surfaceScalarField;
    location    "0.1";
    object      alphaPhi0.water;
}
// * * * * * * * * * * * * * * * * * * * * * * * * * * * * * * * * * * * * * //

dimensions      [0 3 -1 0 0 0 0];
oriented        oriented;


internalField   nonuniform List<scalar> 
49400
(
-5.65816e-06
1.53974e-08
5.61396e-06
2.87972e-08
1.30564e-05
3.59788e-06
-2.23124e-05
1.28661e-05
2.05687e-07
-3.41921e-06
1.73271e-05
-8.29394e-06
2.0239e-05
-2.00603e-05
-2.07647e-05
5.09579e-05
-3.20052e-07
8.10579e-06
1.95889e-05
-5.00071e-05
-1.59351e-07
-6.30761e-07
-1.22885e-05
2.49105e-07
1.21333e-05
-9.38854e-08
2.62905e-05
1.15477e-05
-5.01267e-05
2.59088e-05
-1.31184e-05
1.50138e-06
2.37503e-05
-1.32632e-05
5.08977e-08
2.9455e-05
-3.11705e-05
5.68652e-05
-2.68278e-05
4.27459e-07
2.63967e-05
3.66288e-09
9.17707e-06
1.56183e-05
-5.16232e-05
4.71361e-07
9.13317e-06
4.11583e-05
2.27461e-05
-4.82861e-05
1.73094e-05
5.02456e-05
7.68133e-06
-7.39175e-06
1.81783e-07
-3.68824e-06
2.05027e-05
6.22672e-06
9.1276e-06
1.98479e-05
8.85151e-06
4.5787e-07
-2.00255e-05
4.93798e-05
2.80237e-07
-2.9893e-22
7.31141e-22
-4.03033e-22
-8.12934e-22
4.52651e-21
-3.02497e-21
-5.82594e-21
-4.90737e-21
-3.3878e-20
-2.05136e-21
6.38741e-23
-5.93103e-23
1.29256e-21
-1.41573e-20
-2.35741e-20
3.73931e-22
-1.32887e-19
1.30077e-12
1.20719e-12
1.21282e-12
-6.3129e-12
9.72796e-15
4.25353e-13
-3.8152e-14
3.64475e-13
2.71053e-14
-1.32413e-13
-1.76105e-13
3.36828e-13
-5.78762e-13
4.6078e-14
-2.74424e-13
2.27941e-13
-4.9377e-13
-1.74062e-10
-2.30521e-09
2.64173e-10
8.75341e-10
-2.3025e-09
9.62381e-10
-1.91847e-10
2.09971e-09
-9.87669e-09
2.63845e-10
-1.62818e-09
6.6911e-10
-6.80205e-10
1.01693e-09
-8.12524e-10
4.70685e-10
-1.8257e-09
-2.88012e-10
-9.34977e-10
1.74657e-10
1.01808e-09
-4.41561e-10
3.31771e-10
-7.66183e-11
-1.27463e-10
-1.28776e-09
-4.48745e-10
4.63755e-11
6.97805e-10
-2.96203e-10
-1.63307e-10
-5.38043e-10
7.28099e-10
-1.02271e-09
-2.44832e-08
-1.97845e-08
-6.53943e-09
5.18953e-08
-3.01701e-09
-4.7357e-08
2.57925e-08
-2.49037e-08
2.23039e-09
6.17106e-08
3.13473e-08
-1.39896e-07
6.8951e-08
1.69822e-08
9.47067e-09
-3.00561e-09
7.10887e-08
-1.61627e-14
-7.13073e-15
7.92654e-15
3.01944e-14
-4.05877e-15
8.67347e-14
-6.69295e-14
7.62907e-15
-9.85399e-15
2.28523e-14
-1.3438e-14
2.68887e-14
-7.05491e-14
1.55445e-13
-5.15577e-15
7.60565e-14
-5.29844e-15
1.0966e-11
4.00042e-11
3.60983e-11
-1.02435e-10
-2.28587e-12
2.12122e-12
5.12292e-12
1.20221e-11
1.33016e-11
4.32921e-12
-2.54126e-11
1.16649e-11
-9.84242e-12
1.03343e-11
-2.37688e-11
1.50559e-11
-3.01214e-11
-2.23217e-06
-1.07361e-05
-5.49132e-06
1.87786e-05
7.16152e-08
-2.32008e-06
-3.62759e-08
-1.32035e-05
2.50831e-06
2.78312e-06
2.60732e-06
-7.80203e-06
2.72761e-06
-2.23251e-13
-1.03617e-05
7.65892e-06
-2.09786e-05
-1.5644e-11
-2.30806e-11
9.18024e-12
1.92745e-11
-8.07136e-12
5.67536e-11
-3.83637e-11
1.47979e-11
-2.6484e-11
2.52953e-11
-4.5396e-11
2.35703e-11
-2.91323e-11
6.70047e-11
-1.74206e-11
5.13323e-11
-4.49914e-12
-1.70511e-20
-3.02547e-21
6.1995e-21
1.40187e-20
8.32564e-21
1.15305e-21
-2.6748e-20
-5.12221e-22
3.82007e-21
1.61644e-21
-1.4346e-21
-5.68584e-22
-6.24302e-22
6.54159e-21
2.24103e-21
-2.02325e-21
9.36574e-21
1.55316e-30
2.32555e-31
-6.82042e-30
-3.43791e-31
-5.42235e-30
-3.96382e-30
7.24819e-30
-1.33144e-29
2.12767e-30
6.78636e-30
4.85094e-30
-2.66257e-29
2.61666e-30
-1.63797e-32
-8.45934e-30
4.55642e-30
-1.87712e-29
1.94268e-30
1.58035e-30
8.96839e-31
-2.44083e-29
-3.86781e-33
1.44807e-31
4.71832e-32
7.09595e-32
-6.83281e-34
-8.44091e-33
-1.37324e-32
1.62348e-32
-9.05739e-32
-2.2883e-35
-6.58791e-32
1.8234e-32
-1.62116e-32
1.98379e-65
-6.70382e-66
-1.38201e-64
3.95521e-66
-1.17454e-64
-2.77461e-65
6.00165e-65
-1.08538e-65
-1.22984e-63
-2.04482e-63
3.2583e-64
1.24734e-65
1.48617e-63
-1.48047e-62
1.15579e-64
2.10996e-64
1.47683e-64
2.52335e-66
1.20716e-65
2.09601e-65
2.66723e-66
2.66234e-65
3.32161e-62
-8.0232e-63
-1.70324e-61
2.34834e-63
-1.45647e-61
-1.27656e-60
6.71387e-61
-2.51048e-61
-8.82757e-61
-1.11149e-60
5.62344e-60
-1.36071e-59
9.34879e-61
-8.38839e-60
-7.13304e-62
1.32497e-60
-9.75774e-64
2.62413e-61
3.25105e-60
-3.93775e-63
-1.17979e-59
2.18069e-58
-8.14333e-58
-2.65291e-63
-1.13395e-62
4.82826e-65
-6.41413e-62
3.47366e-47
4.22541e-47
2.66814e-47
-1.96696e-46
-2.59736e-49
7.11665e-48
1.81204e-50
1.29952e-47
-9.79892e-52
-5.49548e-46
-1.36425e-46
4.96254e-46
-7.86621e-46
-5.48887e-47
6.07655e-46
-2.01816e-45
2.59805e-46
2.44133e-22
-4.29142e-23
-8.4504e-22
1.51533e-22
-1.29589e-22
-7.17613e-23
3.11373e-22
-2.04057e-22
-2.39318e-23
1.64551e-21
4.24102e-22
-3.44976e-21
4.74075e-22
7.92809e-22
-2.29399e-22
4.40373e-22
-8.25127e-23
2.63983e-09
2.45415e-09
2.36116e-09
-1.12416e-08
1.7494e-10
1.03372e-09
-1.45439e-10
8.8061e-10
2.4699e-10
-3.0696e-10
-7.18303e-10
1.05083e-09
-1.82667e-09
6.17816e-10
-9.80385e-10
5.63432e-10
-2.21999e-09
-2.19212e-11
6.10451e-13
5.41296e-12
-6.88116e-13
2.41725e-11
2.07997e-11
-1.12381e-10
5.10388e-12
1.20102e-12
-4.62974e-12
-3.62123e-12
1.3061e-11
-5.76087e-12
1.33679e-11
6.59708e-12
-1.56936e-11
3.32129e-12
1.29883e-10
-4.26002e-11
-1.18763e-10
-7.54337e-12
-1.54429e-10
-1.41612e-10
4.92989e-10
-7.38911e-11
-1.12627e-10
5.63183e-11
-9.15756e-12
-1.18143e-10
1.3005e-10
-1.01665e-10
-5.20394e-11
2.87134e-11
-1.28962e-10
-7.05867e-11
3.87152e-11
4.11403e-11
-1.33751e-11
1.39971e-10
3.08599e-11
-3.05468e-10
5.05336e-11
1.27652e-10
-6.54112e-11
-2.17954e-11
2.91304e-10
-7.32521e-11
5.19594e-12
7.01833e-11
-1.12933e-10
9.85635e-11
9.2575e-11
-2.19493e-10
-4.59528e-11
9.40179e-11
-1.16157e-10
1.957e-10
3.77953e-12
-2.44733e-10
-3.04963e-11
1.7509e-10
-5.1238e-10
-1.07829e-10
-7.12471e-11
1.97804e-10
-3.3083e-11
-5.75714e-11
-1.61838e-10
-7.03524e-10
-1.01476e-10
5.1295e-10
2.86481e-10
3.86301e-10
1.60591e-10
-1.2559e-09
-1.30241e-10
4.05148e-10
6.81585e-10
-6.58438e-10
-8.33022e-11
-3.49793e-10
1.42964e-09
5.10549e-10
-8.35401e-10
8.09484e-10
-1.37402e-10
-2.2695e-10
-9.66904e-11
4.52913e-10
-1.98139e-12
-1.21032e-10
2.39463e-12
-1.99487e-10
9.08638e-12
2.50851e-10
2.3284e-11
-4.28332e-10
3.43576e-10
2.39999e-10
1.44601e-10
-2.24496e-10
4.71917e-10
1.43541e-14
1.81472e-13
-3.0348e-13
-4.32489e-13
2.21182e-13
4.08419e-14
-9.41993e-13
-7.94641e-14
2.06733e-13
-1.27086e-12
2.2842e-13
2.32866e-13
3.60102e-13
-5.14743e-12
3.40461e-13
-1.09483e-12
1.73198e-13
-1.07808e-05
-1.45223e-05
-9.14992e-06
3.45493e-05
-1.00012e-07
-9.70807e-08
-9.94985e-06
-1.4204e-05
-4.50328e-07
-1.15864e-05
1.2109e-05
-2.14292e-07
8.74739e-06
-3.06919e-05
1.05013e-05
-1.59995e-05
1.34909e-05
-9.51677e-09
1.13287e-09
6.04127e-09
-1.88024e-10
1.60947e-08
1.04233e-08
-3.51602e-08
1.76335e-08
4.7686e-11
-5.56441e-09
-3.44529e-09
1.16933e-08
-1.04608e-08
-6.10848e-10
1.23943e-08
-1.30409e-08
2.41464e-08
4.74567e-16
-1.7965e-18
1.11336e-15
-2.81915e-15
-3.01917e-18
5.85005e-17
9.10979e-17
5.03122e-18
-2.04707e-17
5.10137e-18
-6.22995e-18
2.33844e-17
-6.65381e-16
4.22526e-16
-2.35332e-17
5.47457e-19
-1.78837e-16
-4.4786e-10
-4.88066e-10
-2.85256e-10
1.23231e-09
2.49919e-11
-3.88595e-10
-1.00644e-10
-5.43749e-10
9.02477e-11
6.10081e-10
2.75434e-10
-1.36278e-09
6.7245e-10
6.19821e-11
5.91241e-10
-7.25252e-10
1.05353e-09
-1.17171e-11
-9.18244e-12
1.9943e-11
1.21105e-11
8.09652e-12
1.05941e-11
-2.61057e-11
2.22725e-11
-2.76256e-11
-4.55255e-12
-1.62276e-11
4.66754e-11
-1.45363e-11
2.61563e-11
3.87037e-12
-7.25823e-12
7.35961e-12
6.94561e-13
-2.54947e-12
-2.59453e-12
7.6334e-13
-5.2798e-12
5.28464e-13
3.26468e-12
-7.14236e-13
-1.3897e-11
5.40586e-12
-4.17581e-13
-1.57325e-11
5.20527e-13
3.33467e-12
-4.66527e-12
3.39852e-12
-1.03032e-11
7.99583e-10
5.34875e-09
-3.86262e-10
-8.7068e-09
2.03062e-09
-1.36277e-09
-2.66229e-09
-1.04936e-09
8.067e-09
-2.88938e-10
-3.5665e-09
-7.62336e-09
4.97733e-09
-1.20354e-08
-3.06496e-08
-2.31069e-07
1.2842e-07
1.34479e-07
-4.73522e-07
1.86885e-07
2.58432e-07
2.09295e-07
-9.06151e-07
1.8676e-07
1.28787e-07
9.6103e-08
2.24847e-07
4.35125e-07
1.23621e-07
-2.90284e-07
2.88871e-07
-3.19065e-07
5.02937e-08
1.10737e-07
-1.19398e-07
1.54837e-07
-9.77234e-08
3.48117e-08
7.26161e-08
-3.978e-09
1.91452e-08
-6.94053e-08
-1.45638e-08
7.97198e-08
2.28986e-07
5.6919e-09
4.70129e-08
-1.20332e-08
-4.49192e-08
7.7868e-08
3.49899e-08
-2.23535e-08
1.13303e-07
6.72768e-08
-4.26788e-08
-1.65891e-08
2.21249e-07
1.35881e-08
3.00693e-08
1.22841e-08
1.40348e-08
5.66507e-10
2.59928e-09
2.88136e-09
-7.59729e-09
1.86105e-09
-1.49204e-08
6.02791e-09
5.13455e-09
-1.87046e-09
-1.39943e-10
-2.05396e-09
-1.215e-08
-5.75554e-09
1.0652e-08
-3.07641e-09
1.99369e-09
-4.04501e-09
-2.77567e-10
9.09165e-11
3.11277e-11
-9.4255e-12
7.72718e-10
-1.81679e-10
-2.1332e-09
-6.19485e-12
5.82402e-10
1.96226e-11
2.36605e-11
-4.69434e-11
8.64041e-11
-4.40782e-11
-3.04732e-12
-1.31408e-13
3.63495e-12
-6.74609e-11
-9.42599e-12
2.40389e-11
2.84911e-11
3.85025e-11
-3.02248e-11
-1.10313e-10
5.13683e-11
-5.7037e-11
-1.43072e-10
-2.24609e-11
1.94296e-10
-9.68432e-11
-1.50116e-10
1.45456e-10
-3.31146e-10
1.21193e-10
-7.42029e-11
-7.5819e-11
1.20798e-10
1.93494e-11
-2.19234e-11
7.11915e-11
-1.2967e-10
1.81256e-10
-2.36349e-10
-1.78847e-10
-2.28423e-10
5.01431e-10
-9.49336e-11
1.4625e-10
-2.86802e-11
-8.41381e-12
-6.08134e-11
2.00461e-11
2.65298e-10
-1.62417e-11
-2.62473e-10
2.13754e-10
-5.16197e-10
3.3241e-10
1.11263e-10
3.73538e-10
1.51638e-09
-8.84549e-11
-1.94486e-09
4.65991e-11
1.80967e-09
-1.8557e-10
3.49833e-10
-2.85636e-10
7.44907e-14
-4.50234e-15
-5.6903e-13
-4.52243e-15
-7.9995e-14
-2.16298e-14
4.70779e-14
-1.5607e-13
-1.9193e-13
7.63541e-13
7.35964e-14
-4.67234e-12
7.26931e-14
1.31395e-13
-2.12752e-13
6.58905e-14
-1.05358e-12
-1.4184e-07
-8.65699e-08
-8.76954e-08
2.31802e-07
4.05387e-08
-3.46545e-07
-1.99803e-08
-1.06449e-07
2.44425e-08
1.00077e-07
1.23177e-07
-3.65946e-07
8.57299e-08
1.90673e-08
1.49851e-07
-3.62666e-07
1.09762e-07
-3.45427e-10
-1.73041e-10
2.09629e-11
5.25598e-10
4.93959e-11
-2.16686e-10
-1.20945e-10
-4.17805e-10
3.18097e-10
1.0623e-09
6.19525e-11
-1.75335e-09
9.67808e-11
1.25198e-09
4.44013e-10
-5.45722e-10
6.09701e-10
-2.43568e-29
-4.17523e-29
-2.22787e-29
6.74415e-29
3.07695e-30
-3.81529e-29
-1.86797e-31
-8.78804e-29
8.41937e-30
1.2883e-28
4.4993e-29
-2.26447e-28
7.56646e-29
3.77744e-29
4.03133e-29
-3.53413e-29
7.48267e-29
4.39122e-47
-1.13779e-48
1.3985e-48
-1.71238e-46
-3.77169e-47
-8.10163e-47
1.08967e-46
-1.0592e-46
-1.15442e-49
-2.06701e-46
1.721e-46
1.97722e-47
1.14704e-46
-6.30996e-46
-7.9519e-47
1.30146e-46
-1.69947e-46
2.16435e-55
1.17074e-53
-4.01794e-53
-1.10363e-56
2.84084e-53
2.32469e-55
-1.63057e-52
-2.62942e-53
3.55643e-53
-2.13365e-52
8.92197e-53
5.58417e-54
1.48498e-52
-1.20389e-51
-2.6092e-53
4.63e-53
-3.39685e-55
1.22958e-57
9.12793e-58
7.74249e-58
-5.21203e-57
-5.76787e-61
3.62774e-58
1.91334e-59
1.58689e-58
1.12825e-60
-1.40486e-56
-6.3691e-57
8.5597e-57
-5.89508e-56
-4.98389e-58
-4.84844e-56
1.48962e-56
-2.49119e-55
1.14458e-58
-5.14676e-60
-4.85729e-58
4.05021e-61
-3.01003e-58
-1.12662e-58
2.19783e-58
9.27096e-62
-2.26344e-57
-3.37264e-57
7.84928e-58
3.26827e-59
2.33045e-57
-1.94382e-56
-4.3458e-58
3.74554e-58
-3.97501e-58
-1.72881e-61
7.67673e-58
-3.67573e-57
4.54008e-59
4.19411e-60
-3.31438e-59
-2.45323e-61
-3.26826e-58
4.06359e-58
3.24094e-59
2.33038e-59
7.32861e-60
-9.60994e-62
-1.60662e-57
1.53946e-58
-1.52942e-56
8.6954e-53
-5.02808e-51
2.57213e-51
-7.15487e-55
-4.11417e-51
5.21515e-53
1.36584e-51
4.04889e-51
-1.72911e-50
3.94981e-50
-1.19994e-49
1.7889e-51
-1.44699e-50
3.10397e-50
-6.7288e-50
2.15348e-50
-3.98858e-49
-1.78737e-47
-9.91407e-50
-4.80384e-48
7.99156e-48
2.1972e-47
1.36109e-47
-6.43716e-47
1.1217e-47
-1.29132e-51
7.53242e-46
-8.40039e-46
-4.48312e-46
-1.57813e-46
6.43878e-46
6.52002e-46
-1.93493e-45
3.05996e-46
-4.2125e-31
1.16784e-32
1.76717e-31
-7.19382e-33
6.0297e-31
2.92074e-31
-1.71729e-30
8.29824e-31
1.55726e-31
-1.1613e-31
-2.91444e-31
6.01233e-31
-2.27703e-31
-3.43894e-34
2.2744e-31
-2.91063e-31
9.18823e-31
-8.23555e-20
2.33245e-20
2.97522e-20
-3.12372e-21
1.67297e-19
1.13264e-20
-2.92543e-19
5.27145e-20
1.18116e-19
-9.94904e-21
-5.3382e-21
4.6734e-20
-1.07688e-20
-3.07054e-21
1.64702e-20
-1.35389e-20
7.19607e-20
-1.55491e-16
-7.03515e-16
6.9244e-16
3.81984e-16
1.72584e-17
3.02945e-16
-1.48439e-16
1.96204e-15
-2.16604e-15
-7.85298e-17
-1.6217e-15
2.63228e-15
-5.30016e-16
1.1446e-15
-1.12639e-16
1.7621e-16
5.27687e-16
1.14803e-05
3.56755e-08
-1.13342e-05
-2.00675e-07
-9.20253e-06
-8.69335e-06
2.84438e-05
-1.02992e-05
9.62213e-08
1.29396e-05
9.27346e-06
-3.35594e-05
1.34686e-05
-7.4098e-07
-6.79545e-06
1.13993e-05
-9.00193e-06
-8.08693e-15
5.41366e-15
1.08739e-14
-2.74841e-14
2.89749e-14
4.42474e-14
-1.23014e-13
8.15416e-15
1.01017e-14
-1.79657e-15
-1.54083e-14
1.76329e-14
-4.55913e-14
4.13339e-14
1.8804e-14
-4.14568e-14
5.5923e-15
3.89019e-11
7.78509e-11
-3.07145e-11
-1.11063e-10
1.04974e-10
9.67003e-11
-3.40282e-10
2.55432e-11
9.5675e-11
-7.52007e-10
9.35945e-11
5.41983e-10
6.11629e-11
-1.15719e-09
-1.37569e-10
1.70726e-10
-1.62189e-10
-6.00488e-11
-2.1229e-12
1.09491e-11
1.34673e-11
3.48124e-11
1.87334e-11
-2.16976e-10
-3.57336e-13
7.47914e-12
5.75073e-12
-1.8309e-11
-1.84665e-12
-3.12487e-12
6.20287e-12
2.22396e-11
-6.49659e-11
1.19895e-11
1.02324e-09
1.91494e-09
7.06023e-11
-4.4375e-09
-1.17635e-10
7.01311e-11
3.87685e-10
2.38595e-10
6.09173e-10
1.39462e-10
-1.63742e-10
-2.24909e-12
-8.7745e-11
4.35635e-10
3.20822e-10
-8.28344e-10
-6.99992e-12
-4.82735e-10
4.38665e-10
-4.04456e-09
2.5075e-09
-4.46729e-09
-1.59792e-12
-5.13616e-11
-8.56179e-11
2.82609e-10
2.02021e-11
7.40821e-10
2.08156e-11
-1.42445e-10
-7.29318e-12
-3.94492e-10
-4.80256e-10
2.18806e-09
-7.57491e-10
9.90487e-10
5.40394e-11
1.4253e-09
-1.29051e-09
1.06468e-09
-7.81254e-10
1.51181e-10
1.03791e-09
1.2793e-09
-3.35104e-09
-2.193e-09
2.25214e-09
2.60412e-09
2.66039e-09
-4.44827e-09
1.84747e-09
-3.66184e-11
4.34212e-09
-6.83584e-10
-1.00733e-08
-1.38271e-08
3.40314e-08
7.98664e-09
-3.54931e-08
3.74541e-08
-2.70479e-09
7.80271e-10
-5.40871e-09
1.96454e-08
-7.78244e-09
1.242e-08
-1.70522e-08
2.95796e-09
-1.19145e-08
2.48193e-09
-1.44926e-11
6.35746e-10
3.74768e-10
-1.94599e-09
2.4026e-10
-1.2628e-09
7.67482e-10
2.43997e-10
1.31855e-10
-1.2961e-09
4.57131e-10
4.63327e-10
1.85283e-09
-3.21251e-09
5.08974e-10
-9.9497e-10
7.21681e-10
1.09298e-10
9.64792e-11
-1.95728e-10
-4.22059e-11
-3.90141e-11
-2.89029e-10
3.58591e-10
-7.49172e-10
7.27717e-10
1.28245e-10
4.53144e-10
-7.9347e-10
1.01476e-10
-3.60393e-11
-3.39632e-10
1.1096e-10
-7.24633e-10
1.81217e-11
4.73705e-12
-3.1646e-11
-3.18893e-12
-1.66919e-11
-2.55754e-11
4.40477e-11
-6.25019e-11
2.5459e-11
2.79994e-11
5.87676e-11
-1.43235e-10
1.84195e-11
-9.36307e-13
-2.52877e-11
1.03478e-11
-6.43495e-11
-1.68189e-09
3.07098e-10
5.56511e-10
-5.33862e-11
2.13351e-09
1.4511e-09
-8.07717e-09
5.78389e-10
6.06297e-10
-5.66886e-10
-1.75841e-10
6.88081e-10
-1.10957e-09
-1.84088e-10
1.11566e-09
-2.26267e-09
8.54218e-10
9.21998e-15
-2.44379e-16
-9.89531e-15
4.99129e-15
-1.77772e-15
-2.39481e-15
1.4489e-14
-2.83685e-16
-4.73439e-15
-5.36365e-15
2.3891e-15
-1.81099e-17
5.26433e-15
-2.05555e-14
-4.18319e-15
2.12899e-15
-1.45262e-14
1.03623e-23
-2.16459e-24
-3.56851e-23
3.80339e-24
-1.09479e-23
-8.48765e-24
2.22856e-23
-2.11316e-23
-1.14847e-25
5.46361e-23
1.72895e-23
-1.36054e-22
2.17889e-23
1.83331e-23
-2.13809e-23
2.6502e-23
-3.54019e-23
-1.38091e-44
-1.04456e-43
-1.94743e-44
2.2323e-44
1.16527e-46
-1.90566e-43
-6.537e-48
-2.79101e-42
-2.67069e-45
3.54048e-42
1.9565e-42
-5.12223e-41
2.43294e-43
8.91481e-46
1.66563e-43
-1.88938e-43
4.65004e-44
-1.85101e-55
-6.84517e-55
-2.26472e-55
1.41546e-55
-1.02267e-55
-3.22905e-54
4.31719e-56
-2.99164e-53
-2.29825e-55
6.30956e-53
6.12211e-53
-1.22354e-51
3.65997e-54
-1.13167e-55
-1.69974e-54
6.78342e-55
4.20517e-54
-8.02266e-62
3.96287e-57
-8.22096e-57
6.26357e-59
2.75638e-60
-1.21093e-59
-2.27451e-61
-8.93329e-58
3.5496e-57
1.71172e-59
8.17356e-60
-6.13825e-59
6.056e-60
-1.04587e-63
9.7228e-57
-3.44827e-56
4.102e-57
-1.19892e-23
-1.73012e-23
-1.65204e-23
3.32792e-23
6.01593e-25
-2.16186e-23
-1.14596e-25
-4.40973e-23
9.26585e-25
5.88399e-23
3.96694e-23
-1.67791e-22
4.157e-23
4.06013e-24
1.34383e-23
-6.40294e-24
2.65792e-23
-9.12489e-21
-9.36606e-21
-1.05687e-20
2.71718e-20
9.20304e-22
-9.40734e-21
-1.32886e-21
-1.34361e-20
1.35996e-21
1.61038e-20
8.04183e-21
-3.56765e-20
1.41123e-20
5.25723e-21
5.36948e-21
-6.04668e-21
9.53745e-21
-3.61683e-10
-1.77608e-10
1.5664e-10
2.9234e-10
1.37056e-11
6.86392e-10
-1.2099e-09
1.84786e-10
-3.21554e-10
2.25565e-10
-1.80134e-10
2.93679e-10
-8.42096e-11
6.6136e-10
-1.90086e-10
9.96913e-10
-1.50947e-10
-3.92378e-10
-1.05818e-09
2.12505e-10
1.26792e-09
-4.7742e-10
2.90172e-10
-1.60123e-10
-5.3578e-11
-1.45525e-09
-3.08701e-10
1.56241e-10
3.33651e-10
-1.39053e-10
-4.77011e-10
-5.43593e-10
7.37227e-10
-8.20979e-10
-9.13855e-11
2.20706e-11
6.0945e-11
1.17432e-11
7.85278e-11
-1.3135e-11
-1.49724e-10
8.7631e-11
1.25628e-10
9.30619e-11
-1.66781e-10
2.35649e-10
-1.99167e-10
5.199e-10
1.31735e-10
-3.53708e-10
9.30005e-12
-1.06538e-10
-1.51154e-11
1.91489e-10
4.94433e-11
-2.03027e-11
-1.36518e-12
-4.32014e-11
-4.05386e-11
-7.75227e-12
8.62768e-11
-6.56849e-11
-9.88006e-11
7.61195e-11
2.99173e-11
-1.50049e-11
1.04755e-10
9.48825e-11
1.10374e-12
6.94834e-12
-1.11084e-11
-9.45665e-12
2.33833e-12
-7.86459e-12
9.50816e-13
-1.06941e-13
3.83888e-12
1.45934e-11
5.24671e-12
-4.80653e-11
2.77451e-12
4.3512e-12
-1.93816e-11
1.00883e-11
-5.76438e-11
-1.42308e-11
-8.67852e-12
1.75653e-12
1.00819e-11
9.51407e-12
-1.33926e-11
-2.9572e-11
7.06796e-12
-2.62956e-11
-3.43795e-11
1.06751e-12
2.22197e-11
-2.17578e-11
-8.05183e-11
2.70665e-11
-1.00989e-10
1.44412e-11
-1.10912e-11
5.59509e-09
-4.53891e-09
-2.60285e-09
5.29899e-11
-3.13218e-09
2.02306e-09
4.96135e-10
4.28782e-09
1.82532e-09
-5.70438e-09
-1.81749e-08
-2.63034e-09
-2.34802e-09
1.58975e-09
-8.23673e-09
-2.37302e-09
-4.8613e-07
2.73223e-07
-5.15988e-08
2.77169e-07
5.85044e-08
8.06688e-08
-6.26353e-07
-5.95123e-07
8.57621e-07
2.99776e-08
4.52708e-08
-1.22321e-07
8.08779e-08
2.31621e-07
4.74542e-07
-2.85314e-07
1.57804e-07
-4.42949e-11
2.19033e-10
4.93763e-11
-3.12231e-10
2.93221e-10
-4.05723e-10
-3.29936e-11
-1.85951e-10
6.42374e-10
-2.9679e-10
2.62121e-10
3.3447e-11
7.14757e-10
-1.452e-09
1.84728e-10
-2.00148e-11
1.98322e-10
-5.60472e-20
-5.82539e-21
2.42363e-20
2.91916e-20
3.25063e-20
8.28105e-21
-7.07524e-20
-7.51613e-22
1.36265e-20
3.1407e-21
-4.68809e-21
-5.29252e-23
-2.58608e-21
1.40314e-20
6.64588e-21
-1.12748e-21
2.1843e-20
4.54561e-15
-1.82729e-14
1.40721e-14
-1.16479e-13
-3.26509e-14
2.28601e-15
1.41149e-15
4.50375e-14
-4.3171e-13
-4.42013e-16
-1.86633e-15
8.55843e-16
-9.28506e-15
1.21238e-15
-3.10842e-15
1.09286e-15
-2.08347e-14
5.12101e-11
5.86398e-11
5.34848e-11
-3.02856e-10
2.03802e-12
1.74753e-11
-1.48568e-11
1.37936e-11
2.02424e-12
-4.57587e-12
-7.07339e-12
9.38452e-12
-2.02802e-11
1.99517e-12
-1.03117e-11
5.45173e-12
-1.12925e-11
2.15982e-20
2.86659e-20
3.37642e-20
-2.45775e-19
3.49079e-19
1.54753e-18
-5.08969e-18
1.47079e-20
5.80327e-20
3.4323e-21
-7.77856e-21
3.17711e-21
-3.96928e-19
2.01451e-19
-2.61466e-21
2.65441e-19
-4.79504e-22
-8.84094e-30
-9.44591e-29
-5.87294e-28
7.33873e-28
2.13185e-31
-1.90434e-29
-3.19435e-32
-4.94896e-29
2.3174e-30
6.80515e-29
3.67855e-29
-2.7386e-28
1.86826e-27
1.74849e-28
1.83701e-29
-2.96678e-29
1.74332e-27
-5.72499e-46
-9.41241e-49
1.38954e-47
2.17348e-48
5.75761e-46
3.47895e-46
-1.00672e-44
3.45678e-47
2.6888e-48
-1.10102e-47
-1.13424e-47
4.48956e-48
-1.78598e-46
2.4906e-49
8.83892e-47
-1.32338e-45
2.80809e-48
1.42472e-47
2.25345e-46
-6.33239e-45
7.12827e-47
-1.01047e-45
8.35329e-48
3.70637e-47
7.66603e-45
-1.94071e-43
-2.18169e-44
5.98605e-53
6.04357e-54
-2.28826e-51
-1.33478e-53
-1.86115e-53
-1.65984e-53
1.66637e-53
-2.94833e-52
2.30273e-54
4.6238e-51
4.2069e-51
-7.93797e-50
2.9235e-52
-2.23132e-52
-3.4409e-52
1.38125e-52
6.79114e-53
9.00406e-51
5.24436e-52
-2.60005e-49
-5.87864e-52
-2.95011e-49
1.91871e-50
1.95939e-51
-3.19074e-48
1.82895e-51
-1.1124e-55
-1.3987e-55
-8.121e-56
4.46344e-56
-1.96573e-56
-1.10372e-54
-6.01095e-55
1.89357e-54
-1.70048e-53
2.45881e-55
-8.15819e-19
1.38236e-19
6.12433e-19
-8.2147e-20
9.99247e-19
5.01681e-19
-2.11232e-18
8.01331e-19
4.56404e-19
-5.83449e-19
-6.48601e-19
1.7949e-18
-5.36341e-19
-6.85496e-20
2.63707e-19
-2.01844e-19
4.7301e-19
1.86251e-11
1.03892e-11
-2.64892e-11
-4.74519e-11
-1.1147e-11
-3.02923e-11
3.80682e-11
-4.94638e-11
4.60211e-11
-2.72624e-11
2.79751e-11
-4.31772e-11
5.73292e-11
-2.35715e-10
-3.59363e-11
2.46883e-11
-9.00457e-11
-1.53745e-11
-4.62336e-12
8.87295e-12
2.64014e-11
-1.08952e-11
9.4729e-11
-7.28317e-11
1.30648e-11
-2.18436e-11
4.21971e-11
-2.30725e-11
2.93998e-11
-1.25432e-10
2.17395e-10
-8.70323e-12
5.93558e-11
-5.95786e-12
4.36707e-12
1.37986e-11
-2.28709e-12
-1.47606e-11
7.1623e-12
-1.98419e-12
1.32281e-12
1.64932e-13
7.01509e-12
-4.40965e-12
-3.04651e-12
2.1719e-12
5.58322e-12
-6.04052e-12
5.63323e-12
-1.35904e-11
3.77253e-17
7.51307e-17
-2.01621e-18
-1.8003e-16
5.5711e-18
7.69215e-18
-2.3769e-18
9.15806e-18
3.3809e-17
-7.17137e-18
5.34485e-19
9.19669e-18
-2.19049e-18
-1.40077e-17
-8.0014e-18
1.10166e-17
-1.895e-17
-2.85403e-18
-8.91966e-19
2.92463e-19
2.00625e-18
-3.99592e-19
-1.86494e-17
3.07269e-18
-3.23126e-19
-2.69622e-18
5.03503e-17
-5.30538e-19
-1.24905e-16
2.35823e-18
2.43625e-17
1.57028e-18
-5.53952e-18
2.44435e-18
7.08628e-10
-7.47421e-11
-1.00281e-09
1.71584e-10
-1.57456e-09
-8.25464e-10
3.15412e-09
-1.95197e-09
7.5943e-11
1.00199e-09
1.16031e-09
-3.14085e-09
1.14978e-09
-9.02474e-11
-1.19137e-09
1.56611e-09
-1.91953e-09
-2.52019e-10
2.50071e-10
9.41152e-10
-8.72247e-10
4.95749e-10
8.27759e-10
-1.64948e-09
1.2401e-10
5.02535e-10
7.28071e-10
-8.90964e-10
9.32713e-11
-7.686e-10
2.0716e-09
3.09356e-10
-3.16324e-10
5.38535e-10
-1.9144e-24
-1.43709e-22
2.56033e-25
1.16984e-24
-3.34384e-22
-7.44617e-25
7.19784e-24
8.59594e-23
-1.33527e-20
6.83278e-25
-5.43227e-23
3.28915e-25
3.57045e-27
7.70027e-26
-9.43611e-23
2.3626e-24
-2.5634e-21
5.44006e-23
-3.68749e-21
2.0211e-23
-1.32652e-23
2.88811e-24
8.85937e-21
-1.27733e-19
7.02867e-22
2.2131e-22
2.51127e-23
4.622e-12
2.9119e-12
-1.2542e-12
-9.75484e-12
-7.28149e-13
3.20497e-13
3.32913e-12
-1.95939e-12
8.23827e-13
3.42499e-12
-4.13495e-13
-8.27781e-12
6.789e-13
1.46063e-12
-3.22635e-12
2.7221e-12
-7.43454e-12
-9.11578e-10
1.10385e-09
1.95082e-09
-2.04788e-09
1.71643e-09
1.64111e-09
-4.17888e-09
6.71852e-10
1.29306e-09
-1.07875e-10
-1.88222e-09
1.49015e-09
-7.91702e-10
1.59219e-09
3.1948e-10
-5.04099e-10
3.72523e-10
-1.73391e-10
-1.00079e-11
-2.4338e-11
1.19215e-10
4.89424e-12
-1.97344e-11
-6.91106e-10
-1.25069e-11
-1.58723e-11
6.66889e-12
1.35279e-11
-6.52643e-11
3.63486e-11
-8.656e-11
1.18748e-11
-3.5271e-11
9.51552e-12
-2.34577e-08
5.52483e-08
1.31174e-07
-1.60567e-07
7.03255e-09
-8.10706e-09
-6.72152e-09
-8.58311e-09
9.578e-08
8.19215e-08
1.36792e-08
1.91095e-08
1.19789e-07
-3.01211e-07
2.45702e-08
-1.57737e-08
1.74078e-07
-6.83036e-18
-2.33002e-19
-6.78132e-22
3.78853e-18
1.40865e-18
-6.31352e-23
-1.97782e-17
-7.97605e-23
9.04084e-20
2.54787e-22
2.97836e-23
-2.72877e-22
1.44551e-20
2.43257e-20
9.69748e-23
-2.56914e-22
8.483e-21
1.79178e-29
-1.9478e-28
-1.04164e-28
6.13096e-29
-3.0981e-28
-1.52592e-27
5.48758e-28
-3.78797e-27
-1.61875e-28
-2.83441e-29
8.57982e-27
-4.68589e-26
2.3626e-28
-1.15534e-27
-3.32047e-29
8.97832e-28
-1.20243e-28
1.52637e-17
2.37808e-19
-3.61785e-17
4.30078e-19
-1.13946e-17
-1.65012e-17
3.3922e-17
-2.13408e-17
1.94216e-18
4.60602e-17
3.543e-17
-1.3528e-16
3.52658e-17
3.20632e-18
-1.25007e-17
2.61883e-17
-3.2151e-18
-1.70938e-17
6.32227e-15
2.70636e-14
-1.23004e-13
-4.16274e-17
1.09973e-17
-1.09075e-16
1.90847e-16
7.91029e-16
2.19257e-17
-1.77398e-18
1.60762e-17
-5.82156e-15
2.34921e-15
9.22817e-19
-1.09666e-18
3.8458e-15
-7.13219e-18
3.973e-19
4.73918e-19
-8.10826e-21
1.61635e-17
4.52449e-19
-7.18724e-17
1.01717e-18
3.42463e-18
-2.12268e-20
1.94899e-21
1.45861e-19
-7.72879e-20
-2.16771e-20
1.55904e-19
-7.76918e-20
3.91088e-19
-2.52497e-38
-3.61836e-41
6.21357e-40
7.62683e-41
2.60979e-38
1.52191e-38
-4.71566e-37
1.54219e-39
1.00498e-40
-1.20485e-39
-7.34469e-40
3.33307e-40
-1.24951e-38
-5.30979e-39
6.44086e-39
-1.04068e-37
1.95348e-40
2.00556e-40
1.07189e-38
-3.01608e-37
6.75639e-39
-8.44305e-38
1.80282e-41
2.23853e-39
3.73442e-37
-9.54933e-36
-1.93903e-36
-6.83222e-48
6.51629e-45
-1.62887e-46
-1.74686e-43
8.59389e-46
-1.18803e-44
-6.665e-49
-1.21251e-45
1.39056e-45
-2.21909e-43
1.51664e-44
1.19906e-46
1.22416e-43
-3.21404e-42
1.03889e-44
-1.17447e-44
2.89317e-45
-3.91392e-37
-3.13429e-38
1.42525e-37
2.32815e-38
3.3731e-37
3.39213e-37
-1.12328e-36
1.95728e-37
-8.14325e-40
-4.84953e-36
-2.19552e-36
4.2945e-36
-1.43223e-35
1.82796e-36
3.95722e-36
-2.42124e-35
4.57553e-37
-8.44256e-32
-4.88797e-33
2.41585e-32
5.13074e-33
7.94185e-32
8.49745e-32
-4.24822e-31
2.97178e-32
-8.55045e-34
-1.20873e-31
-1.79416e-32
2.39883e-31
-5.47096e-32
6.53956e-32
2.2386e-32
-4.88248e-32
1.30158e-32
3.07664e-20
2.71e-19
-3.29163e-19
-4.07863e-19
2.72209e-19
-5.12491e-19
5.85443e-20
-4.96737e-18
-3.51938e-18
1.31519e-19
-1.11748e-18
-2.50723e-18
-5.56817e-18
-6.4911e-18
-4.01091e-17
-1.07405e-17
-1.31746e-18
4.72963e-17
1.0734e-17
-1.42899e-17
-4.73181e-17
1.50563e-18
-1.48582e-17
2.07807e-17
-1.85113e-17
-2.08907e-17
-1.59077e-17
3.1496e-17
-3.02658e-17
-7.05536e-17
-3.27114e-16
-2.71321e-16
-1.64119e-16
-2.84107e-16
-5.3543e-16
-1.23416e-05
-1.00743e-05
-1.03931e-05
3.28586e-05
-3.34104e-07
-1.29172e-05
9.07913e-07
-9.84614e-06
-5.40524e-07
9.5946e-06
7.57693e-06
-2.702e-05
1.0295e-05
-1.21217e-06
5.48556e-06
-1.08262e-05
5.40192e-06
-5.84128e-11
-2.90107e-11
-1.70021e-10
2.46003e-10
1.8832e-11
-1.3119e-10
-2.73055e-11
-1.24541e-10
2.78902e-11
1.39966e-10
4.59186e-11
-1.64846e-10
8.76268e-11
3.15147e-11
-8.79223e-11
3.0137e-11
-1.3398e-10
2.36428e-14
-1.82659e-14
-4.76515e-15
1.36847e-14
-9.15797e-14
1.38062e-14
1.32711e-13
-3.2766e-15
-7.37423e-14
1.62334e-14
-4.432e-15
-8.74569e-15
3.45736e-15
3.85275e-14
-2.01985e-14
5.02758e-14
-1.9295e-14
1.12947e-16
-8.50553e-16
3.33719e-16
-4.51508e-18
-8.33529e-16
1.04033e-16
2.14384e-16
9.78571e-16
-3.44632e-15
2.93639e-16
-1.22436e-15
5.47802e-16
-3.42653e-16
5.52348e-16
3.51843e-16
-1.13503e-15
9.989e-17
9.09853e-15
-7.0049e-15
4.74788e-14
-3.85951e-17
1.67873e-14
9.42525e-14
-1.4553e-14
1.30903e-13
4.91985e-14
-5.70681e-13
-1.87606e-13
1.42108e-12
-6.51216e-14
1.27935e-12
2.30966e-15
-1.92041e-14
-1.68748e-15
4.08912e-11
-2.05018e-11
-5.02325e-12
3.49857e-11
-7.33768e-11
1.13812e-11
1.2894e-10
-5.1921e-13
-7.7103e-11
1.56592e-11
-3.56156e-12
-1.18794e-11
3.16453e-12
4.48692e-11
-9.295e-12
3.19275e-11
-7.47933e-12
6.8731e-10
2.82644e-10
4.37164e-11
-1.49472e-09
-1.19693e-10
7.81255e-11
4.42461e-10
8.92722e-11
-3.44695e-11
-7.69565e-11
1.87887e-11
8.46569e-11
-1.00958e-10
-9.57462e-11
-2.41195e-10
1.81199e-10
-5.81876e-10
5.82505e-11
5.29555e-11
1.52702e-11
-1.52102e-10
-5.14476e-11
5.15601e-11
2.87919e-11
5.06272e-11
-9.41492e-11
-1.21277e-10
-9.22945e-11
2.07557e-10
-3.58058e-10
4.72821e-11
-2.049e-10
1.10785e-10
-6.00225e-10
1.50584e-13
1.7029e-13
1.42056e-13
-1.35137e-12
6.65781e-15
2.00337e-14
-1.63844e-14
1.83258e-14
1.7709e-14
7.37322e-16
-3.23178e-15
3.43087e-15
-3.31131e-14
9.41101e-15
-1.22272e-14
2.73742e-15
-7.19235e-14
2.08324e-07
-5.02091e-08
-1.26739e-07
-8.42774e-08
3.59913e-08
-2.64054e-09
8.87126e-08
1.73959e-07
-2.23149e-07
6.71812e-08
-6.8035e-09
-2.4404e-07
-8.28478e-09
1.48375e-08
3.75063e-08
-3.32116e-08
3.40068e-07
5.89922e-08
9.03696e-09
1.20304e-08
-8.0042e-08
-2.89654e-08
-3.57968e-08
1.2402e-07
-4.68424e-08
2.70846e-08
-1.32435e-08
-4.45559e-08
1.11852e-08
1.21532e-07
-1.04288e-07
-5.09436e-08
1.87597e-08
3.58079e-08
-5.22899e-08
-8.06653e-09
4.91105e-09
5.5448e-08
2.97804e-08
8.44017e-08
-1.66536e-07
-2.7126e-08
4.86657e-08
7.6535e-08
-4.64073e-09
-6.69844e-08
3.33218e-07
-1.73614e-07
4.84496e-07
-5.17645e-07
8.4735e-07
-8.26226e-08
-2.38326e-07
4.45571e-07
-1.43594e-07
-3.41422e-07
-9.45315e-15
-1.84594e-13
1.21178e-14
1.01575e-13
-1.7776e-13
1.20562e-13
-1.074e-15
2.86704e-13
-8.82915e-13
2.76336e-11
-5.48985e-11
2.85879e-11
-1.42978e-11
4.20148e-11
-2.18108e-11
9.14729e-12
-6.76788e-11
5.77342e-29
-4.14306e-28
-1.22184e-27
4.86636e-28
-5.25263e-28
-8.79451e-28
4.70547e-28
-2.63464e-27
-3.3725e-27
5.90673e-28
5.73349e-27
-2.95729e-26
6.29452e-27
-3.38537e-26
-3.69474e-28
1.0445e-27
-6.95616e-29
1.68708e-22
2.70079e-22
9.17895e-23
-1.2359e-21
9.90592e-24
2.77883e-23
-7.36028e-23
4.21352e-23
4.35415e-23
-3.97843e-22
-2.56055e-23
1.89676e-22
-2.76053e-22
-1.26821e-21
2.67118e-22
-1.236e-21
9.69395e-23
6.49658e-19
8.39636e-19
5.02355e-19
-3.41482e-18
4.65801e-21
3.68951e-21
1.15773e-19
2.4044e-19
5.73479e-20
5.87597e-19
-1.89668e-18
1.17822e-19
-3.38591e-19
5.52245e-19
-1.302e-18
5.5025e-19
-4.45326e-18
-3.38833e-27
1.49959e-28
7.89977e-29
-3.28555e-32
1.11493e-26
-1.3896e-32
-8.14715e-26
2.88924e-29
1.9563e-27
-6.36361e-32
3.29749e-30
9.20051e-30
-1.92696e-33
-7.30111e-31
3.13692e-32
-3.33721e-31
7.88333e-30
-1.69026e-35
-1.71822e-34
-2.36628e-35
4.19249e-35
-1.90062e-35
-2.41474e-34
5.17361e-36
-4.10055e-33
-3.80817e-35
-1.88083e-34
-4.70398e-34
1.14257e-34
-5.27953e-33
4.31136e-34
6.62855e-33
-1.01626e-31
-2.86581e-35
1.23723e-35
3.19902e-36
-7.95879e-36
5.74995e-37
-2.30038e-33
-2.15881e-33
-2.30784e-33
4.85029e-33
-4.02023e-34
-4.84568e-33
9.38678e-34
-4.69843e-33
-4.81481e-34
4.46586e-33
3.69668e-33