/*--------------------------------*- C++ -*----------------------------------*\
| =========                 |                                                 |
| \\      /  F ield         | OpenFOAM: The Open Source CFD Toolbox           |
|  \\    /   O peration     | Version:  v2012                                 |
|   \\  /    A nd           | Website:  www.openfoam.com                      |
|    \\/     M anipulation  |                                                 |
\*---------------------------------------------------------------------------*/
FoamFile
{
    version     2.0;
    format      ascii;
    class       volScalarField;
    location    "0.1";
    object      alpha.water;
}
// * * * * * * * * * * * * * * * * * * * * * * * * * * * * * * * * * * * * * //

dimensions      [0 0 0 0 0 0 0];


internalField   nonuniform List<scalar> 
24700
(
1
1
1
1
1
1
1
1
1
1
1
1
1
1
1
1
1
1
1
1
1
1
1
1
1
1
1
1
1
1.13682e-16
4.46717e-16
6.75242e-16
1.79874e-16
8.77094e-16
6.5601e-16
3.06335e-15
3.81792e-07
1.35758e-07
7.36563e-08
4.55748e-08
5.95373e-08
6.74652e-08
1.83921e-07
8.25312e-05
0.000143016
0.000360485
9.22456e-05
7.03779e-05
0.000100485
0.000249702
9.47451e-05
5.74688e-05
0.000202257
0.000104422
5.46606e-05
9.90356e-05
0.000197913
0.00105427
0.00101479
0.000866363
0.00392985
0.00359369
0.00103898
0.00199242
5.99865e-09
1.27898e-08
2.50973e-09
8.26833e-09
9.72813e-09
2.18066e-08
2.42549e-09
2.10362e-05
1.29063e-05
1.373e-05
8.28483e-06
6.00497e-06
7.73142e-06
1.73417e-05
0.529312
0.0940316
0.971997
0.518105
0.0565833
0.740334
0.93824
1.90193e-05
9.87557e-06
5.29298e-06
1.90193e-05
1.8928e-05
2.065e-05
1.2664e-05
6.39033e-15
7.27606e-15
3.68777e-15
7.19382e-16
1.89393e-15
1.26738e-15
3.64816e-15
8.81675e-25
1.32236e-24
2.69003e-24
3.88311e-24
1.27833e-24
2.3263e-24
5.2359e-24
1.05698e-24
9.97151e-26
4.42342e-26
3.09921e-27
3.47791e-27
1.13756e-26
4.85164e-26
2.7305e-59
1.75313e-59
5.63751e-59
1.0028e-58
5.87282e-58
1.83663e-58
4.52311e-59
1.12817e-59
6.77244e-60
3.50847e-60
2.7085e-56
1.8464e-55
1.08124e-55
3.41424e-54
6.55004e-55
1.20114e-54
1.37484e-55
6.44417e-55
4.35675e-53
5.79308e-54
6.87962e-58
2.95327e-57
2.50744e-41
5.02603e-42
7.59002e-42
1.15924e-40
3.05546e-40
4.38778e-40
1.27939e-40
2.09975e-16
9.11215e-17
6.77925e-17
6.75319e-16
4.01127e-16
2.09284e-16
1.81312e-16
0.000387618
0.00014949
8.31931e-05
7.0478e-05
0.000101404
0.000106684
0.000274899
4.57945e-06
1.43434e-05
3.61434e-06
4.09956e-06
7.12568e-06
7.09108e-06
2.45609e-06
0.000118184
0.00017291
0.000187351
0.000175835
0.000118731
7.82596e-05
0.000187416
2.54985e-05
4.02282e-05
2.52897e-05
3.54268e-05
2.89851e-05
2.52897e-05
2.52784e-05
0.000147803
0.000116696
0.000121698
0.000305913
0.000213395
0.000231974
0.000183628
8.77468e-05
8.77053e-05
8.77053e-05
0.0001009
8.77468e-05
0.000139457
8.77468e-05
5.37992e-05
2.83803e-05
0.000149354
4.15803e-05
0.000181157
2.18856e-05
6.96061e-05
4.80753e-08
3.79228e-08
2.18101e-08
7.99383e-08
2.60745e-07
1.07177e-07
3.85378e-08
0.856494
0.756981
0.953878
0.743014
0.908397
0.952463
0.937859
0.000850682
0.00237007
0.00237203
0.000792237
0.000784401
0.00237365
0.00219629
3.34323e-10
3.77425e-11
1.39157e-12
5.65356e-12
5.82827e-11
1.78437e-12
1.85142e-10
5.74274e-05
4.24066e-05
6.14231e-05
0.000161821
0.000101942
0.000107291
0.000143007
1.3376e-05
7.94696e-06
9.88126e-06
1.3376e-05
6.98001e-06
3.7625e-06
5.46117e-06
9.84124e-07
9.84124e-07
3.50494e-06
3.30717e-06
9.84124e-07
1.58408e-06
2.67631e-06
0.00202348
0.00111325
0.000888968
0.00153773
0.00195927
0.00195927
0.999782
0.998853
0.994424
0.999957
0.999417
0.999609
0.815183
0.103705
0.253382
0.105745
0.046889
0.0581673
0.118739
0.00417024
0.0411896
0.0713239
0.0709309
0.0439759
0.110029
0.0390236
0.00109267
0.00199593
0.00085165
0.00906105
0.00285803
0.000863908
0.00368949
0.000164334
0.00065623
0.000149907
1.65063e-05
9.92755e-05
0.000130982
8.02421e-06
1.61386e-05
3.24223e-05
1.62272e-05
3.18946e-05
6.08769e-05
8.72938e-05
4.09946e-05
3.48861e-05
3.51184e-05
5.96918e-05
4.15421e-05
6.6973e-05
2.86718e-05
0.00010367
2.44834e-05
4.51512e-05
4.77557e-05
0.000188737
8.13649e-05
2.93308e-05
2.27976e-05
1.92048e-08
6.22299e-09
1.85489e-08
2.39874e-07
5.06643e-08
1.77129e-08
7.70107e-08
0.0124217
0.0209046
0.00621914
0.0106882
0.00568946
0.0158433
0.00933203
4.36188e-05
2.07523e-05
2.3063e-05
9.64757e-05
3.62197e-05
5.18004e-05
5.15374e-05
1.5061e-23
1.08947e-23
2.86913e-23
5.99355e-23
4.64358e-23
2.23853e-23
2.83079e-23
2.73692e-41
2.16831e-41
1.74285e-41
9.73628e-41
1.07679e-40
6.44578e-41
5.27189e-41
7.4585e-48
1.95363e-47
8.87621e-48
5.01003e-47
1.13469e-46
2.6752e-47
2.79724e-47
6.01959e-52
1.86471e-52
1.05775e-52
2.08046e-51
8.59552e-51
6.50128e-51
3.6579e-50
8.1166e-53
6.05027e-53
2.07942e-52
3.72506e-52
1.5369e-51
1.45388e-52
3.49342e-52
4.38613e-52
3.1212e-54
8.97962e-53
2.44609e-53
5.55383e-54
2.28331e-52
2.04395e-51
1.47322e-45
9.8225e-46
2.97138e-45
2.85456e-44
8.19017e-45
1.42468e-44
8.61244e-44
5.64639e-42
1.28712e-41
6.56991e-42
4.1441e-40
1.50045e-40
4.64766e-40
1.49125e-40
1.32223e-25
3.19758e-25
4.99258e-25
1.56937e-25
6.69668e-26
1.52077e-25
3.83278e-25
2.86001e-14
7.1409e-14
5.40872e-14
1.34784e-14
4.44648e-15
9.30634e-15
2.81658e-14
5.01593e-10
1.35794e-10
7.79913e-10
6.47196e-10
4.88083e-10
2.94346e-10
9.48311e-10
0.978615
0.784837
0.58257
0.978615
0.978739
0.952473
0.802757
4.224e-09
1.72057e-08
3.36257e-09
3.18677e-09
4.45064e-09
1.16019e-08
4.43546e-09
9.2307e-06
4.73463e-05
1.84303e-05
7.64325e-05
0.000128902
3.17503e-05
2.06323e-05
1.12147e-05
3.4461e-05
5.02695e-06
4.35472e-06
2.4966e-06
1.3242e-05
4.89501e-06
0.000527176
0.000221832
0.000312534
9.01489e-05
0.000150336
0.000282989
0.000235047
0.000415466
0.000724091
1.56481e-05
6.61059e-05
8.99778e-05
0.000219693
0.000484481
0.000422513
0.000249569
0.000139395
0.000316917
0.000416158
0.00081207
0.0010623
0.000666532
0.000725368
0.000691462
0.00555499
0.00896537
0.00300434
0.00442761
0.00305928
0.0123757
0.00441519
0.000502267
0.000482298
0.000294538
0.00067278
0.00151035
0.00101265
0.00043148
2.20208e-05
4.89736e-05
5.58915e-05
5.91627e-05
2.20253e-05
4.14741e-05
0.000157
4.70912e-06
7.36582e-06
1.32315e-05
1.44675e-05
4.63802e-06
6.54096e-06
2.7179e-05
7.3388e-05
0.000406004
0.000155086
6.56447e-05
6.7955e-05
0.000212815
9.82464e-05
3.04926e-09
1.30578e-09
4.67305e-10
5.38764e-10
1.22408e-09
6.69045e-10
2.14626e-09
6.26799e-18
4.14421e-18
3.88826e-18
2.09505e-17
1.24809e-17
9.34054e-18
1.06892e-17
4.6883e-39
6.6641e-39
6.56409e-38
1.79771e-36
1.25344e-37
9.36502e-38
1.77372e-38
3.68562e-50
1.5621e-49
4.15676e-49
1.78087e-47
1.07944e-48
2.24501e-49
2.657e-48
2.06277e-51
1.79035e-54
8.35845e-52
8.05131e-54
2.82971e-54
4.31163e-51
1.13655e-51
1.09101e-17
1.005e-17
1.625e-17
4.15287e-17
3.09594e-17
1.85287e-17
2.08412e-17
8.06135e-15
6.20691e-15
9.29557e-15
1.33611e-14
1.4331e-14
7.52053e-15
1.18361e-14
5.78513e-05
0.000129464
5.36933e-05
4.66228e-05
5.06662e-05
6.64731e-05
2.18085e-05
0.000132373
0.000132571
0.000132571
5.65429e-05
3.95655e-05
0.000108036
0.000105537
3.32186e-05
3.72645e-05
0.000137767
0.000137625
0.000132088
0.000100419
3.28349e-05
0.000131553
6.54669e-05
2.88395e-05
4.06703e-05
3.35927e-05
4.15141e-05
0.000112943
4.50743e-06
1.87328e-06
1.73095e-06
1.12821e-05
4.4604e-06
3.9333e-06
1.13074e-05
6.87992e-06
1.32998e-05
6.87762e-06
1.29701e-05
2.69001e-05
3.39995e-05
1.37492e-05
0.00127951
0.00208938
0.00128913
0.00573741
0.0016191
0.00502981
0.0111616
0.451112
0.972946
0.835945
0.0233512
0.184905
0.942374
0.442717
0.000119731
0.00022818
0.000120592
0.000118864
0.000243561
0.000410864
0.000156516
1.26611e-14
1.67498e-14
7.04892e-15
9.1926e-16
2.40364e-15
2.46774e-15
5.30037e-15
3.34982e-09
6.73528e-10
1.13245e-08
1.11768e-10
2.78674e-10
5.4069e-10
2.20096e-09
2.06899e-05
5.30155e-06
3.02263e-06
1.40594e-06
1.64932e-06
2.17809e-06
5.92793e-06
1.15586e-14
4.09668e-13
2.18293e-14
1.6164e-15
2.60492e-14
1.34478e-13
2.27762e-15
1.4165e-22
3.86377e-24
5.25031e-23
2.76776e-23
8.1631e-22
8.95566e-24
5.37021e-22
1.06374e-41
3.88377e-40
2.57662e-41
7.53312e-43
4.22958e-42
7.26682e-41
5.532e-42
9.47933e-41
3.50564e-41
7.53602e-42
2.61327e-39
4.76331e-40
2.93655e-47
3.90055e-48
1.17581e-47
1.11563e-45
6.90963e-47
2.55037e-47
1.87446e-46
3.6877e-45
1.41278e-46
7.41528e-45
1.08879e-43
3.01973e-46
4.81364e-51
2.32345e-50
8.58112e-50
2.4727e-49
2.84467e-50
7.08982e-13
9.31471e-13
9.91991e-13
6.1041e-13
4.49131e-13
4.91288e-13
8.34229e-13
3.2982e-05
1.9355e-05
2.29703e-05
2.1849e-05
3.47334e-05
1.5668e-05
3.50474e-05
6.95901e-06
2.12207e-05
6.70779e-06
1.63233e-05
4.09355e-05
6.75287e-05
6.3855e-06
6.48612e-06
2.01069e-06
2.48618e-06
2.00676e-06
3.56781e-06
4.27699e-06
6.77315e-06
2.50274e-11
4.49609e-12
1.0124e-11
1.62207e-12
1.66203e-12
2.90855e-12
3.14257e-12
3.77416e-13
1.62642e-12
2.06259e-13
1.09585e-11
4.12041e-12
5.06723e-13
5.49777e-13
0.000192773
0.000260652
0.000223892
0.000232478
0.000192791
0.000263637
0.000265126
0.00016996
0.000108756
0.000107963
0.000119084
0.000169189
0.000170538
0.000169971
6.39101e-18
2.30592e-17
1.02587e-15
5.10546e-18
2.54273e-19
1.07577e-17
3.43387e-16
1.31647e-16
2.5123e-18
7.34077e-15
6.79344e-16
3.05984e-17
3.65404e-06
1.31604e-06
1.02763e-06
2.6525e-06
1.03212e-06
1.0377e-06
2.47099e-06
0.000944735
0.0009457
0.000556395
0.000603117
0.000555057
0.0009457
0.000811433
2.02773e-05
0.000116258
9.94382e-06
2.26054e-05
3.75283e-05
1.83796e-05
1.76093e-05
0.195386
0.0139368
0.0887055
0.0733655
0.756686
0.0192948
0.0984041
6.23617e-13
2.04795e-12
1.05818e-13
4.67522e-17
7.22575e-15
3.69443e-17
1.23536e-15
2.41383e-23
1.26474e-22
2.08842e-22
3.29043e-21
1.27972e-22
7.22112e-22
4.43336e-23
7.2595e-12
5.66664e-12
4.99634e-12
1.65002e-11
1.35495e-11
1.02874e-11
8.09813e-12
9.53528e-09
4.89549e-12
2.47674e-10
8.85618e-12
3.04272e-10
5.01138e-13
2.21343e-09
2.15113e-13
3.0144e-12
6.16104e-13
2.24118e-14
4.83316e-15
4.51612e-14
7.53492e-14
5.52057e-34
2.04262e-32
1.31401e-33
6.39657e-35
5.19203e-34
6.07459e-33
4.16222e-34
5.05334e-33
3.4489e-33
4.9204e-34
1.44701e-31
4.38706e-32
4.1079e-39
4.15813e-40
2.92892e-40
7.85068e-39
1.12766e-37
5.85372e-39
1.10767e-39
9.29109e-32
2.54544e-31
1.26916e-31
8.69474e-31
2.91653e-30
7.02432e-30
1.26004e-30
1.65321e-26
5.71172e-26
1.66515e-26
5.48996e-26
8.47494e-26
2.89848e-26
1.21068e-26
1.43121e-13
1.06022e-13
6.79364e-13
1.76441e-13
1.67982e-12
9.82628e-13
2.32208e-11
5.44127e-11
9.09673e-12
2.17042e-11
1.16361e-11
8.57625e-12
1.30377e-11
6.7942e-11
1.72979e-10
1.015e-10
0.984997
0.992078
0.966242
0.990493
0.963734
0.992085
0.975529
0.000105859
0.000156539
0.000119113
6.82321e-05
0.000118501
7.93326e-05
7.42396e-05
1.44365e-08
3.048e-08
3.35203e-08
5.68266e-09
1.29352e-08
1.39866e-08
8.98392e-09
2.97367e-10
2.07119e-10
7.80879e-10
4.18661e-10
1.91308e-10
9.185e-10
2.86566e-10
2.05069e-08
3.81884e-08
3.48687e-08
1.19959e-07
4.0798e-07
3.74279e-08
1.42126e-08
1.30857e-05
1.09705e-05
6.76408e-06
1.83071e-06
7.61578e-06
6.75824e-06
1.51898e-06
0.000121418
4.90695e-05
4.12426e-05
1.5712e-05
1.18938e-05
2.87631e-05
5.18606e-05
5.42763e-05
3.01033e-05
3.01369e-05
3.25056e-05
8.03525e-05
6.5144e-05
0.000136317
2.37746e-07
3.13283e-08
1.94835e-08
3.42688e-09
7.04052e-09
6.87849e-09
4.60597e-08
0.315315
0.129451
0.915615
0.206435
0.070425
0.0281485
0.166849
0.999879
0.998917
0.999594
0.995272
0.971
0.997882
0.988248
0.999428
0.999628
0.998026
0.999812
0.997475
0.997865
0.987063
0.999772
0.999807
0.997572
3.56767e-08
3.55286e-08
1.07369e-07
1.83332e-05
5.72903e-06
5.4975e-06
2.00429e-05
3.00184e-22
2.96391e-22
8.07039e-22
4.13902e-21
6.39118e-21
1.17945e-21
1.5019e-21
1.33052e-16
2.36749e-17
3.49945e-17
5.4932e-17
2.27051e-16
2.02676e-16
4.85902e-17
4.1103e-13
7.85299e-14
1.41664e-13
3.32015e-13
1.2455e-13
2.84568e-13
9.12935e-13
8.9824e-23
3.39539e-21
4.00793e-22
3.21817e-24
2.11831e-26
1.33492e-26
2.28726e-24
1.20166e-29
2.25143e-29
8.19634e-29
3.68674e-29
3.22542e-28
1.97849e-27
1.48961e-28
9.94038e-30
1.20511e-30
2.49456e-30
9.67189e-28
1.29698e-27
1.3346e-27
2.87194e-27
1.70245e-27
2.20645e-27
1.42141e-27
3.44708e-07
6.26343e-07
9.97216e-07
5.29032e-08
2.40549e-07
3.6287e-07
8.25187e-07
1.35008e-06
1.14873e-06
2.1719e-11
7.99016e-09
2.93266e-09
1.07459e-07
3.97955e-07
6.18498e-07
2.42267e-06
1.12125e-06
5.12646e-07
1.22572e-27
4.84462e-10
3.2254e-09
1.07408e-06
3.54353e-07
1.0425e-07
4.49826e-07
2.77818e-08
3.16324e-07
1.27513e-06
1.43475e-08
8.06574e-08
6.48529e-10
4.88511e-10
6.24099e-10
1.07873e-10
3.20192e-10
1.43423e-10
3.82297e-10
1.37776e-05
1.33432e-05
4.10688e-06
1.36387e-05
2.46986e-06
2.00718e-05
3.04502e-06
2.16081e-06
5.59874e-06
1.97202e-05
1.95654e-05
9.16355e-06
2.8925e-06
2.74186e-06
4.10636e-09
9.36629e-10
4.53175e-10
1.42996e-10
4.89978e-10
3.09532e-10
1.77505e-09
6.84257e-07
9.55247e-06
2.85027e-06
2.09769e-07
1.53867e-07
1.85664e-06
5.2092e-07
8.84278e-05
0.000196775
7.57248e-05
7.58334e-05
7.59609e-05
9.21513e-05
0.000113712
0.000507794
0.000465605
0.000362186
0.000362186
0.000362186
0.000489056
0.00049954
0.000128542
0.000394469
0.000131083
0.000246751
0.000134461
0.00032413
0.000120133
0.999959
0.999633
0.999968
0.999439
0.999354
0.999252
0.997906
0.999305
0.996831
0.997061
0.998072
0.992534
0.99941
0.999146
0.993521
1.37697e-08
1.48127e-07
1.91638e-08
1.94877e-08
9.77811e-09
8.05251e-08
1.26454e-08
5.00824e-05
0.000267966
0.000130269
5.05955e-05
5.5287e-05
0.000129271
0.000110246
1.78715e-05
4.69963e-06
8.57186e-06
1.71865e-06
2.53199e-06
5.03733e-06
3.73584e-06
4.08656e-15
5.36798e-16
2.74963e-16
4.49693e-16
3.77671e-15
4.20515e-16
3.37144e-15
2.43797e-19
1.06515e-19
8.20479e-19
5.34943e-18
1.52384e-17
6.912e-19
2.25468e-18
1.22973e-28
2.11587e-29
3.76591e-28
1.79417e-27
1.58424e-26
1.54571e-28
1.60061e-27
4.95618e-15
9.57612e-15
7.97261e-14
1.82694e-13
1.09072e-12
3.37306e-14
6.80122e-14
4.86486e-19
1.07776e-18
5.94537e-18
1.31647e-16
9.19357e-18
1.14772e-17
1.41657e-18
1.72378e-20
1.33405e-21
2.3648e-21
4.10857e-19
4.31538e-20
5.2847e-21
2.78769e-20
4.70669e-15
1.53183e-15
1.43087e-14
2.24534e-14
2.59349e-13
4.29412e-15
4.21942e-14
1.3373e-23
4.16948e-27
4.78651e-25
5.94178e-23
5.07069e-22
3.10838e-27
3.26306e-25
1.21793e-16
1.08601e-15
1.00309e-15
1.55969e-14
1.90065e-15
5.30166e-15
3.68221e-16
8.37104e-06
6.64512e-06
6.38738e-06
5.29114e-06
2.06607e-06
2.00922e-06
2.16897e-06
0.000330093
0.00106172
0.00137306
0.000302791
0.000209787
0.000442049
0.000624658
9.6174e-07
7.20864e-07
7.23125e-07
1.43528e-06
9.62441e-07
1.72788e-06
1.02184e-06
6.99869e-07
7.01977e-07
1.13887e-06
1.06626e-10
2.38637e-11
6.40389e-11
1.85666e-11
1.70526e-11
3.90781e-11
8.66296e-11
0.000112249
0.00016138
0.000112536
0.000143304
0.000108536
0.000104838
0.000188981
3.56525e-10
8.10082e-11
3.55848e-10
9.89613e-10
5.24445e-09
2.54338e-10
1.74621e-09
8.99678e-05
0.000175839
9.12316e-05
0.000228999
0.000126099
0.000228909
0.000174346
2.27619e-05
2.25904e-05
2.21391e-05
2.20713e-05
1.35154e-05
1.11422e-05
2.46537e-05
5.29117e-10
4.19413e-11
2.32824e-09
7.76939e-10
1.54702e-10
5.37259e-11
1.71034e-09
3.5129e-08
1.68459e-08
9.23382e-08
1.78496e-08
3.11156e-08
9.65516e-09
6.15447e-08
0.000325013
0.000175201
0.000203197
0.00033088
0.000142642
0.000330611
0.000331981
1.03246e-11
3.47726e-11
5.42792e-12
7.65645e-11
4.9032e-10
1.84037e-11
7.42437e-11
3.11643e-11
3.79629e-12
2.35616e-10
2.72433e-09
5.11974e-10
6.21212e-11
7.00777e-11
0.000614658
0.00217438
7.74087e-05
7.67727e-05
7.74087e-05
0.00125778
0.000250641
3.57305e-05
5.80225e-05
3.50261e-05
3.50563e-05
3.70306e-05
9.44688e-05
8.24123e-05
2.49885e-12
4.21688e-12
1.85903e-12
2.62034e-12
3.10417e-12
4.56211e-13
4.62716e-13
4.86281e-12
4.50606e-11
2.96616e-11
1.82107e-12
2.21616e-12
1.13026e-11
8.55249e-12
0.000181992
0.000121925
0.000397679
0.000195254
0.000118561
0.000175508
0.000198202
3.94319e-09
3.91142e-09
5.72804e-09
1.58764e-08
9.15869e-09
7.296e-09
5.93471e-09
5.64549e-05
4.84355e-05
0.00013066
0.000309401
0.000141264
0.000128973
0.00017789
9.5154e-06
4.85351e-06
4.88123e-06
4.86449e-06
5.32988e-06
4.92702e-06
1.45317e-05
1.6714e-05
2.85444e-05
1.14544e-05
1.12357e-05
1.27421e-05
3.29033e-05
1.25146e-05
7.87115e-06
3.85469e-05
1.25329e-05
7.49584e-06
1.14941e-05
2.41943e-05
7.49345e-06
5.48393e-05
7.81121e-05
5.37375e-05
0.000215654
0.000247724
8.44288e-05
9.18737e-05
7.5363e-05
0.000178161
0.000141212
7.59145e-05
7.96705e-05
0.00016444
5.76255e-05
0.000271982
6.82865e-05
0.000367705
0.000127097
0.000127339
4.78435e-05
0.000280487
3.56149e-06
1.7835e-05
4.9539e-05
9.72004e-06
3.54828e-06
1.95048e-05
7.6589e-05
0.964509
0.977317
0.920233
0.994775
0.994564
0.99842
0.999078
0.982854
0.988405
0.999835
0.999886
0.999933
0.998119
0.999305
0.995965
0.9917
0.998834
0.997527
0.000434703
0.00059541
0.000443235
0.00326905
0.00227823
0.00100264
0.00113681
0.000141142
8.42352e-05
0.000310493
0.000386338
0.000308584
0.000252886
0.00045587
0.000134464
0.000114674
4.74726e-05
0.000113284
4.74027e-05
0.000266163
0.000134071
0.000227581
0.000139646
0.000129
7.32653e-05
0.000201148
0.000111462
5.2072e-05
1.47286e-09
1.2866e-07
9.31772e-09
2.42454e-07
2.66134e-10
1.4471e-06
1.36984e-08
1.14917e-16
1.52586e-15
3.41762e-17
2.01059e-14
8.7149e-16
1.83155e-14
3.02202e-13
3.11785e-15
1.31391e-14
1.69127e-13
6.60175e-16
3.93685e-15
2.21227e-16
1.85818e-17
6.88825e-19
3.03669e-18
4.5513e-17
0.972772
0.97362
0.972772
0.637656
0.889516
0.974523
0.971805
0.00174651
0.00433471
0.000638365
0.000966083
0.000628673
0.00511746
0.00251131
0.00038201
0.000300772
0.000381851
0.000363219
3.44609e-05
3.43638e-05
0.000294971
2.53848e-08
2.07681e-08
1.03617e-08
1.02141e-08
7.39635e-09
1.88598e-08
4.02804e-08
1.82042e-10
2.38017e-10
2.19709e-10
1.06349e-10
2.99901e-11
1.33428e-10
4.23482e-11
2.33105e-12
3.10672e-12
4.7187e-12
8.18016e-15
3.50274e-14
1.23027e-14
5.66723e-15
3.37329e-15
2.14385e-15
1.38218e-13
2.73176e-14
1.43736e-14
4.3311e-15
1.32831e-14
9.85385e-15
4.77146e-14
3.72553e-14
2.74245e-15
2.12959e-13
1.31915e-13
3.933e-13
1.04645e-11
4.19868e-11
5.39621e-12
1.58931e-12
1.27933e-12
2.35333e-12
7.93975e-12
4.67973e-12
5.09077e-07
5.5354e-07
7.76895e-07
4.30568e-06
1.80731e-06
1.57955e-06
8.63469e-07
0.000484082
0.000490803
0.000484082
0.000481284
0.000481186
0.000273711
0.000225835
1.15077e-06
6.63086e-06
1.03497e-06
1.00675e-06
2.37712e-06
1.00928e-06
2.53361e-07
4.80624e-07
1.26658e-06
1.82928e-09
3.59144e-09
1.74864e-09
4.80585e-08
3.61667e-08
9.18312e-08
4.20046e-08
5.79122e-08
3.64419e-08
3.89048e-08
0.00017674
8.55786e-05
0.000106766
0.000137458
7.83779e-05
7.30267e-05
9.73349e-05
0.000134893
9.99215e-05
5.30015e-05
5.28181e-05
0.000144696
9.16715e-05
0.000378562
9.31003e-23
5.68299e-23
7.41253e-24
2.14381e-23
1.56398e-21
3.36597e-22
7.19298e-24
0.999933
0.999923
0.999685
0.997754
0.99883
0.990213
2.42008e-05
6.57921e-06
1.83607e-06
1.57901e-06
3.17441e-06
3.01074e-06
1.02669e-05
4.15734e-05
0.000127973
4.13915e-05
5.58951e-05
5.6135e-05
6.64632e-05
2.11547e-05
1.11305e-13
1.52643e-14
7.11792e-13
3.47121e-12
1.95306e-13
1.69772e-12
4.51635e-11
1.40822e-13
2.64139e-12
4.9024e-15
5.83652e-12
1.23173e-11
6.85106e-11
2.75901e-12
1.22622e-12
4.57365e-12
1.67695e-11
2.46294e-05
6.19939e-05
1.19589e-05
9.8654e-06
9.84677e-06
2.92898e-05
1.32891e-05
0.00390633
0.00573523
0.00258716
0.00249114
0.00236716
0.00280728
0.00186238
0.813821
0.918367
0.805442
0.859476
0.945254
0.944772
0.940903
2.16673e-05
9.55552e-05
5.14602e-05
3.32486e-05
1.69407e-05
2.4041e-05
3.33159e-05
1.70197e-05
1.76772e-05
8.88215e-06
4.36671e-05
2.05743e-05
1.74279e-05
1.71129e-05
1.28529e-06
4.27296e-06
2.12361e-06
6.55708e-07
1.23072e-06
1.54705e-06
1.38034e-06
7.35794e-09
3.82869e-09
2.29207e-09
1.32164e-08
1.35872e-08
5.67341e-09
4.30461e-09
1.20888e-11
7.92128e-12
1.95062e-11
5.4294e-11
2.61166e-10
9.45266e-12
2.2794e-11
2.1869e-12
1.32327e-12
3.99792e-12
1.89607e-11
4.35147e-12
3.48497e-12
1.15206e-11
1.22467e-06
2.27539e-06
6.41002e-06
9.38197e-07
9.07847e-07
1.19743e-06
2.85069e-06
0.000206518
9.49439e-05
4.51994e-05
4.50674e-05
7.43581e-05
6.24956e-05
0.00011194
4.624e-09
3.34861e-08
6.38597e-08
1.29424e-06
2.13851e-07
9.72091e-08
2.96305e-07
2.78158e-09
4.21995e-10
1.93421e-08
1.86303e-09
7.68786e-10
3.45725e-09
1.08794e-08
2.28869e-07
1.232e-07
1.26316e-07
6.36236e-07
9.17894e-07
1.99697e-07
2.25324e-07
4.09076e-07
1.0752e-06
1.17444e-06
4.95776e-07
6.4758e-07
1.02489e-06
1.64258e-06
3.49573e-07
3.16746e-07
2.24764e-06
7.1508e-05
3.07093e-05
3.78608e-05
6.97361e-05
2.96097e-05
0.000100085
6.68906e-05
1.47197e-05
6.72032e-06
1.63552e-05
3.52615e-06
7.53199e-06
5.16806e-06
6.01221e-06
1.70019e-06
3.58255e-07
1.25576e-06
4.09153e-07
2.06318e-07
1.08504e-06
4.66565e-07
6.29916e-10
4.77231e-10
4.81096e-11
4.20333e-10
6.48718e-10
5.8469e-10
1.77115e-10
8.07192e-09
2.51469e-08
2.84697e-09
2.91081e-10
5.95394e-10
6.91442e-09
2.69415e-09
3.54776e-15
8.4747e-15
6.378e-15
1.20978e-15
4.61065e-16
1.24643e-15
2.66902e-15
4.68185e-18
3.13728e-17
8.26785e-18
2.84637e-17
7.25856e-18
4.51527e-17
1.05068e-17
0.998648
0.999389
0.999977
0.999995
0.999995
0.999995
0.999899
0.999997
0.99999
0.999961
0.999941
0.999482
0.997847
0.999454
0.995189
0.999031
0.99979
0.996911
0.999929
0.99995
0.998948
0.986411
0.9859
0.928316
0.99747
0.986115
0.905646
0.484742
0.305984
0.0513875
0.0232096
0.0162913
0.290558
4.91903e-05
8.66967e-05
0.000100543
0.000143638
7.37511e-05
0.000111671
0.000143684
6.69145e-05
4.90871e-05
4.88912e-05
6.53761e-05
6.57103e-05
6.61553e-05
2.4871e-05
5.32837e-05
4.6759e-05
4.62923e-05
8.16819e-05
6.3285e-05
0.000111957
7.4585e-05
6.47108e-05
6.50765e-05
1.46945e-05
1.61161e-05
1.39602e-05
4.69028e-05
0.000114803
8.69964e-06
8.7233e-06
2.17568e-05
3.92564e-05
6.85784e-05
4.889e-05
1.25447e-05
8.57491e-07
2.1383e-06
6.35642e-07
2.5794e-06
9.60128e-07
3.94863e-06
1.38597e-06
7.02825e-11
3.88233e-10
3.20827e-11
6.03329e-12
4.45661e-12
4.36489e-11
1.48881e-11
2.49063e-07
2.03384e-07
4.83733e-07
8.31629e-07
3.64977e-06
3.27519e-07
9.48962e-07
0.0439879
0.0166269
0.0194766
0.134207
0.274841
0.0240699
0.0395004
5.85148e-05
9.70767e-05
6.00163e-05
0.000103083
8.1222e-05
7.66222e-05
3.63419e-05
9.41238e-07
1.1516e-06
9.29418e-07
6.7546e-06
3.52175e-06
3.98679e-06
2.35264e-06
7.67309e-09
2.39319e-09
1.43558e-09
6.80015e-10
7.94485e-10
1.41101e-09
2.47758e-09
6.7298e-08
3.32524e-07
2.07219e-08
5.76775e-08
1.18875e-08
6.41685e-17
1.79193e-17
1.15848e-16
8.31795e-17
1.57685e-15
3.01368e-17
3.55359e-16
2.62204e-14
1.44084e-13
1.47771e-12
2.31971e-14
2.133e-13
2.25259e-14
7.85646e-13
4.06417e-12
2.69092e-11
7.28539e-13
8.5675e-13
3.19188e-12
1.19274e-11
5.20147e-13
4.38116e-16
1.091e-15
1.59977e-14
9.4621e-14
2.8906e-13
6.14216e-15
2.1147e-15
0.999955
0.99863
0.999989
1.65351e-13
4.64065e-14
8.98852e-14
2.86994e-13
1.13536e-12
6.19296e-13
1.88144e-13
1.99603e-11
6.41769e-12
2.08373e-12
1.92034e-11
5.96948e-12
2.53522e-12
5.93716e-12
1.02819e-13
2.34334e-13
4.2906e-14
4.06006e-11
3.37247e-11
8.82559e-12
2.57516e-17
7.42556e-15
3.12902e-19
1.47797e-18
1.12393e-18
2.42897e-19
3.44778e-17
2.83407e-16
2.32801e-18
2.04964e-08
4.65932e-08
3.00639e-07
1.06413e-06
1.7279e-07
7.46774e-07
6.09657e-06
3.98931e-10
9.22199e-11
1.24084e-06
6.78159e-06
6.5047e-07
2.77548e-06
9.82764e-09
0.999509
0.999875
0.999978
0.998157
0.975052
0.996983
0.999949
0.991089
0.999465
0.999839
0.999897
0.997156
0.999913
0.966278
0.998011
0.999996
0.9997
0.994346
0.99983
0.99995
0.998603
0.999984
0.99994
0.998727
0.0266765
0.0177748
0.0267695
0.0076766
0.0142206
0.00935334
0.0169821
8.46621e-08
5.63375e-07
3.84122e-08
4.2973e-08
9.28368e-08
3.24367e-07
2.86968e-08
4.72797e-06
4.58103e-06
1.44342e-06
2.00299e-06
1.33192e-06
2.76574e-06
2.80627e-06
3.21553e-05
3.3388e-05
1.40257e-05
1.39785e-05
1.36941e-05
2.53784e-05
3.41731e-05
0.000126199
0.000139867
0.000118373
0.000238015
0.000267163
0.000267183
0.000191042
4.30808e-05
0.000103536
0.000102981
5.87987e-05
4.14059e-05
4.20473e-05
4.16859e-05
9.15397e-08
6.83617e-07
5.41067e-08
2.36854e-08
1.13916e-08
1.37824e-07
2.46879e-08
1.45013e-05
5.06298e-06
6.23149e-06
1.75727e-05
3.14119e-05
9.81696e-06
3.65223e-05
9.04668e-08
6.08813e-08
4.89783e-08
1.57483e-07
5.08729e-07
1.75552e-07
6.76396e-08
1.24492e-14
1.94044e-14
2.39927e-15
5.98425e-16
8.18572e-16
2.84143e-15
3.70232e-15
1.994e-16
8.51642e-17
9.09204e-16
1.87684e-16
6.1936e-16
3.40733e-13
7.13837e-14
1.0248e-13
1.0116e-12
1.27023e-13
5.42961e-13
1.08912e-13
1.54036e-12
5.24144e-13
2.68686e-12
4.26116e-13
6.5833e-12
2.9968e-11
3.33265e-12
1.52618e-12
2.20954e-12
1.54301e-13
3.36812e-13
1.55127e-13
3.94543e-14
5.92626e-13
1.1211e-13
1.04662e-11
7.13695e-11
2.76896e-11
1.19038e-09
3.1994e-10
5.23456e-11
2.15138e-10
1.04031e-08
3.47409e-08
2.84988e-07
3.93639e-08
1.29008e-08
5.99646e-09
1.37719e-07
2.64925e-10
1.0395e-09
5.87598e-09
1.12985e-08
2.56502e-08
1.06893e-09
1.46834e-09
2.76562e-11
5.51734e-12
3.68513e-11
1.59782e-10
2.1448e-12
1.82481e-12
9.43399e-11
0.999998
0.999984
0.999984
0.999989
0.999708
0.999915
0.998254
0.999819
0.999747
0.998972
0.998116
0.999913
0.997584
0.988916
0.999979
0.999981
0.999361
0.000932838
0.000488397
0.000692517
0.00234698
0.000967473
0.00224065
0.00417216
0.000776725
0.000378203
0.000724002
0.000440471
0.000777469
0.000175006
0.000172645
8.13936e-17
1.72094e-17
3.631e-17
6.38991e-16
6.53857e-17
1.33925e-17
1.53442e-16
1.63319e-17
2.43182e-16
1.47678e-15
3.29251e-19
1.10809e-18
4.78315e-19
1.93988e-16
6.85261e-14
4.83075e-16
4.9533e-18
4.77839e-19
4.82287e-19
2.23947e-18
4.69269e-18
4.156e-05
0.000101792
0.000315648
0.0820098
0.0264901
0.0304497
0.55732
0.0824914
0.0474517
0.175336
0.995879
0.99893
0.999681
0.979884
0.99883
0.995494
0.999888
0.999676
0.999997
0.999946
0.999905
0.99966
0.999752
0.998518
0.992703
0.997961
0.999476
0.99941
0.999985
0.999601
0.999989
0.000678439
0.00251138
0.00137082
0.000679164
0.000678439
0.00415898
0.00181898
0.000160153
0.000200194
0.000160375
0.000186073
0.000312143
0.000449697
0.000193905
4.11319e-05
1.93657e-05
0.000100097
1.16781e-05
6.9873e-06
4.40863e-05
2.61524e-05
7.36834e-05
7.43626e-05
7.43626e-05
0.000188984
0.000122664
0.000208252
9.51705e-05
2.01098e-05
3.98965e-05
1.27898e-05
1.27001e-05
2.29564e-05
4.14355e-05
2.14633e-05
3.76346e-08
5.32023e-09
1.07996e-08
1.42046e-08
4.02253e-09
2.1739e-08
6.38092e-09
8.40676e-09
6.78074e-08
2.41566e-08
1.62405e-09
9.95132e-10
2.20421e-09
2.93101e-09
3.32184e-05
1.77322e-05
2.79255e-06
1.62932e-05
1.93538e-05
3.09934e-05
5.84076e-06
0.000248359
0.000125475
0.000164207
0.00028776
0.000287549
0.000278386
0.000287395
2.19414e-05
2.16029e-05
2.39205e-05
2.17357e-05
2.16029e-05
2.16029e-05
2.18804e-05
1.26241e-06
1.05086e-06
7.01092e-07
2.13866e-06
4.98228e-06
2.15858e-06
6.85044e-07
2.22133e-14
6.2759e-14
2.2179e-14
3.98239e-14
1.74815e-13
1.5981e-13
5.40414e-14
2.3084e-16
1.94968e-15
7.92306e-16
8.62183e-19
1.08294e-18
2.92205e-18
5.05571e-18
2.5941e-17
3.9137e-18
1.20185e-18
1.87612e-18
1.01708e-17
7.55527e-18
3.96519e-17
3.87165e-18
2.29616e-17
6.3842e-17
7.28618e-17
7.96982e-18
1.05816e-16
1.5517e-16
3.43942e-17
4.10186e-18
1.3327e-17
1.34304e-17
1
1
1
1
1
1
1
1
1
0.00012186
5.54407e-05
6.11694e-05
0.0276096
0.00929901
3.27523e-05
0.000108108
0.00130267
2.62714e-05
6.52895e-17
1.16339e-05
0.000175744
1
1
1
1
1
1
1
1
1
1
1
1
1
1
1
1
1
1
1
1
1
1
1
1
1
1
1
1
1
1
1
1
1
1
1
1
1
1
1
1
1
0.554239
0.234786
0.97554
0.993735
0.994051
0.936722
0.955986
3.24246e-61
4.24426e-62
2.55848e-62
1.17678e-61
7.94053e-61
1.77678e-60
1.47902e-61
8.91601e-61
5.75747e-60
0.999369
0.999369
0.999369
0.997252
0.996985
0.993976
0.997106
0.993898
0.986082
0.970839
0.997223
0.99329
0.979066
0.998062
0.996841
6.92794e-62
9.74623e-61
5.3086e-60
4.32695e-59
4.38074e-59
2.75707e-58
0.000235379
4.40041e-05
1.69222e-05
3.99313e-07
3.18909e-06
9.77109e-08
3.59359e-09
9.25498e-09
1.70208e-08
5.78433e-09
9.34031e-10
1.24629e-08
4.13743e-10
7.64389e-11
1.35811e-10
5.81983e-11
1.12876e-09
1.65028e-09
9.34201e-09
0.000739895
0.0012923
0.000773686
7.60686e-06
1.94683e-06
4.71343e-07
1.6586e-07
3.13056e-05
1.80928e-05
1.80928e-05
1.11943e-10
1.18327e-10
3.48129e-10
3.33471e-10
5.79584e-07
3.68708e-06
5.17362e-06
3.01822e-07
9.49005e-10
6.45521e-10
7.8852e-09
1.94623e-09
9.32184e-08
2.39659e-07
3.98916e-09
3.20865e-08
2.88981e-09
1.58898e-08
2.44319e-09
5.2383e-09
3.15486e-08
2.57194e-09
1.1766e-07
5.75509e-08
8.17917e-07
3.21719e-06
5.59667e-06
4.49649e-06
4.54075e-07
6.29577e-07
1.07966e-07
1.07343e-07
2.22896e-07
1.29714e-07
1.08211e-07
2.00493e-06
8.29183e-08
1.76456e-07
4.57019e-09
1.00033e-08
6.16576e-09
3.53157e-08
8.40829e-09
1.40341e-08
2.69676e-09
3.77499e-09
6.17683e-09
9.75335e-10
2.05086e-09
9.07172e-10
1.53505e-06
2.94464e-06
8.71904e-07
2.07717e-06
0.0454311
0.0221947
0.032245
0.0242054
1.49133e-11
5.62286e-11
1.8575e-10
6.04644e-33
1.86494e-33
5.8932e-34
1.82296e-34
0.0662482
0.323664
0.0871847
0.252263
9.24886e-06
2.02651e-05
3.92113e-05
7.74422e-05
3.55523e-52
1.28545e-51
3.75e-51
0.000515624
0.00154629
1.57074e-05
4.0894e-05
3.58181e-06
2.63792e-06
4.45289e-19
1.91901e-18
1.49453e-17
2.75727e-18
1.0765e-06
3.86332e-07
5.35632e-49
8.90035e-48
2.41016e-50
1.67492e-47
0.999415
0.998025
0.999142
0.997849
2.53272e-15
7.60578e-15
8.09826e-15
1.55742e-14
2.63363e-06
9.82184e-06
2.24185e-06
4.15085e-06
4.04979e-08
1.06056e-08
4.35728e-07
2.14845e-07
2.37543e-05
3.22197e-05
2.9304e-05
3.20368e-05
0.000182952
0.000114812
5.97024e-05
0.000230123
1.37389e-05
0.00012109
0.00035059
0.000578886
0.000840125
0.000335479
4.03657e-06
6.28539e-07
4.15599e-06
7.97401e-06
1.26392e-07
2.62226e-08
0.999975
0.999998
1.4821e-12
2.92519e-12
9.76973e-12
3.86276e-11
5.8674e-05
3.61577e-05
0.00022788
8.09689e-05
1.85749e-05
3.51128e-05
2.32654e-05
9.16774e-05
1.61785e-05
2.94719e-05
1.20144e-20
9.43792e-21
4.07361e-20
2.65885e-20
0.000302262
0.000108332
0.000198881
7.77165e-05
5.60477e-11
1.53307e-11
1.93502e-14
1.01352e-13
2.86509e-14
8.27466e-14
3.17211e-28
1.41244e-27
1.70339e-29
4.5352e-28
0.674348
0.77287
0.930766
0.916062
0.868242
0.99401
0.968259
2.02358e-14
4.42098e-15
1.46414e-16
4.04581e-17
2.36928e-05
0.000432761
0.000885941
0.989265
0.991852
0.840377
0.433325
0.984902
0.954839
3.33035e-05
6.09266e-05
6.07436e-10