/*--------------------------------*- C++ -*----------------------------------*\
| =========                 |                                                 |
| \\      /  F ield         | OpenFOAM: The Open Source CFD Toolbox           |
|  \\    /   O peration     | Version:  v2012                                 |
|   \\  /    A nd           | Website:  www.openfoam.com                      |
|    \\/     M anipulation  |                                                 |
\*---------------------------------------------------------------------------*/
FoamFile
{
    version     2.0;
    format      ascii;
    class       volScalarField;
    location    "0.1";
    object      p_rgh;
}
// * * * * * * * * * * * * * * * * * * * * * * * * * * * * * * * * * * * * * //

dimensions      [1 -1 -2 0 0 0 0];


internalField   nonuniform List<scalar> 
24700
(
2829.04
2807.53
2871.77
2793.59
2795.27
2880.86
2850.38
2832.78
2778.37
2779.7
2802
2805.26
2793.92
2825.45
2817.86
2813.79
2810.79
2858.47
2847.41
2813.29
2892.6
2892.48
2821.49
2812.3
2915.71
2857.37
2865.84
2828.2
2861.11
0.00342969
0.00359757
0.00119536
0.00575959
0.00784164
0.00367959
0.00578736
0.0844151
0.0704303
0.0717926
0.0714131
0.0719403
0.0698775
0.0776065
-0.222692
0.247393
0.05006
-0.423596
-0.228246
-0.01835
-0.182806
1.34764
1.36918
1.45726
1.3515
1.38887
1.33678
1.47081
0.554468
2.8675
0.759392
9.20458
15.2799
1.91977
3.09505
-0.398963
-0.454751
-0.398523
-0.346994
-0.403584
-0.442024
-0.374364
-0.130923
-0.150072
-0.222359
-0.0949344
-0.132324
-0.161311
-0.0743973
1452.72
262.562
2719.69
1459.12
157.008
2102.26
2615.31
-0.341679
-0.437043
-0.357494
-0.287166
-0.38743
-0.405109
-0.32258
-0.117516
-0.117925
-0.111431
-0.104625
-0.10345
-0.110498
-0.109525
-0.0111836
-0.0154273
-0.0230405
-0.00604157
0.000685287
-0.00682418
-0.0137255
0.263436
0.254691
0.24452
0.231228
0.238394
0.244896
0.252995
0.00836978
0.00792863
0.0108018
0.012087
0.0148737
0.0153955
0.0105144
0.00921293
0.00855421
0.00648311
0.00214514
0.000938556
0.00245681
0.00369748
0.00551384
0.00289555
0.00413453
0.00169633
0.00214546
0.000421388
0.00168776
0.00299822
0.00564037
0.00452652
0.00503372
0.00354459
0.00400513
0.00500497
0.00425649
-0.0917635
-0.0856125
-0.0854646
-0.0969264
-0.0990911
-0.092107
-0.0908156
0.0165282
0.260771
-0.265808
-0.231041
-0.366422
0.0141579
-0.139357
1.04564
1.06026
1.0333
1.02105
1.01779
1.03376
1.03369
1.06201
1.10473
1.14167
1.10367
1.04305
1.01009
1.12606
0.997479
1.01401
0.992387
1.00439
0.987998
0.990645
0.994169
0.783822
0.71212
0.73598
0.761962
0.793094
0.745361
0.779724
0.985967
0.951541
0.979337
0.956287
0.913192
0.948771
0.943417
1.01965
1.00634
1.12956
1.00999
1.10124
0.987126
1.00354
1.187
1.23393
1.15463
1.27023
1.32037
1.25966
1.21664
1703.34
1543.44
1939.01
1516.12
1858.35
1943.74
1884.81
-0.573432
2.37789
2.12842
-0.907212
-0.527386
2.46529
1.74604
0.638427
0.605722
0.619575
0.570345
0.599716
0.591954
0.619093
0.807054
0.836604
0.844836
0.943862
0.856308
0.901783
0.889567
0.885299
0.886943
0.867593
0.872741
0.894954
0.886474
0.86243
0.867692
0.876468
0.871354
0.864187
0.860583
0.868753
0.866218
1.6725
1.4714
1.27834
1.5778
1.76279
1.70651
95.2319
96.3362
96.1878
94.8005
92.1562
93.3052
91.0952
12.1417
31.4897
14.4339
9.15745
8.64168
16.3719
1.05631
8.83506
15.2065
12.6362
8.22027
21.2635
6.34417
1.21483
1.48693
1.27587
2.9705
1.37849
1.08318
1.71643
1.23377
1.3656
1.23061
1.19285
1.2087
1.23594
1.18544
1.13766
1.10098
1.08679
1.05419
1.02329
1.07324
1.10138
0.850306
0.921106
0.844833
0.766055
0.904585
0.911965
0.817529
0.950741
0.962306
0.955758
1.03537
0.976674
0.951445
0.945335
1.47058
1.44253
1.46404
1.49911
1.49674
1.4748
1.48415
20.4733
32.2456
10.5784
17.6587
9.04054
25.251
15.153
-1.58189
-1.64588
-1.92036
-1.90566
-2.30412
-1.72724
-1.8339
-0.0218851
-0.0152819
-0.0231088
-0.0235961
-0.0320681
-0.0197839
-0.0272063
0.0691317
0.0648493
0.0712859
0.0662754
0.0740678
0.0652723
0.0723497
0.062459
0.0614868
0.0569443
0.0604462
0.0663494
0.0585775
0.0641618
0.033438
0.031909
0.0309137
0.0284895
0.0297682
0.0299265
0.0316226
0.0226746
0.0203241
0.0227662
0.0221538
0.0251954
0.0205643
0.0230215
0.0150557
0.0158419
0.0137064
0.0188352
0.0166598
0.0154359
0.0166452
0.0123154
0.011351
0.0132307
0.0101777
0.00935404
0.0105934
0.0114647
0.00445672
0.00559769
0.00510201
0.00396074
0.00350739
0.00496379
0.00426862
-0.0154776
-0.0166284
-0.0181949
-0.0141201
-0.0126516
-0.0143933
-0.0158028
-0.111537
-0.117993
-0.117634
-0.103641
-0.105033
-0.110614
-0.10965
-0.165559
-0.167765
-0.181111
-0.163043
-0.153556
-0.160356
-0.175465
2126.04
1671.77
1261.5
2134.26
2132.96
2053.68
1757.5
0.581217
0.596932
0.576817
0.555596
0.570904
0.584559
0.569103
0.607385
0.648057
0.625086
0.670515
0.77657
0.62787
0.634212
0.836295
0.861593
0.823825
0.814433
0.818954
0.829787
0.825196
1.15599
0.951134
1.03402
0.846482
0.898174
0.95286
0.934847
1.06759
1.24752
0.797827
0.844439
0.842295
0.990735
1.12228
1.11717
1.00218
0.93932
1.0162
1.09805
1.29096
1.43328
1.28058
1.25817
1.20081
2.36956
2.99245
1.93287
2.11468
1.8022
4.41093
2.19193
1.42989
1.40904
1.34239
1.46979
1.78664
1.58515
1.36981
1.36306
1.38449
1.30271
1.40485
1.42313
1.41682
1.42581
1.52379
1.51076
1.50878
1.53721
1.55206
1.54141
1.53893
0.215578
0.612307
0.234645
0.266787
0.410194
0.551542
0.182739
-0.528108
-0.475395
-0.458391
-0.392486
-0.423665
-0.431032
-0.480021
-0.103031
-0.0975576
-0.0882169
-0.106016
-0.121462
-0.110912
-0.0975193
0.102446
0.11136
0.108012
0.114483
0.104492
0.11364
0.104244
0.0972973
0.102911
0.103423
0.117877
0.107467
0.103753
0.107645
0.0402753
0.041725
0.0384759
0.0443938
0.0424277
0.0423234
0.0403858
-0.0158549
-0.0185348
-0.0210246
-0.0254902
-0.0234555
-0.0214784
-0.0195022
-0.0403924
-0.0417047
-0.0451013
-0.0499876
-0.0497965
-0.0462852
-0.045572
-0.790794
-0.767553
-0.815884
-0.691258
-0.824062
-0.855151
-0.837521
0.692315
0.707736
0.711519
0.629139
0.592539
0.685883
0.692334
0.466164
0.485995
0.557779
0.532175
0.525252
0.513718
0.439404
0.494504
0.469568
0.429801
0.495733
0.480608
0.447145
0.511682
0.820328
0.818099
0.816871
0.829198
0.826032
0.822076
0.827617
0.849831
0.857654
0.861207
0.864872
0.87029
0.874137
0.855618
1.58619
1.6447
1.63989
2.30145
1.57879
2.25589
3.26922
59.3102
109.206
100.953
3.79457
23.1897
105.355
53.9081
1.40564
1.43997
1.40275
1.39527
1.43247
1.47348
1.4016
1.6519
1.67458
1.67011
1.69139
1.66595
1.68563
1.66082
2.15423
2.0737
2.11185
2.0399
2.00608
2.09291
2.05484
1.47964
1.4094
1.41924
1.3744
1.43251
1.38259
1.44179
0.0762985
0.0249541
0.0450856
0.0637584
0.015322
0.0179241
0.0702589
0.0193765
0.037148
0.0222657
0.0281582
0.00818622
0.0343959
0.0152707
0.185462
0.197823
0.183497
0.171719
0.181422
0.184979
0.175362
0.18533
0.181673
0.172797
0.200637
0.189916
0.129399
0.122779
0.13371
0.13858
0.127445
0.126056
0.136218
0.133354
0.122667
0.129683
0.137872
0.124301
0.0976257
0.100668
0.101486
0.103657
0.0971415
-0.0587801
-0.0646324
-0.0648856
-0.0526064
-0.0543899
-0.0597764
-0.0591095
-0.043526
-0.0685681
-0.0279254
-0.184934
-0.0510862
-0.142197
-0.0106266
-0.294077
-0.293626
-0.317277
-0.24069
-0.19974
-0.166386
-0.291963
-0.345233
-0.327888
-0.337473
-0.329648
-0.299153
-0.313746
-0.332009
-0.292111
-0.27203
-0.285677
-0.260239
-0.25483
-0.275743
-0.278013
-0.132917
-0.160939
-0.129823
-0.188203
-0.178944
-0.156666
-0.154094
0.64294
0.81425
0.741361
0.669509
0.579008
0.700775
0.774144
0.647271
0.531461
0.595585
0.663033
0.671117
0.684598
0.63558
0.705976
0.709064
0.716561
0.706222
0.700054
0.706479
0.713603
0.70594
0.695536
0.71638
0.70883
0.703225
0.871166
0.87485
0.867315
0.862979
0.861008
0.867923
0.866839
1.40478
1.31182
1.15665
1.10377
1.14002
1.26948
1.27183
1.17182
1.23618
1.18855
1.19501
1.19421
1.20993
1.19176
24.8748
3.52568
13.2791
11.7578
77.5475
4.08579
13.608
1.4888
1.50568
1.50251
1.51345
1.50559
1.51103
1.49849
1.59406
1.58293
1.59674
1.60389
1.60607
1.59293
1.60007
1.83932
1.81988
1.83767
1.86836
1.83602
1.82663
1.85486
1.1703
1.17508
1.134
1.09915
1.10226
1.1398
1.13823
0.574461
0.578005
0.521741
0.58096
0.622243
0.604043
0.553057
0.293131
0.306728
0.291312
0.274984
0.287865
0.291941
0.280252
0.292715
0.289123
0.276993
0.311074
0.298118
0.108045
0.111387
0.102532
0.104534
0.114449
0.113663
0.104323
0.0241927
0.0285299
0.0302768
0.0210262
0.0189743
0.0237267
0.0261118
-0.0231172
-0.0224551
-0.0177836
-0.0230069
-0.0274437
-0.025226
-0.0198551
-0.00898831
-0.00787465
-0.00218842
-0.0123262
-0.00825157
-0.00932554
-0.00509985
-0.0131192
-0.0124755
-0.0125126
-0.00360229
-0.00916676
-0.0166354
-0.00166364
-0.0121074
-0.0120054
2543.24
2591.3
2528.48
2610.71
2531.78
2604.76
2543.45
0.124898
0.266857
0.18384
0.0450426
0.218448
0.0663781
0.0719677
-0.21698
-0.215559
-0.230593
-0.217532
-0.202623
-0.208846
-0.223766
-0.355946
-0.36034
-0.367648
-0.36383
-0.349338
-0.367597
-0.352797
-0.308621
-0.281861
-0.30157
-0.308437
-0.31878
-0.293478
-0.311788
0.115707
0.0655976
0.0584309
0.110578
0.148055
0.0892897
0.0746965
0.512262
0.377167
0.345763
0.341283
0.321252
0.366906
0.389007
0.578996
0.54403
0.560956
0.532729
0.605034
0.584766
0.686021
0.622404
0.62704
0.62162
0.621786
0.613168
0.625233
0.619318
39.9908
18.5941
96.1406
27.142
11.4618
4.93849
21.7046
94.3221
93.8502
93.4919
92.684
91.6813
92.786
93.2434
94.9069
94.715
94.7135
95.1786
95.0763
94.6252
94.1919
94.408
94.0999
95.2641
1.53329
1.54235
1.54612
1.52822
1.51711
1.52904
1.54271
1.62816
1.62645
1.63172
1.63759
1.63511
1.63125
1.6314
1.69239
1.68264
1.68021
1.67598
1.68207
1.68749
1.67796
1.73525
1.71849
1.72025
1.71288
1.70922
1.71655
1.72563
0.440695
0.435559
0.410938
0.450149
0.470945
0.454305
0.431955
0.328105
0.339384
0.341649
0.340034
0.353851
0.360008
0.347586
0.339294
0.319142
0.332248
0.000559675
-0.0031641
0.00310937
0.00695576
0.0111781
0.0024385
0.0068917
-0.0310218
-0.0615496
-0.0416549
-0.0114377
-0.059676
-0.0130727
-0.0457937
-0.0517578
-0.0191062
-0.00787132
-0.00111471
-0.0190349
-0.081996
-0.0483913
-0.027437
-0.0503454
-0.0703099
-0.0182344
0.0100214
-0.0679875
-0.0288451
-0.0138089
-0.0188478
-0.0426638
-0.00382531
-0.0403584
0.000119846
-0.0110144
-0.0659084
-0.0417428
-0.141388
-0.149323
-0.140849
-0.138573
-0.131901
-0.144763
-0.137505
-0.399975
-0.451474
-0.43647
-0.423455
-0.417308
-0.426507
-0.419325
0.214519
0.31438
0.254867
0.197628
0.199324
0.222472
0.20139
0.512641
0.522319
0.509719
0.507064
0.492323
0.514622
0.502394
0.707835
0.728498
0.710138
0.713598
0.699879
0.71896
0.706046
1.02417
1.10686
1.01399
1.01273
1.02651
1.03411
1.05909
1.31149
1.24337
1.18276
1.15113
1.15961
1.21492
1.27241
1.37976
1.46596
1.40538
1.43587
1.39888
1.44762
1.38016
95.2031
95.6711
94.7014
93.7209
93.9523
93.1449
93.2637
96.1386
94.5994
93.4853
95.156
93.2444
94.343
94.1706
93.6278
1.62823
1.62145
1.61405
1.59221
1.6097
1.60524
1.61768
1.49483
1.63144
1.47755
1.53672
1.55716
1.57029
1.51629
1.11764
1.07666
1.1087
1.06917
1.06504
1.09141
1.08778
0.818277
0.788716
0.808159
0.801808
0.826846
0.794424
0.822994
0.696805
0.715824
0.72667
0.747252
0.73648
0.728831
0.713594
0.505379
0.526948
0.530943
0.553903
0.535525
0.541259
0.519448
0.467683
0.455687
0.469643
0.473096
0.485495
0.465266
0.478716
0.412993
0.427512
0.427813
0.443897
0.429864
0.436707
0.422613
0.431017
0.416525
0.429671
0.446929
0.433189
0.426278
0.439958
0.475007
0.460154
0.476797
0.47877
0.493413
0.470137
0.484469
0.440464
0.470892
0.449931
0.41094
0.435421
0.454291
0.43194
0.0630184
0.0148166
0.0434108
0.0196955
0.0729863
0.0156766
0.0682371
0.186195
0.157206
0.229206
0.156932
0.126156
0.142737
0.18814
0.773828
2.63725
3.91981
0.815747
0.292897
1.03539
1.65788
-0.00259007
-0.00927985
-0.00961297
-0.00784062
-0.00581138
-0.0107103
-0.0127811
-0.00710858
-0.0010764
-0.00619127
-0.0378732
-0.0383916
-0.0315486
-0.0496901
-0.0406343
-0.0378702
-0.0457523
-1.3042
-1.16524
-1.2191
-1.15171
-1.29875
-1.2746
-0.966622
0.492598
0.507133
0.510125
0.522444
0.512901
0.514641
0.50249
0.632377
0.725704
0.670104
0.85143
0.741319
0.845242
0.771108
0.536178
0.486787
0.528921
0.563877
0.584727
0.530181
0.541868
1.55324
1.56476
1.55709
1.5417
1.55113
1.55905
1.54921
1.51383
1.52567
1.5141
1.51301
1.50628
1.52114
1.51089
1.54867
1.46981
1.52937
1.55427
1.38172
1.52375
1.60066
0.523537
0.526888
0.508618
0.527496
0.540297
0.515598
0.530471
0.56924
0.583673
0.581932
0.592511
0.582579
0.587774
0.575934
1.20589
5.20957
0.0251189
0.0307604
0.0435951
3.09287
0.447681
-0.0232321
0.0281099
-0.054972
-0.1011
-0.0731309
0.0975489
0.0791776
-0.00476132
-0.00518935
-0.00164293
-0.00730507
-0.0101384
-0.00502205
-0.00870466
-0.0601203
-0.0696783
-0.059424
-0.052
-0.059921
-0.0650493
-0.0559718
-0.589935
-0.521549
0.0174527
-0.206745
-0.404501
-0.37142
-0.356066
0.0477699
0.00244282
0.00524014
-0.0427886
-0.0163676
0.00751138
-0.0254934
0.576926
0.610144
0.724727
0.922613
0.688168
0.695646
0.771282
0.570498
0.570387
0.519283
0.556003
0.568453
0.535541
0.567485
0.755828
0.783942
0.778031
0.804682
0.771835
0.826989
0.752206
1.035
1.08036
1.05315
1.02308
1.01906
1.04935
1.03738
1.09062
1.10027
1.10682
1.29559
1.28378
1.14407
1.12686
0.992394
1.04501
1.01561
1.05025
0.911083
1.01076
1.04098
0.712518
0.623272
0.657707
0.519778
0.660426
0.568233
0.531199
1.53324
1.52014
1.53959
1.54579
1.54277
1.533
1.56007
93.1832
94.5114
88.5328
93.7671
93.3455
93.9885
93.9046
92.7448
93.8807
93.6293
94.0181
93.6688
92.9916
93.0886
93.4186
92.2423
93.8044
94.2502
1.69238
1.80071
1.68213
2.18812
1.9621
1.78442
1.82832
1.50054
1.49321
1.58406
1.59853
1.56571
1.55726
1.64925
1.23899
1.18089
1.1961
1.23825
1.24622
1.29769
1.27646
1.24139
1.16615
1.15675
1.13344
1.23821
1.15729
1.11009
0.920028
0.931043
0.941267
0.955972
0.949977
0.945636
0.935025
0.670029
0.678581
0.66827
0.669317
0.657835
0.649814
0.662721
0.669982
0.685396
0.676104
0.513679
0.56072
0.558992
0.565531
0.59916
0.584034
0.543894
2110.6
2121.62
2127.88
1379.45
1901.62
2106.02
2126.3
3.29251
9.19178
1.02073
1.77312
0.995825
11.1919
5.14361
0.661244
0.386382
0.633253
0.703581
-0.148528
-0.197298
0.499774
-0.18504
-0.173242
-0.174745
-0.165338
-0.175408
-0.168908
-0.180927
-0.149449
-0.141363
-0.140917
-0.13195
-0.138616
-0.137487
-0.144828
-0.00940015
-0.0131078
-0.00822276
-0.00801922
-0.00505986
-0.00202977
-0.0104264
-0.00768324
-0.00383639
-0.0142272
-0.00854473
-0.00622559
-0.00339917
-0.005531
-0.00725463
-0.0110776
-0.0016092
-0.00667948
-0.00437832
-0.00422243
-0.00835352
-0.00902787
-0.0132697
-0.00659474
-0.001774
-0.00179616
-0.00459745
-0.00793199
-0.00480097
0.0613717
0.0548034
0.0639531
0.086187
0.068419
0.0640658
0.0617901
0.20005
0.0171294
0.351511
0.448948
0.729041
-0.402275
-0.0991332
-0.354322
-0.388795
-0.365086
-0.327283
-0.357912
-0.361131
-0.35706
-0.335553
-0.353396
0.0752085
0.0318326
0.00742175
0.294715
0.310389
0.32788
0.347041
0.34081
0.328984
0.312258
0.588183
0.495457
0.476921
0.57433
0.508613
0.456508
0.473512
1.34744
1.41814
1.3814
1.44955
1.47056
1.45094
1.58743
1.59675
1.58293
1.59401
1.60608
1.60384
1.59292
1.60006
90.708
89.9008
91.622
88.5667
92.7673
92.2307
1.21917
1.20677
1.22483
1.24157
1.23716
1.22599
1.22116
1.03634
1.07869
1.03117
1.03502
1.04987
1.04418
1.02512
0.699567
0.709995
0.710283
0.709186
0.718951
0.724163
0.715316
0.692494
0.703995
0.709872
0.941697
0.923622
0.951388
0.95507
0.935115
0.927152
0.952289
-0.0276772
0.180342
0.131749
0.29523
0.175739
0.224516
0.044028
2.914
7.48446
0.2834
1.18396
-0.388977
2.12909
-0.307385
1652.77
1879.88
1649.13
1710.85
1920.23
1922.3
1889.71
-0.548955
-0.487315
-0.527241
-0.448285
-0.535789
-0.566792
-0.498657
-0.256991
-0.223392
-0.287481
-0.228851
-0.244639
-0.231304
-0.276209
-0.428838
-0.452309
-0.444801
-0.42318
-0.398272
-0.440733
-0.417633
-0.216852
-0.200755
-0.217209
-0.230093
-0.215783
-0.208253
-0.223397
-0.242401
-0.229371
-0.229977
-0.217893
-0.228925
-0.223521
-0.235805
-0.0292396
-0.0244535
-0.0265013
-0.0368658
-0.0325407
-0.0291222
-0.0334147
0.0783227
0.077554
0.110005
0.0766046
0.0757092
0.0748697
0.086597
0.625886
0.336375
0.224646
0.234753
0.301066
0.269275
0.3806
-0.126272
-0.12203
-0.13614
-0.123634
-0.156747
-0.139791
-0.117302
-0.107183
-0.137797
-0.100135
-0.146471
-0.175795
-0.132838
-0.143135
-0.358278
-0.348915
-0.348988
-0.354209
-0.354723
-0.349411
-0.375896
-0.360064
-0.373014
-0.405371
-0.0321735
0.0229571
-0.0471024
-0.0843437
-0.0384926
0.000189758
-0.0664864
0.430006
0.35117
0.315527
0.396292
0.323707
0.497566
0.363219
0.328051
0.3125
0.331691
0.319857
0.326906
0.321365
0.313888
0.351729
0.36437
0.39381
0.336407
0.348913
0.346802
0.354464
0.494
0.519684
0.493515
0.47489
0.490055
0.506418
0.485581
0.698648
0.724959
0.696931
0.69511
0.659443
0.705322
0.674153
1.67056
1.67492
1.65243
1.66612
1.69137
1.68595
1.66113
1.68263
1.69245
1.68011
1.68203
1.676
1.68767
1.67797
98.4634
97.7971
98.0004
98.1096
97.8523
98.0892
98.1779
97.4553
97.5911
97.7778
98.033
97.503
98.0305
98.0108
97.4126
97.9435
97.9304
98.2143
98.0914
97.6977
98.1711
98.8721
96.7138
91.2181
98.1837
97.0141
94.9778
57.6493
41.2802
8.42608
4.91313
3.77756
31.7806
1.31974
1.33593
1.32647
1.33629
1.32496
1.34092
1.33402
1.07334
1.0361
1.05863
1.08729
1.08509
1.06154
1.05722
0.886486
0.904394
0.851906
0.942006
0.972326
0.921018
0.938959
1.12341
1.10839
1.10285
1.09169
1.10261
1.10098
1.12965
1.02609
1.02301
1.01196
1.05391
1.0687
1.04114
1.03395
1.08593
1.11788
1.09815
1.12273
1.08713
1.1196
1.08924
1.10278
1.17578
1.12968
1.16185
1.10032
1.17204
1.1073
1.42984
1.36792
1.40686
1.39135
1.44465
1.37471
1.43376
82.7439
29.0315
35.5151
248.074
513.594
41.721
72.9109
-0.804942
-0.568158
-0.726876
-0.850163
-0.872109
-0.756473
-0.874445
-0.181449
-0.176349
-0.165271
-0.189056
-0.189655
-0.170318
-0.177806
0.0379211
0.0298127
0.0300153
0.0259168
0.0297063
0.0285973
0.0350958
-0.211014
-0.176478
-0.160478
-0.176229
-0.202211
0.297135
0.342538
0.342033
0.378909
0.341937
0.358153
0.314989
0.619222
0.605585
0.637331
0.570619
0.599125
0.593129
0.61833
1.58964
1.59543
1.5988
1.58577
1.57991
1.58642
1.5919
1.58616
1.57808
1.57899
1.57244
1.58352
1.57534
1.58475
97.4265
96.8726
97.4666
0.88663
0.893379
0.88448
0.879292
0.8724
0.877499
0.884586
0.842901
0.84804
0.849784
0.849637
0.856972
0.864166
0.854476
0.885824
0.890604
0.899631
0.836639
0.845295
0.849204
1.00446
1.01001
1.00959
1.01174
1.00946
1.00386
1.00781
1.00963
1.00634
1.01649
1.01499
1.01565
1.01563
1.01543
1.01609
1.01858
1.01631
1.01403
1.01821
1.0176
1.01376
1.01412
1.01434
94.1978
94.1152
94.3266
94.2554
92.6386
93.5613
94.2843
93.7314
94.4217
94.1975
94.5192
93.656
94.8484
92.6298
94.222
95.2282
95.0746
94.514
94.6761
94.7484
95.2477
95.2303
95.3969
95.7497
5.73159
4.28354
7.15896
2.85068
3.95954
3.01674
4.30758
1.12957
1.12689
1.1354
1.13191
1.1239
1.12588
1.13482
1.11574
1.13389
1.12872
1.15134
1.12456
1.14256
1.1198
1.07306
1.08344
1.07794
1.09807
1.08614
1.08924
1.08956
1.28718
1.25478
1.25911
1.34243
1.31255
1.3223
1.31398
1.27504
1.28964
1.33649
1.26401
1.28293
1.26585
1.27863
1.47525
1.52147
1.49826
1.5304
1.47347
1.52636
1.47413
-1.00592
-0.989898
-1.08576
-1.09574
-1.16379
-1.04709
-1.06058
0.0552588
0.0492067
0.0535272
0.0583865
0.0614955
0.0573517
0.0543974
0.0269974
0.0294552
0.0257302
0.0249501
0.0197096
0.0287745
0.0226669
0.0114753
0.0215953
0.032761
0.0234061
0.0173481
0.0510632
0.0421137
0.0511479
0.0487994
0.0485826
0.0511459
0.0425077
0.0513874
0.594462
0.533808
0.538403
0.476438
0.564604
0.582418
0.511127
1.26189
1.21843
1.24479
1.18784
1.16963
1.22092
1.20477
2.03702
2.06914
2.00329
2.10411
2.14489
2.08861
2.05094
1.52546
1.51353
1.51374
1.50577
1.51279
1.52153
1.51072
1.57025
1.55957
1.5579
1.54301
1.55841
1.55251
1.56525
1.5523
1.54955
1.54111
1.55705
1.56377
1.55799
1.54919
95.0706
95.7682
94.9127
94.555
94.955
94.0801
94.0372
97.7067
97.1109
97.7056
97.175
97.5814
97.4091
97.5061
96.1985
95.2163
95.7733
1.39669
1.24192
1.33988
1.55441
1.51339
1.62307
1.93767
1.32215
1.22279
1.30711
1.21554
1.2895
1.14936
1.14188
0.976204
0.985319
0.979717
0.969836
0.976117
0.981286
0.975329
0.975682
0.972439
0.966122
1.00161
0.997727
0.996887
1.0098
1.01174
1.01309
0.990237
0.9975
1.00217
0.999098
0.993926
1.02854
1.05249
1.11284
11.12
5.69642
4.94291
52.513
11.3709
8.19427
22.2521
97.1822
97.2574
97.7779
97.3011
97.061
96.485
97.3698
96.9745
97.3855
98.005
97.5748
97.3215
96.9553
98.6406
97.1106
98.1017
97.2692
96.2255
97.5757
97.5862
96.8118
1.43782
1.74277
1.54038
1.39396
1.43298
1.95783
1.63194
1.35828
1.36557
1.35088
1.35796
1.39551
1.43305
1.36045
1.42524
1.43355
1.46285
1.42183
1.43942
1.44773
1.42636
1.47012
1.47575
1.41003
1.50811
1.45011
1.52777
1.4184
1.3713
1.45503
1.43489
1.51098
1.52103
1.5056
1.46145
1.32085
1.23204
1.27134
1.18688
1.15497
1.26118
1.21845
-0.324756
-0.391759
-0.393882
-0.274764
-0.276298
-0.340841
-0.343026
-0.277242
-0.244994
-0.330616
-0.361301
-0.319509
-0.23815
-0.337009
-0.922092
-1.25626
-1.17652
-0.855407
-0.891477
-0.92931
-0.75559
-0.391719
-0.218165
-0.226337
0.129818
-0.374335
-0.130318
-0.205492
0.0986241
0.0987342
0.0911639
0.0987978
0.120291
0.104611
0.0950796
0.0268937
0.0286606
0.0231308
0.0269023
0.0290636
0.0287597
0.0247279
0.00701155
0.00929883
0.00616425
0.00443412
0.00569801
0.00469973
0.0109074
0.00875269
0.00629778
-0.00810339
-0.00738192
0.00614421
0.0042161
0.0200191
0.00435567
0.00694503
0.0112552
0.01412
0.0079082
0.0140552
0.0117012
0.00694156
0.000940114
0.00338632
0.00497159
2863.48
2853.93
2860.61
2867.04
2858.51
2844.29
2796.93
2843.34
2868.45
0.354847
0.43276
0.115119
80.6548
25.641
0.671217
-0.12397
3.45871
-0.116322
-0.0732837
0.033213
0.623337
2824.91
2879.06
2850.94
2820.69
2820
2821.53
2824.47
2820
2810.05
2821.9
2800.54
2805.84
2811.71
2815.3
2817.98
2821.31
2851.32
2820.47
2829.93
2802.36
2818.91
2819.8
2819.28
2820.4
2821.57
2824.07
2820.43
2822.31
2819.5
2815.68
2811.85
2806.9
2801.37
2792.13
2817.73
2825.85
2815.37
2844.14
2811.43
2787.16
2814.26
1674.96
669.808
2839.91
2891.41
2870.73
2712.95
2725.88
0.00395519
0.00290821
0.00225944
0.00328618
0.00165448
0.00115461
-0.00443805
-0.00477625
0.00203076
94.4749
97.2194
96.861
95.7263
95.6008
95.1341
96.537
96.8486
94.3271
95.7911
94.2253
97.374
92.1045
96.1704
92.9344
2.23616e-05
0.00659774
0.000434606
0.000442705
0.00115365
0.00174069
1.86326
1.58709
1.63689
0.813125
0.840303
0.821567
0.657168
0.678704
0.68512
0.659543
1.59074
1.57491
1.64966
-0.360396
-0.364687
-0.348887
0.81319
0.821453
0.836094
1.78398
3.09572
1.93068
1.63215
1.59121
1.55391
1.53977
-0.544933
-0.541443
-0.572259
-0.353304
-0.35688
-0.366266
-0.36693
1.04435
1.04591
1.05238
1.03971
0.799613
0.785772
0.819557
0.807201
1.50112
1.50566
1.51944
1.51137
1.51682
1.50941
1.52014
1.51186
1.50467
1.52467
0.785643
0.799781
0.806787
0.823102
1.04793
1.05321
1.02895
1.03542
1.03129
1.03471
1.0402
1.04036
1.03339
1.05505
1.50174
1.50622
1.52058
1.51207
1.52452
1.50477
0.659021
0.664853
0.631573
0.64177
0.646135
0.604112
0.625905
0.611536
-0.294856
-0.313473
-0.309709
-0.327314
7.9164
4.96061
6.17489
5.16527
-0.0503861
-0.0506861
-0.0589755
0.0649364
0.0618031
0.0703133
0.0672227
11.2191
39.0455
13.9777
32.3872
0.999708
1.01873
0.982766
1.02546
0.0236402
0.0254746
0.0266352
1.21911
1.48179
1.00654
1.02684
1.0152
1.00856
1.66494
1.66845
1.66848
1.66494
0.0910265
0.0943784
0.00140282
0.00251371
0.00334775
0.00391474
96.2696
97.1719
94.1103
96.4212
0.028749
0.0399427
0.0333506
0.0380785
1.29296
1.28911
1.30983
1.31582
0.710248
0.708862
0.729593
0.721616
-0.129091
-0.126916
0.107435
-0.00357338
-0.170702
-0.403282
1.60862
1.66242
1.58365
1.62672
1.234
1.3308
1.50633
1.23416
1.28745
1.28182
1.30806
1.30948
0.698297
0.690427
2852.35
2859.96
-0.02695
-0.0339753
-0.021908
-0.0300881
1.01252
1.00786
1.13044
1.05942
0.995556
0.997375
1.02335
1.03949
-0.794771
-0.810366
-0.0250223
-0.0222913
-0.0282972
-0.0252955
1.21832
1.07886
1.14473
1.06106
-0.0289218
-0.0244186
0.0186497
0.0214609
1.60005
1.60742
0.334514
0.346657
0.33336
0.350558
71.5904
85.5925
92.9482
93.0592
90.2024
97.313
96.5019
0.974873
0.981613
0.97364
0.982536
1.02551
1.16716
1.31285
97.9032
95.279
85.9784
44.7891
93.8965
94.3133
0.0207986
0.0745068
0.108559
0.106193
0.0356126
-0.0853724
-0.111021
-0.0303854
0.0125363
0.00722615
0.0132842
-0.0159351
-0.00964858
-0.0180899
0.0377111
0.0357336
1.72182
1.70492
1.69277
1.68251
1.70495
1.72125
1.68266
1.69285
1.63428
1.63676
1.63106
1.63375
2.20414
2.17834
2.22479
2.04866
0.573737
0.575204
0.72297
0.708342
0.631384
0.709044
0.898068
0.922149
-0.848755
-0.738251
2.12281
2.05573
0.829932
0.743675
0.95102
0.975587
2.06061
2.13446
5.58257
5.7241
2320.61
2721.07
2.06927
2.078
2.01783
2.01077
0.87459
0.864628
0.895904
0.884603
1.59243
1.59143
-0.163516
-0.152852
-0.187397
-0.17455
-0.358509
-0.372479
2850.7
2853.93
2861.77
2851.75
-0.465781
-0.583357
-0.506299
-0.755837
1.67697
1.65157
1.69358
1.70139
-2.66628
0.808304
-3.35004
-2.59824
0.631244
0.631717
1.04771
1.16597
0.404234
0.424544
0.411989
0.440005
6.02361
5.04447
2.71688
3.15735
-0.383233
-0.348225
-0.412313
-0.429339
0.0639248
0.0660404
51.9741
14.6367
0.00943338
0.010847
5.52355
10.835
2824.94
8.38721
5.99654
12.4276
7.08147
0.250692
0.260341
0.243278
0.260927
-0.456805
-0.349749
1.00912
1.03596
-0.352729
-0.347264
0.918908
0.927364
0.869138
0.899277
1.29421
1.29193
1.23067
1.27272
1.38775
1.64639
83.0904
96.4846
95.7824
-0.164361
-0.179932
-0.155794
-0.178544
0.536689
0.45676
0.802233
0.802168
-0.325183
-0.345988
-0.292476
-0.315347
0.664267
0.646372
0.0286876
-0.0672442
-0.00531013
-0.225579
1.51694
1.54192
1.46402
1.48823
-0.306523
-0.286336
-0.112747
-0.134544
-0.0400596
-0.0916435
0.0139525
-0.0658859
2.24676
2.28501
-0.947782
-0.973322
-0.00812173
-0.0109594
-0.0221339
-0.020991
-0.0263546
-0.0310104
1.63624
1.6421
1.64658
1.65368
6.12156
1.66481
10.8886
2.6474
-0.0414353
-0.0397095
-0.0376285
-0.0338611
-0.235433
-0.289324
-0.28888
-0.280186
0.645332
0.66297
0.322459
0.35042
1.35086
1.36403
1.28414
1.24737
1.26128
1.27493
1.19394
1.2278
1.1759
1.15715
1.09313
1.11963
1.27077
1.25047
1.15482
1.16953
0.00390756
1.21358
1.2554
0.992197
1.02704
1.08648
1.00261
0.0620933
0.0653248
0.0763511
0.0781812
1.64205
1.63604
1.65375
1.64669
1.09883
1.0675
1.06277
1.05673
1.19315
1.07868
1.27386
1.10101
2.38348
3.01628
2.62874
2.26516
0.0772669
0.0736408
0.626998
0.643427
80.9934
91.3102
0.485765
0.489646
0.471595
0.470225
-0.225898
-0.24318
-0.174988
-0.188395
1875.29
2009.74
2041.66
2110.58
2832.95
2861.97
7.32639
16.1534
133.751
194.959
1392.67
1471.95
0.524157
0.531535
0.00479187
0.00988513
1.23719
1.16425
0.86798
0.884764
0.80435
0.790353
2874.66
2882.84
0.827809
0.827273
0.779834
0.789853
0.427866
0.463816
-0.11836
-0.122353
1.03327
1.06496
1.12722
0.157721
0.137927
-0.535048
-0.497848
1.20867
1.20569
1.21539
1.21231
0.359641
0.377978
0.247386
0.306901
0.203902
0.303194
-0.0427123
-0.0537093
-0.000899938
-0.0299071
0.0124224
0.0140684
-0.0537386
-0.0433084
-0.0291264
-0.000483115
0.00282296
0.00355776
0.00351514
0.00278914
4.32026
-1.03886
0.0379709
-2.57425
0.706382
0.680408
0.890817
0.875525
0.839547
0.762381
0.00896042
0.0198835
5.63897
6.07137
16.3724
11.3023
1.56785
1.5986
1.68065
1.88564
1.37927
1.87619
2.00337
1.7973
1.98342
1.39314
1.27918
1.28436
-0.00204224
-0.0408314
134.209
194.195
35.7506
856.129
0.954997
0.908553
1.02432
0.970948
1.40915
1.40505
0.0262421
-0.00334378
1.3693
1.59075
1.23689
1.26818
2.14563
2.11186
2196.58
1922.09
2277.45
949.537
1.0029
1.00948
0.999442
0.988102
1.23509
1.28304
0.899661
0.960869
0.880133
0.891866
-0.62631
-0.667309
-0.571201
-0.613211
1.01218
1.01606
1.01592
1.02506
0.0305395
0.0291379
-0.121779
-0.116657
1.05782
1.05088
1.04926
1.0426
-0.121737
-0.11676
0.791006
0.738331
0.74149
0.739561
1.28247
1.2344
1.8616
1.92085
2.18041
2.52225
2.03353
2.16633
0.333728
0.286482
2857.22
2850.81
2849.94
2862.05
-0.391131
1.00768
1.01223
1.01187
0.425262
0.436208
-0.135236
-0.15649
-0.192388
-0.203163
0.808746
0.814586
0.804024
0.817596
0.661333
0.654814
0.672499
0.669779
0.79705
0.855247
-0.10108
-0.106863
13.5364
12.4979
1.07962
1.12235
1.05725
1.11855
1.2655
1.13801
1.17583
1.10352
-0.101124
-0.106912
-0.0234851
-0.0188559
1.54354
1.54992
0.0368078
0.0367902
0.0328413
2.15601
2.11611
1.34087
1.4313
1.16147
1.19655
1.09491
1.10796
1.25292
1.29869
1.17016
1.08652
99.9274
169.634
80.1189
150.462
2774.01
2785.52
1.55322
1.56894
1.1712
1.19671
1.5095
1.45847
1.46608
1.42585
145.406
43.7148
-0.0776031
-0.0711437
256.844
258.09
246.473
189.159
0.493312
0.502997
0.502597
0.492568
0.542463
0.568239
1.71659
1.72642
2.14569
2.11426
0.122167
0.112783
0.235792
0.16733
2845
2841.04
3.71592
2.30162
2.2036
1.72654
0.00676689
-0.0418903
0.096451
0.0921084
1.08454
1.05445
1.05055
1.04257
0.589835
0.581135
0.582107
0.677576
0.717561
0.735642
-0.266812
-0.279738
1.67204
0.553989
0.551174
1.67207
2.04166
1.73931
0.998855
0.96694
0.95686
0.923287
0.0663986
0.0723914
-0.0577758
-0.0615279
-0.0657062
-0.0685977
0.096662
0.0922583
-0.360514
-0.382586
2800.26
52.1422
20.6108
72.2986
1.58152
1.55584
0.243521
0.254902
0.528628
0.517501
-0.0135939
-0.069687
-0.310073
-0.0902255
-0.11082
-0.158305
-0.114128
4.29529
1.77751
-0.0149545
-0.0159542
1.61352
1.60253
0.707986
0.707613
0.427044
0.423993
0.44398
0.43696
-0.395292
-0.406677
22.4197
13.2255
1.74025
1.73811
0.635549
0.666307
-1.11715
-1.30131
-0.895611
-1.55146
1.13469
1.21974
0.70787
0.719929
1.87126
3.39619
0.77536
0.759171
0.100148
0.0956943
0.100011
0.0957473
105.093
102.293
0.159647
0.159011
33.7532
17.5104
-0.383655
-0.423163
0.0210325
0.0192609
0.177031
0.188052
110.121
170.424
1.21768
1.13415
4.10205
11.0945
0.625643
0.622205
1.21402
1.13796
1.11177
1.2098
1.13171
1.11231
0.846687
0.848054
0.842878
0.838983
1.55845
1.55682
0.991743
0.884797
0.99955
0.945949
1.20662
1.57101
0.838841
2.24469
-2.12215
-2.88459
1.02186
1.01847
0.0293323
0.0276239
-0.0492487
-0.051926
0.0293107
0.0275624
-1.07696
-1.20905
-1.23903
-1.17601
1.33786
1.29457
1.28043
1.27552
1.60682
1.61528
0.048542
0.0527693
1.73625
1.70272
0.6342
0.633787
0.628007
0.627527
1.25257
1.21754
-0.0691146
-0.854902
0.072021
0.081028
0.0773275
0.101141
1.11029
1.1491
0.499942
0.511606
0.511511
0.499971
5.9823
4.98302
1.61622