/*--------------------------------*- C++ -*----------------------------------*\
| =========                 |                                                 |
| \\      /  F ield         | OpenFOAM: The Open Source CFD Toolbox           |
|  \\    /   O peration     | Version:  v2012                                 |
|   \\  /    A nd           | Website:  www.openfoam.com                      |
|    \\/     M anipulation  |                                                 |
\*---------------------------------------------------------------------------*/
FoamFile
{
    version     2.0;
    format      ascii;
    class       volVectorField;
    location    "0.1";
    object      U;
}
// * * * * * * * * * * * * * * * * * * * * * * * * * * * * * * * * * * * * * //

dimensions      [0 1 -1 0 0 0 0];


internalField   nonuniform List<vector> 
24700
(
(0.0184839 -1.74943 0.0194163)
(-0.00755475 -1.69513 0.0109812)
(-0.00560558 -1.64594 0.00468596)
(0.0702395 -1.44456 -0.0165193)
(0.0303524 -1.55838 -0.036479)
(0.0771102 -1.51234 -0.0538973)
(0.0550787 -1.56252 -0.0467314)
(-0.0109332 -1.49037 0.00505563)
(0.0763255 -0.896808 -0.0190532)
(0.0238682 -1.39578 -0.0218031)
(-0.00258054 -1.46707 -0.0232015)
(-0.00359745 -1.49863 0.00395927)
(0.000140399 -1.48482 -0.0199543)
(0.00454875 -1.47067 -0.0194987)
(0.006162 -1.48436 0.00364843)
(-0.00167625 -1.49502 0.000388415)
(-0.00162957 -1.48933 -0.0161421)
(-0.00419243 -1.57013 0.0171242)
(0.0329454 -1.54345 0.0208284)
(0.00266433 -1.66865 0.0912775)
(0.0429432 -1.45278 0.0043703)
(0.00980894 -1.49662 -0.000339344)
(0.0252291 -1.44337 0.00647194)
(0.00511115 -1.57284 0.0499612)
(0.0507162 -1.43856 -0.00150881)
(0.00828593 -1.51335 -0.0054799)
(0.0423601 -1.20612 -0.00184159)
(-0.0119215 -1.49914 0.00876787)
(-0.0266952 -1.50396 -0.0304112)
(-0.00294313 0.473029 -0.0259246)
(0.00118499 0.475138 -0.0207271)
(-5.31892e-05 0.474486 -0.0180945)
(-0.00874298 0.47165 -0.0185497)
(-0.00490312 0.471591 -0.0185931)
(-0.0137514 0.47621 -0.0119855)
(-0.00278086 0.470403 -0.0142762)
(-0.00894597 0.59893 -0.0302726)
(0.00233287 0.590848 -0.0144731)
(-0.00229716 0.570919 -0.0219972)
(0.0010225 0.563419 -0.0246631)
(0.00182963 0.573505 -0.0399046)
(0.000668295 0.579111 -0.0188891)
(-0.00415632 0.594894 -0.0398408)
(0.00603596 0.277872 -1.11106)
(0.028357 0.104256 -1.0895)
(0.0333575 -0.104469 -1.11203)
(-0.0368656 0.243432 -1.0808)
(-0.0142531 0.295876 -1.10134)
(-0.000887506 0.166821 -1.09198)
(0.0227607 0.0737491 -1.1045)
(-0.0247487 0.500836 0.364441)
(-0.000356926 0.536763 0.405254)
(0.0237981 0.443848 0.322889)
(0.0137519 0.455412 0.385758)
(0.0526883 0.372807 0.331789)
(0.0576128 0.463215 0.349273)
(0.127088 0.406902 0.297635)
(0.206887 -2.18083 0.419835)
(0.298341 -2.70661 2.03)
(1.03435 -1.9506 -0.864127)
(0.296486 -1.74406 -0.837506)
(-0.845217 -1.48533 -0.267924)
(0.751207 -1.72193 -0.768383)
(-0.770881 -1.60571 -0.805617)
(0.00312394 0.207007 -0.427576)
(-0.0047602 0.260434 -0.396931)
(-0.000150791 0.219844 -0.358955)
(0.00141869 0.165755 -0.39113)
(-0.0293354 0.217668 -0.401985)
(-0.0311471 0.239341 -0.38971)
(-0.00622094 0.175512 -0.350378)
(-0.138941 -0.0183472 0.359509)
(0.0081536 -0.0377092 0.188732)
(0.0288281 0.0681578 0.373678)
(0.0182481 -0.101861 0.21112)
(0.0363182 -0.0462531 0.176088)
(0.0584628 0.0736184 0.325646)
(-0.0469088 -0.0190948 0.339651)
(0.00235153 -1.44918 -0.0719544)
(-0.0289627 -1.1116 0.0410039)
(-0.00575303 -1.50058 -0.0684783)
(-0.0588865 -1.58324 -0.0463424)
(0.0498524 -1.35403 -0.101086)
(-0.0211645 -1.53498 -0.116087)
(-0.0248027 -1.54532 -0.0950964)
(0.0175072 0.172341 -0.441518)
(-0.0053238 0.137903 -0.367551)
(0.0513364 0.174963 -0.294255)
(-0.0200971 0.0478291 -0.370235)
(-0.0455864 0.123501 -0.336901)
(-0.0366481 0.0391292 -0.297239)
(0.0209985 0.0689002 -0.257143)
(-0.00775987 0.182655 -0.113739)
(-0.00304009 0.194234 -0.110215)
(-7.7644e-05 0.169434 -0.125354)
(0.00611731 0.198901 -0.0960698)
(0.00992534 0.186548 -0.103367)
(0.00266564 0.20156 -0.0993629)
(0.0016214 0.193406 -0.101097)
(0.000391926 0.297078 -0.0534236)
(-1.22994e-06 0.284429 -0.0446713)
(0.00266872 0.27926 -0.0424235)
(0.0038364 0.277917 -0.0334307)
(0.00289151 0.277256 -0.0340471)
(0.00586615 0.272657 -0.0346087)
(0.00785077 0.275921 -0.0403027)
(-0.00745739 0.246362 0.0358807)
(0.00721926 0.252399 0.0314627)
(-0.000502444 0.261162 0.0150191)
(0.00248169 0.261748 0.0338195)
(0.00141226 0.263765 0.0374435)
(0.00571725 0.255313 0.0403893)
(-0.00248289 0.257953 0.0389379)
(0.000420862 0.195343 0.0131754)
(0.00152982 0.236763 0.0146555)
(0.00137794 0.248644 0.0141385)
(0.00770361 0.231218 -0.00936138)
(0.00204385 0.217907 -0.00835112)
(-0.000569216 0.195404 -0.0108876)
(0.00974312 0.228955 -0.0157321)
(-0.00852707 0.105145 -0.00132836)
(0.00902754 0.211077 -0.0198183)
(0.00174173 0.206525 0.00438322)
(-0.00563814 0.232027 0.000292888)
(0.0010315 0.230591 0.00800635)
(0.0002913 0.229057 0.0119478)
(0.00514105 0.232058 -0.00117951)
(-0.000481192 0.228875 -0.004665)
(0.0062068 0.235605 -0.00488468)
(-0.00260221 0.233988 -0.00827726)
(-0.000971907 0.232064 -0.00145184)
(0.00499331 0.23487 -7.90515e-05)
(-0.00093158 0.233814 0.00337918)
(-0.00976369 0.240363 0.000673719)
(0.000229531 0.239968 -0.00367382)
(-3.99229e-05 0.219107 -0.00139253)
(-0.000174005 0.224653 -0.00292524)
(-0.00206648 0.217071 -0.00288642)
(-0.000262219 0.228359 1.82872e-05)
(9.08389e-05 0.231868 0.000878576)
(0.000210352 0.228932 -0.000312926)
(-0.0013139 0.222016 -0.00043594)
(0.000425912 0.193575 -0.107922)
(-0.00714898 0.203034 -0.0898825)
(-0.0119122 0.216371 -0.0786825)
(0.00371313 0.216848 -0.0875656)
(0.0110795 0.206881 -0.0947805)
(0.00292298 0.209812 -0.0856316)
(-0.00482935 0.221039 -0.0816648)
(0.00757627 -0.144653 -1.15712)
(-0.0269351 0.0830653 -1.11131)
(-0.00518887 0.248306 -1.10176)
(-0.00426882 0.260501 -1.12259)
(0.0552196 0.197992 -1.10122)
(0.0144097 0.131855 -1.1298)
(0.0297685 0.00903578 -1.14871)
(-0.00827583 0.261736 -0.00733828)
(-0.000242982 0.264125 -0.0458445)
(0.00196185 0.254394 -0.0320031)
(0.0063054 0.201961 -0.0328146)
(0.00661584 0.185146 -0.0503536)
(0.0139757 0.229309 -0.0576689)
(-0.00177885 0.221088 -0.012266)
(-0.00337922 0.143439 -0.00704578)
(0.0171161 0.142464 0.0402655)
(-0.00904545 0.121312 -0.0366597)
(-0.0211332 0.0451392 -0.0503615)
(0.0264479 0.122845 0.0650974)
(0.0397354 0.110448 0.0891203)
(-0.00716759 0.0615547 -0.0261516)
(0.0046205 -0.112253 -0.24804)
(0.00877356 -0.138936 -0.375183)
(0.0235402 -0.168637 -0.363697)
(-0.0174002 -0.0511125 -0.233611)
(-0.0431646 -0.00640269 -0.26255)
(-0.0725889 -0.0741332 -0.355642)
(-0.0382516 -0.133728 -0.355108)
(0.0415789 0.0365136 0.112161)
(0.0749987 -0.132089 -0.01676)
(-0.0205324 0.177447 0.0355889)
(-0.0976337 -0.01044 -0.187503)
(-0.0384735 0.0550943 -0.0817417)
(-0.0490647 -0.128906 -0.111435)
(-0.0487939 -0.0228956 -0.00335394)
(0.0629031 -0.664453 -0.139443)
(-0.0488249 -0.6548 -0.144373)
(-0.00476099 -0.763941 -0.0889689)
(-0.129229 -0.718422 0.0486151)
(-0.0369455 -0.756961 0.00753863)
(-0.175793 -0.676841 -0.00308167)
(-0.0150179 -0.695982 -0.0342188)
(0.00669097 -0.0382867 -0.375033)
(0.0102337 0.00245627 -0.368655)
(0.00156678 -0.0260457 -0.407049)
(-0.00509499 -0.0116701 -0.442075)
(-0.0218241 -0.0545548 -0.438073)
(0.00786409 0.0152123 -0.42827)
(-0.0135378 -0.0562322 -0.428118)
(-0.0065372 -0.149783 -0.661641)
(-0.00113424 -0.133652 -0.640852)
(0.00246369 -0.138013 -0.640401)
(-0.0122715 -0.190791 -0.606138)
(-0.00801078 -0.229117 -0.619426)
(-0.010265 -0.19911 -0.651189)
(-0.0148648 -0.179359 -0.623747)
(0.00147793 -2.00945 0.00145377)
(-0.00281987 -1.98813 0.0208493)
(0.000837189 -2.01234 -0.0143368)
(0.00159485 -1.9875 0.0304961)
(-0.00245594 -1.96026 0.0111555)
(-0.00359848 -1.98619 -0.00432622)
(0.00351644 -1.99638 0.013207)
(0.00753317 -0.568602 0.251411)
(-0.00986173 -0.723221 -0.0271368)
(-1.03646e-05 -0.895668 -0.0225707)
(0.0227967 -0.574248 0.229352)
(0.0327877 -0.501967 0.0439848)
(0.0334042 -0.731771 -0.114281)
(0.0123792 -0.832449 -0.0440871)
(-0.0132632 0.18419 -0.379906)
(-0.00112544 0.246422 -0.401367)
(0.00864716 0.180683 -0.395297)
(0.0150726 0.213677 -0.377025)
(-0.00257684 0.219846 -0.368366)
(0.0123232 0.17791 -0.384125)
(-0.0128469 0.180829 -0.357769)
(-0.0125631 0.678056 -0.136786)
(-0.0560131 0.645151 -0.112945)
(-0.00120869 0.683327 -0.143655)
(-0.0311682 0.589841 0.00698333)
(0.0437123 0.645008 -0.0467132)
(-0.0977424 0.627757 -0.070994)
(-0.0138664 0.667592 -0.0703204)
(0.000442215 0.23758 0.157038)
(-0.012497 0.199083 0.127814)
(0.00448438 0.233975 0.1522)
(0.0035328 0.225438 0.155519)
(-0.0103817 0.211091 0.146647)
(-0.0220419 0.188 0.122749)
(-0.00339628 0.224012 0.151914)
(0.000238104 0.11967 0.117926)
(-0.00125754 0.117205 0.115525)
(-0.00179658 0.116456 0.127704)
(0.00323987 0.113814 0.127784)
(0.00152965 0.120924 0.121269)
(0.0108047 0.128394 0.123581)
(0.0165434 0.130782 0.139041)
(-0.172326 0.18489 -0.0417944)
(-0.332479 -0.089708 0.0255883)
(-0.253297 0.038109 0.022271)
(0.0182339 -0.0292688 -0.0718944)
(0.0177408 0.0401936 -0.155559)
(-0.0218517 0.0593757 -0.181816)
(0.0207373 0.000161024 0.00995059)
(0.0290941 -0.00205728 -0.006878)
(0.0276602 0.000901162 -0.00230447)
(0.000194114 0.00614978 0.0057738)
(-0.0120449 0.000167035 0.00958394)
(0.00398366 0.0194022 0.0130781)
(0.0543745 0.0205788 -0.00364482)
(0.0627678 0.113956 0.0388287)
(-0.050952 -0.173134 0.139089)
(0.0770948 0.0656138 -0.00634039)
(-0.00196785 -0.00249942 -0.0974768)
(0.102731 0.145752 0.00789984)
(0.0666825 0.0272837 0.0392216)
(-0.365372 -0.045858 0.0870649)
(-0.0472153 0.0433697 0.207677)
(-0.0463942 -0.194345 0.553796)
(0.192363 -0.158097 0.297683)
(0.199052 -0.133091 0.146137)
(-0.0455184 0.071202 0.0592189)
(-0.0369557 -0.0522111 -0.16486)
(0.118503 -0.0347456 -0.436018)
(-0.0707713 0.0542472 -0.393431)
(0.223653 -0.151676 -0.613038)
(-0.191162 -0.0257424 0.090777)
(0.0911516 -0.20408 -0.305402)
(0.140183 -0.290495 -0.586065)
(-0.0267171 -0.0861843 -0.0766307)
(-0.0111033 0.0841672 -0.0978425)
(-0.0141739 0.00797645 -0.152734)
(0.00363089 0.0514171 -0.134811)
(0.0564357 -0.107965 -0.0363655)
(-0.0215723 -0.0875534 0.00660592)
(-0.0180208 -0.106966 -0.0173612)
(0.0833593 -0.147191 -0.0640519)
(0.0188975 -0.0750908 0.234556)
(-0.00107504 -0.171858 0.203176)
(0.00355326 -0.0217636 0.356309)
(-0.0194327 -0.0802534 0.372326)
(-0.0609239 -0.144471 0.354176)
(-0.0582215 -0.23003 0.298078)
(-0.042508 -0.162801 0.27924)
(-0.000930081 0.51771 0.220426)
(-0.0214285 0.235406 0.263425)
(0.0400942 0.149827 0.258635)
(0.000771413 0.428521 0.143281)
(-0.0250497 0.445339 0.0426202)
(-0.0198165 0.246095 0.183521)
(0.0296145 0.197405 0.189866)
(-0.00216362 0.580027 -0.618637)
(0.00081903 0.511595 -0.611829)
(-0.00254048 0.556983 -0.614788)
(-0.0156343 0.504092 -0.607644)
(-0.00796421 0.496907 -0.610819)
(-0.0256968 0.555454 -0.633578)
(-0.0205362 0.561717 -0.640461)
(0.00116567 -0.164527 -0.409396)
(-0.000483927 -0.199193 -0.440773)
(0.0109619 -0.212415 -0.455183)
(0.00983864 -0.225427 -0.44139)
(-0.00593452 -0.211688 -0.444281)
(0.00369467 -0.221909 -0.452961)
(0.021014 -0.221918 -0.446327)
(-0.0588122 -1.85924 0.202518)
(-0.147362 -1.94111 0.178387)
(0.0101927 -1.8167 0.331238)
(0.0104169 -1.88018 0.287833)
(0.084387 -1.79185 0.331154)
(-0.104149 -1.92714 0.289618)
(-0.0281035 -1.86968 0.314421)
(-0.13374 0.845292 -0.754061)
(-0.14155 0.912751 -0.581801)
(-0.00826959 0.796805 -0.934964)
(0.117563 1.06309 -0.668299)
(0.111901 0.948569 -0.867072)
(-0.0573281 1.0432 -0.608005)
(-0.0550975 0.978732 -0.760415)
(-0.000988497 0.248605 -0.0494436)
(-0.00136419 0.248293 -0.0463568)
(0.000478945 0.250054 -0.0503703)
(0.00198834 0.253797 -0.0462357)
(0.000697528 0.253244 -0.0476897)
(0.00161448 0.254116 -0.0448854)
(0.000979203 0.253824 -0.0481311)
(9.09689e-05 0.249158 -0.00994196)
(-0.000121706 0.247331 -0.0121081)
(0.00067621 0.246579 -0.0119775)
(-0.00243805 0.245626 -0.0117227)
(0.00132391 0.24699 -0.0125277)
(-0.000486026 0.248281 -0.0136629)
(0.00271791 0.251691 -0.0130375)
(0.00193046 0.237864 -0.0112244)
(-0.000213344 0.234529 -0.0009576)
(0.000171125 0.235038 -0.00877825)
(-0.000712507 0.231817 -0.00555553)
(0.00117516 0.229294 -0.00859331)
(-0.0012113 0.231257 -0.0109722)
(0.000113596 0.232272 -0.0125745)
(-0.00118667 0.247881 0.00518582)
(0.00059176 0.247103 0.00550098)
(-0.00036952 0.25029 -0.00379973)
(-6.36103e-05 0.241761 0.000353329)
(-0.00062984 0.236985 0.00173588)
(-7.498e-05 0.244344 0.00812577)
(-3.38782e-05 0.242506 0.00633978)
(-0.00214117 0.234828 -0.00208622)
(0.00024714 0.232742 -0.00239358)
(-0.000101928 0.232653 0.00412463)
(-0.000101818 0.237392 -0.00387304)
(-0.00115924 0.23736 -0.00236519)
(0.00145871 0.234307 -0.00603588)
(0.000944077 0.23432 -0.00250108)
(-0.00296113 0.228316 -0.00347225)
(2.39146e-06 0.226599 -0.00889393)
(0.00011757 0.228514 -0.00354452)
(-0.000376942 0.231231 -0.00218713)
(0.00217156 0.234385 -0.00160356)
(0.00386861 0.233175 0.000172144)
(9.77598e-07 0.231375 -0.00317912)
(0.0013255 0.22191 -0.00573606)
(0.00036054 0.225849 -0.0104136)
(0.000441816 0.220596 -0.00503139)
(-0.00288293 0.225269 -0.00169961)
(-0.00088901 0.224241 -0.00427324)
(0.00168122 0.220292 -0.00181873)
(0.000224767 0.221302 -0.00179078)
(0.000252077 0.224866 -0.00110239)
(-8.33726e-05 0.220333 0.0011957)
(0.00115468 0.217186 -0.000433495)
(0.000563225 0.233936 0.00205689)
(0.000644029 0.229441 0.00153655)
(0.000591823 0.231706 0.00109525)
(0.00129679 0.223273 0.00173302)
(-0.000235266 0.20778 -0.0150457)
(-0.000205206 0.203587 -0.0195104)
(-0.000624606 0.202926 -0.0154141)
(-0.000547953 0.210954 -0.0169411)
(0.000550064 0.212868 -0.0199245)
(0.000254937 0.208973 -0.0216476)
(-0.00154309 0.20655 -0.0182624)
(-1.02357e-05 0.170616 -0.124709)
(0.0022166 0.194875 -0.109907)
(0.00773297 0.183405 -0.113387)
(-0.00998838 0.188156 -0.101701)
(-0.00616022 0.200721 -0.09434)
(-0.00510962 0.20313 -0.0988775)
(-0.00286438 0.194853 -0.100755)
(-0.00207233 0.118214 -0.179389)
(-0.00334332 0.150062 -0.171264)
(-0.00207181 0.153438 -0.181212)
(0.0207478 0.142037 -0.167814)
(-0.00306011 0.137506 -0.174755)
(0.000600025 0.149944 -0.167408)
(0.0170294 0.160991 -0.178881)
(-0.00326939 -1.91407 -0.000288576)
(9.72235e-06 -1.91935 -0.00928225)
(-0.00545938 -1.92896 -0.00493416)
(-0.000878746 -1.88278 -0.0144339)
(0.00290936 -1.88709 -0.0255634)
(0.00371395 -1.89937 -0.0215431)
(3.88591e-05 -1.91143 -0.00824959)
(-0.00568041 0.326296 -0.332535)
(-0.00529411 0.343902 -0.320859)
(-0.00236283 0.370559 -0.385279)
(-0.000411455 0.347418 -0.3576)
(0.00225667 0.3612 -0.352112)
(-0.00477705 0.354754 -0.318946)
(-0.00707865 0.330969 -0.321035)
(0.00738583 0.518154 -0.412275)
(0.00153692 0.460527 -0.50697)
(-0.00894568 0.465698 -0.474206)
(0.0199598 0.550663 -0.450936)
(0.0335564 0.609902 -0.373446)
(0.0265425 0.545994 -0.452292)
(0.0453929 0.606574 -0.403423)
(0.0049842 0.185934 0.075024)
(0.0278633 0.199361 0.0654257)
(-0.000850481 0.187652 0.0543693)
(-0.0188245 0.204825 0.0270604)
(-0.0119638 0.185662 0.0360367)
(0.00235201 0.24024 0.0389854)
(-0.00478884 0.205374 0.0595507)
(-0.0236964 0.287576 0.0944004)
(-0.00988416 0.47252 -0.0861628)
(-0.00611562 0.352961 0.0614914)
(0.0289536 0.150754 0.0129008)
(0.0452586 0.316345 -0.0583511)
(-0.051571 0.115482 0.0660787)
(0.0463009 0.169561 -0.00327776)
(-0.0302693 0.239011 0.0747654)
(-0.0951894 0.182291 0.119878)
(-0.0728173 -0.0292655 -0.00914335)
(0.0623569 0.179586 -0.0594325)
(0.0685304 0.0781193 -0.0447845)
(-0.00192015 0.267422 0.0473111)
(-0.0337881 0.215027 -0.0753588)
(0.0228521 0.227756 -0.0949907)
(0.00585684 0.25765 -0.177256)
(-0.037294 0.226309 -0.22025)
(-0.0945012 0.219163 -0.278837)
(-0.0282736 0.235433 -0.236157)
(-0.0856048 0.226363 0.0448878)
(-0.0943015 0.210298 -0.125261)
(-0.192224 0.14876 -0.0150866)
(-0.141042 0.188958 0.0903849)
(-0.101063 0.194034 -0.0502792)
(-0.0540177 -0.205046 -0.295614)
(0.181382 -0.361659 -0.167003)
(0.050602 0.152158 -0.341726)
(-0.043945 -0.376123 -0.166988)
(-0.136977 -0.276193 -0.28047)
(0.063327 -0.465497 -0.155006)
(-0.113773 -0.376735 -0.243956)
(-0.00528258 0.072294 -0.224007)
(-0.0165181 -0.0633131 -0.129791)
(0.0537079 0.138479 -0.0528552)
(0.0384411 0.0223109 -0.155092)
(-0.0245967 -0.0891958 -0.214948)
(-0.0325381 -0.109686 -0.194013)
(0.0751387 0.0624702 -0.07544)
(-0.0126575 -0.588368 -0.408339)
(-0.00463375 -0.579815 -0.422029)
(0.0501082 -0.606999 -0.396718)
(0.0204429 -0.624389 -0.200978)
(-0.03991 -0.557188 -0.278902)
(-0.0135694 -0.57942 -0.268025)
(0.0700835 -0.644215 -0.201303)
(-0.0055326 -0.460922 -0.123974)
(-0.010654 -0.478116 -0.105995)
(0.0163176 -0.485382 -0.0724284)
(-0.00596724 -0.392343 -0.00942764)
(-0.0187706 -0.397067 -0.0684427)
(-0.0235774 -0.426107 -0.0471056)
(0.0113818 -0.432022 0.0192315)
(0.00461113 0.384569 0.767057)
(0.0135325 -0.208778 0.842042)
(0.0685841 0.129957 0.853074)
(-0.0452055 0.377499 0.869232)
(-0.0668899 0.239586 0.925961)
(-0.0359424 0.0910596 0.95376)
(0.0176109 0.244269 0.943404)
(0.0171579 0.597974 -0.0532709)
(0.000587405 0.575989 -0.0685881)
(-0.0017824 0.60185 -0.0964081)
(-0.027989 0.569448 -0.00395494)
(0.00897866 0.587799 0.0226967)
(-0.00915221 0.562085 -0.0132059)
(0.0185479 0.593735 -0.000725977)
(0.00120587 0.278271 -0.103329)
(-0.00382535 0.283213 -0.0834443)
(-0.00717224 0.288948 -0.0706012)
(0.0086942 0.302411 -0.0779327)
(0.00386561 0.29933 -0.0889515)
(0.00501866 0.303092 -0.0820917)
(0.0072857 0.302603 -0.0730081)
(-0.000422297 0.254301 -0.0034729)
(-0.00192632 0.257312 -0.0034591)
(-0.000104375 0.256157 0.00244595)
(0.000197899 0.244711 -0.0019751)
(-0.00204236 0.245559 -0.00102639)
(-0.00206413 0.252608 -0.00306261)
(-0.0020735 0.246227 -0.0047642)
(0.00208886 0.204617 0.00214064)
(0.0095767 0.243587 -0.021797)
(0.00589593 0.12546 0.00444207)
(-0.0128671 0.230592 -0.00452481)
(-0.0248283 0.232183 0.0197341)
(-0.0251983 0.259624 0.0178414)
(-0.00764034 0.268233 -0.0169407)
(-0.00108649 0.240471 -0.00111493)
(0.000563374 0.253049 -0.0134901)
(-0.00235442 0.246784 -0.00540868)
(0.00269542 0.237779 -0.00469923)
(0.00347795 0.237843 -0.00497265)
(0.0036835 0.236696 -0.00425788)
(0.00325566 0.237425 -0.00248515)
(-0.00155048 0.172853 -0.00327841)
(-0.00306028 0.175353 -0.00305842)
(-7.9536e-05 0.16742 -0.00886396)
(0.000543086 0.169689 -0.0107285)
(0.00156568 0.168095 -0.00748884)
(-0.00135637 0.175075 -0.00663949)
(0.000595061 0.173326 -0.00344549)
(-0.00170803 0.161672 -0.0152889)
(-0.00371901 0.164384 -0.0150622)
(-1.28238e-05 0.15665 -0.0233066)
(0.00231877 0.161412 -0.0259715)
(0.00141902 0.15914 -0.0221247)
(-0.00075546 0.16369 -0.0198116)
(0.0014618 0.162031 -0.0157855)
(-0.0320234 0.489429 0.299096)
(-0.0736098 0.362551 0.225614)
(-0.0169717 0.409449 0.256364)
(0.0802021 0.299457 0.392087)
(0.0268606 0.223809 0.374245)
(-0.00347125 0.197219 0.29834)
(0.0213114 0.265024 0.318452)
(0.0403427 0.551068 -0.531437)
(0.00217374 0.461726 -0.599278)
(0.0455621 0.603881 -0.445072)
(-0.0251217 0.449431 -0.580767)
(0.00325098 0.497249 -0.514459)
(0.047899 0.509593 -0.526289)
(0.0722907 0.547344 -0.45423)
(-0.027615 0.384215 0.0503484)
(-0.00571052 0.299573 0.243613)
(-0.00222401 0.196362 -0.183668)
(-0.0111119 0.201307 -0.0957992)
(-0.0384788 0.291263 -0.194408)
(-0.0197604 0.246095 0.13452)
(-0.0521634 0.39531 -0.0307128)
(0.00964172 0.0202963 -0.189523)
(0.0187047 0.146266 -0.00486531)
(-0.00362099 0.130532 0.277246)
(0.0445849 -0.121499 0.135192)
(-0.00785172 -0.0586579 0.288043)
(0.0533673 -0.0607147 0.0761523)
(0.0161982 -0.094011 -0.143412)
(-0.00789629 0.188431 0.0672903)
(0.000305798 0.12464 0.0640033)
(0.00682015 0.162458 0.0719004)
(-0.0130793 0.170624 0.0691166)
(0.00198572 0.147435 0.070852)
(-0.0103533 0.175065 0.0761848)
(-0.0213462 0.21221 0.0599478)
(-0.0190511 0.138093 0.120794)
(0.0126414 0.125723 0.112008)
(0.00259934 0.14575 0.135833)
(0.00466517 0.113217 0.145763)
(0.0468883 0.0906196 0.160095)
(0.0734059 0.121512 0.13872)
(0.0261948 0.134516 0.139211)
(0.0323554 0.14569 -0.404815)
(0.0823368 0.097677 0.00648956)
(-0.178457 0.139323 -0.121988)
(0.0356144 -0.0197143 0.0977448)
(0.113208 0.0129991 -0.00224106)
(0.14052 -0.0296416 0.0147138)
(-0.0170873 -0.0687856 -0.0114452)
(0.00201604 0.0651637 0.00654039)
(0.0236469 0.0407712 -0.0131433)
(-0.019943 -0.0915249 0.0740414)
(0.0458385 -0.183049 0.0444996)
(-0.104407 -0.0250474 -0.034584)
(-0.0164563 0.0295172 0.0203861)
(0.0393465 0.00687202 0.114222)
(-0.00110799 0.0971224 -0.180315)
(0.0272863 0.0596576 -0.168455)
(0.0293252 0.0351946 -0.219447)
(0.00976703 0.0178066 -0.25283)
(0.00647907 -0.00100726 -0.290491)
(0.0408233 -0.0427313 -0.270269)
(0.0608773 -0.0266994 -0.228564)
(0.00534031 -0.317375 -0.120667)
(-0.00135955 -0.311292 -0.117663)
(-8.01094e-05 -0.314746 -0.131588)
(-0.00487043 -0.314952 -0.124803)
(-0.00179785 -0.314439 -0.130935)
(-0.00647859 -0.313941 -0.122941)
(0.002249 -0.315901 -0.120992)
(-0.0142214 -0.460457 -0.22265)
(-0.00266056 -0.457402 -0.246233)
(-0.00990725 -0.456041 -0.269063)
(0.0119851 -0.418625 -0.21609)
(0.02185 -0.424747 -0.227451)
(-0.0011229 -0.421252 -0.206697)
(0.0122914 -0.439463 -0.250527)
(-0.0147468 -0.0792883 0.476458)
(0.0135077 -0.112405 0.505171)
(4.87846e-05 -0.0749019 0.498017)
(0.0097703 -0.0702992 0.492678)
(-0.00437263 -0.0685787 0.484266)
(0.0185912 -0.0999678 0.500576)
(-0.00750397 -0.0845324 0.480325)
(0.00249517 0.388324 0.136891)
(0.00425162 0.419132 0.141805)
(0.000269048 0.420653 0.126102)
(-0.0056529 0.394797 0.101815)
(0.00766128 0.407811 0.112455)
(0.0124716 0.410294 0.121585)
(0.000827296 0.38467 0.11036)
(-0.0031229 0.307654 -0.0137937)
(-0.000898075 0.309349 -0.0155542)
(-8.90466e-05 0.308182 -0.00418768)
(0.00273322 0.299108 -0.0108949)
(0.000118856 0.297272 -0.0125733)
(-1.03864e-05 0.305297 -0.0193323)
(-0.004212 0.30005 -0.0235576)
(0.00491738 0.134479 -0.000117071)
(-0.0127183 0.232981 -0.00545983)
(-0.0160758 0.229002 0.00845987)
(-0.0130449 0.223219 -0.00173208)
(-0.0159628 0.232488 -0.0219021)
(-0.01591 0.248079 -0.0155055)
(-0.0173275 0.248178 0.00627809)
(-0.00130374 0.251595 -0.0081164)
(0.00257719 0.282315 -0.0160135)
(-0.00355156 0.265186 -0.00148793)
(-0.00492922 0.248515 -0.00665505)
(-0.00647743 0.25483 -0.0153107)
(-0.013893 0.13617 0.0069763)
(-0.0168771 0.214826 -0.00133627)
(-0.00205868 0.256013 -0.0246754)
(0.000333716 0.234072 0.00670309)
(-0.00482734 0.221889 0.0215901)
(-0.0074368 0.250117 0.0129273)
(0.00594709 0.26643 -0.0164256)
(0.000124244 0.261347 -0.0156146)
(-0.0183432 0.236293 -0.00113177)
(0.00368119 0.259063 -0.0187451)
(0.000281147 0.253451 -0.00915129)
(-0.00714079 0.25504 0.00214587)
(-0.00602769 0.250028 -0.000645535)
(-0.0221992 0.261022 0.00360816)
(0.0013373 0.268156 -0.0365478)
(-0.0195695 0.260418 0.0147924)
(0.0104879 0.230004 0.0178571)
(-0.000112117 0.138694 -0.0301985)
(0.00307918 0.146584 -0.0288068)
(0.00282495 0.141909 -0.027534)
(-0.00252525 0.144511 -0.0168869)
(-0.00632 0.152675 -0.0155709)
(-0.000838688 0.152606 -0.0235308)
(0.00230004 0.144606 -0.018826)
(0.00642435 -0.0859133 0.212779)
(0.00650907 -0.0724425 0.20453)
(0.00119205 -0.15011 0.230727)
(-0.0454287 -0.0479064 0.392239)
(-0.0234449 -0.186444 0.303064)
(-0.0365685 -0.0179206 0.336466)
(-0.0313567 -0.140533 0.303811)
(-0.00141885 0.151268 0.323933)
(-0.00522176 0.156701 0.284057)
(0.0264517 0.129604 0.310522)
(0.00671115 0.111839 0.31975)
(0.0143537 0.159906 0.318213)
(0.0208215 0.151188 0.280599)
(0.0191721 0.107828 0.281797)
(0.0239396 0.214905 0.234066)
(-0.00359622 0.103589 0.318729)
(0.0153938 0.161163 0.290578)
(-0.0187769 0.194724 0.158312)
(-0.0373969 0.161824 0.203108)
(-0.0347838 0.214701 0.220039)
(-0.0112538 0.233098 0.168315)
(-0.00620547 0.233742 -0.225422)
(-0.000649552 0.211659 -0.250084)
(0.00463191 0.20119 -0.236832)
(0.00250734 0.228493 -0.278417)
(0.00415127 0.257495 -0.275636)
(0.00834967 0.21837 -0.257223)
(-0.000466906 0.251144 -0.243931)
(-0.00411486 0.331253 -0.315743)
(-0.00120856 0.33288 -0.278747)
(0.00663725 0.342245 -0.320636)
(-0.00500079 0.345331 -0.279849)
(-0.00145286 0.325381 -0.278605)
(-0.00151369 0.361919 -0.322396)
(-0.00741138 0.339377 -0.317469)
(-0.00125116 0.518919 -0.293022)
(0.0330952 0.658754 -0.158933)
(0.0467481 0.780466 0.0445225)
(-0.000109809 0.806259 0.277092)
(0.00507298 0.696354 0.031575)
(0.0428833 0.774577 0.0573596)
(0.0344841 0.82092 0.217524)
(0.00103887 0.644986 -0.305766)
(-0.031813 0.680379 -0.44517)
(-0.0204794 0.641493 -0.0978794)
(0.109583 0.749225 -0.067041)
(0.0567285 0.731003 -0.00869314)
(0.070403 0.75802 -0.296817)
(0.049283 0.750354 -0.202895)
(-0.000352359 0.0301703 -0.00366059)
(-0.0180853 0.0280258 0.0231989)
(0.00192549 0.0260173 0.0201549)
(0.00315832 0.0348655 -0.00398605)
(0.00723702 0.0113678 -0.00237662)
(-0.007599 0.0177019 0.0215745)
(0.0124406 0.0397264 0.0212607)
(0.000568052 0.0465668 0.00152489)
(-0.00614471 0.0350611 -0.00302054)
(0.017819 0.0794083 0.0156577)
(0.0123791 0.111662 0.00632147)
(-0.0127966 0.0547814 0.0216523)
(0.0215048 0.0961634 0.12596)
(0.00887784 0.10231 0.122928)
(0.000479306 0.111283 0.126449)
(-0.0140087 0.122261 0.132422)
(-0.00822896 0.123523 0.128599)
(0.0116685 0.11522 0.124272)
(0.0127906 0.105634 0.126497)
(0.0132394 -0.15387 0.280403)
(0.038406 -0.126309 0.206449)
(0.00795591 -0.213155 0.312166)
(0.022855 -0.20423 0.108689)
(-0.0573611 -0.243471 0.195625)
(0.0911119 -0.209878 0.104943)
(-0.011541 -0.218292 0.195466)
(0.0126427 0.0127038 -0.196318)
(-0.00367419 0.0774884 -0.143473)
(0.000370004 -0.0700648 -0.140318)
(-0.010047 -0.0063237 -0.0747238)
(-0.0125444 -0.0776531 -0.076594)
(-0.00297649 0.022799 -0.113132)
(0.00618014 -0.0806169 -0.137803)
(-0.044495 -0.016914 -0.0709266)
(-0.0458093 0.0123773 0.17821)
(0.0758658 0.141098 0.037383)
(0.103208 -0.0688573 -0.024279)
(-0.0324907 -0.0335241 -0.0280661)
(0.102984 -0.0912365 0.0843686)
(0.0554488 0.00490835 0.0535457)
(0.00459432 -0.124392 -0.356546)
(0.00716354 -0.138692 -0.339829)
(-0.000708704 -0.0944482 -0.359461)
(-0.00310326 -0.113995 -0.317062)
(-0.00480868 -0.0957383 -0.331611)
(-0.000436628 -0.133318 -0.324724)
(-0.000845438 -0.116229 -0.333264)
(-0.000494061 -0.139775 -0.217417)
(0.00609134 -0.158051 -0.22582)
(-0.000510593 -0.176016 -0.226315)
(0.00234116 -0.189657 -0.199344)
(-0.00625152 -0.166388 -0.177972)
(0.00513452 -0.176815 -0.200956)
(-0.00813291 -0.143488 -0.183864)
(0.0011804 -0.338208 0.0056003)
(0.000382481 -0.324385 -0.00301431)
(-0.00619258 -0.340722 -0.0212129)
(0.00710232 -0.354543 -0.00304364)
(-0.00154927 -0.33781 0.0128572)
(0.000969016 -0.335175 0.00794945)
(0.00318509 -0.36363 -0.0135379)
(-0.0125234 0.07168 0.378715)
(0.00384041 0.0663538 0.387925)
(-2.03012e-05 0.114732 0.418804)
(0.00235326 0.0919329 0.395305)
(-0.00131221 0.0932238 0.388491)
(-0.00219699 0.0719926 0.392102)
(-0.0161317 0.0660728 0.37095)
(0.000898174 0.276914 0.365888)
(0.0151785 0.270729 0.396761)
(0.00788993 0.277876 0.381724)
(-0.0129698 0.256364 0.363769)
(-0.010874 0.241835 0.371712)
(0.00405209 0.264842 0.409446)
(-0.00258148 0.280071 0.399214)
(0.00727745 0.121945 0.000193629)
(-0.0115447 0.199863 -0.00286468)
(-0.0125639 0.202334 0.00569339)
(-0.0134445 0.210674 0.00190642)
(-0.0217 0.219956 -0.016229)
(-0.0214861 0.218461 -0.00440474)
(-0.0174206 0.224591 0.0124532)
(-0.000264983 0.219216 -0.00434382)
(0.00135183 0.268315 -0.00184785)
(-0.00601177 0.244294 0.0112049)
(-0.00230493 0.217123 -0.00561859)
(-0.0101934 0.232321 -0.00637113)
(5.53613e-05 0.256202 0.00216127)
(0.00176523 0.257129 -0.0033879)
(0.000574699 0.254031 -0.00365385)
(0.00234784 0.24557 -0.0015276)
(-0.000256971 0.244916 -0.00209549)
(0.00197834 0.25256 -0.00309005)
(0.00219052 0.246158 -0.00507811)
(0.000245484 0.250496 -0.0420682)
(-0.00017488 0.246209 -0.0249932)
(0.006055 0.245226 -0.0255102)
(-0.000114457 0.245458 -0.0294122)
(-0.00594285 0.248435 -0.027307)
(-7.10661e-05 0.248855 -0.0250769)
(0.0064262 0.242997 -0.0216929)
(0.000465782 0.234921 -0.0479169)
(-0.000106502 0.232605 -0.0398961)
(0.00445484 0.228032 -0.0372768)
(-0.000868249 0.228313 -0.0381479)
(-0.00668595 0.228993 -0.0366499)
(-0.00310486 0.228963 -0.0395919)
(0.00304381 0.223714 -0.0350521)
(-0.00012106 0.151753 0.0175437)
(-0.0014494 0.146922 0.0150415)
(-0.00361877 0.14487 0.018455)
(0.000732103 0.144298 0.0103)
(0.003462 0.142069 0.0165493)
(0.00542543 0.138027 0.00996796)
(0.00220981 0.135555 0.0199706)
(0.00605326 0.12859 0.0124996)
(-0.000227211 0.131954 0.0189555)
(0.0153388 0.114607 0.00165744)
(0.00483813 0.121384 0.0117308)
(-0.000561528 0.127881 0.0176437)
(-0.00105255 0.12885 0.0108597)
(-0.0103443 0.121617 0.0163871)
(0.00693079 0.110372 0.0160024)
(0.0080425 0.110841 0.00840358)
(0.00101218 -1.66751 -0.0357287)
(0.00115339 -1.65684 -0.018909)
(-0.00147706 -1.66902 -0.0529412)
(-0.00326153 -1.63425 -0.0330618)
(-0.00123012 -1.66049 -0.0464996)
(-0.00368964 -1.6404 -0.0242466)
(-0.000667288 -1.66149 -0.0375484)
(0.00576874 -0.0361884 0.174494)
(0.0161489 0.00110754 0.121104)
(-0.00666107 0.101227 0.0637073)
(-0.061209 0.128755 0.116076)
(0.000495479 0.0281922 0.0606101)
(0.00458379 -0.164492 0.0322595)
(0.0411292 -0.27347 0.0874582)
(-0.000518388 0.106247 0.145239)
(0.010561 0.122634 0.120039)
(0.0016557 0.131309 0.112918)
(-0.00504409 0.132627 0.109215)
(-0.0110888 0.125593 0.112343)
(-0.00181777 0.129753 0.100296)
(-0.00245218 0.126189 0.101252)
(-0.013715 0.160175 0.0142012)
(7.45142e-05 0.186447 0.0762062)
(0.0123947 0.183953 0.00497178)
(0.00559329 0.176015 0.0576919)
(-0.00685525 0.163414 0.0668077)
(0.0120498 0.177332 0.0190664)
(-0.00506763 0.147218 0.0238704)
(-0.0143746 0.168691 -0.238561)
(0.0112693 0.178139 -0.276025)
(-0.00452145 0.157657 -0.326028)
(-0.00262094 0.107113 -0.317427)
(0.0110646 0.0913838 -0.285713)
(-0.0265016 0.144228 -0.277536)
(-0.0322737 0.144219 -0.230048)
(-0.0029257 0.490998 -0.441134)
(0.0326056 0.422267 -0.505506)
(0.0103916 0.32798 -0.512701)
(-0.024728 0.354386 -0.467194)
(-0.0187766 0.413989 -0.463792)
(0.00447184 0.382175 -0.507762)
(-0.0213705 0.35629 -0.493914)
(0.059033 0.618341 -0.446228)
(-0.00549339 0.560593 -0.481353)
(-0.00161256 0.473225 -0.46633)