/*--------------------------------*- C++ -*----------------------------------*\
| =========                 |                                                 |
| \\      /  F ield         | OpenFOAM: The Open Source CFD Toolbox           |
|  \\    /   O peration     | Version:  v2012                                 |
|   \\  /    A nd           | Website:  www.openfoam.com                      |
|    \\/     M anipulation  |                                                 |
\*---------------------------------------------------------------------------*/
FoamFile
{
    version     2.0;
    format      ascii;
    class       surfaceScalarField;
    location    "0.05";
    object      alphaPhi0.water;
}
// * * * * * * * * * * * * * * * * * * * * * * * * * * * * * * * * * * * * * //

dimensions      [0 3 -1 0 0 0 0];
oriented        oriented;


internalField   nonuniform List<scalar> 
13152
(
1.45886e-06
3.36294e-05
-2.39151e-06
-3.26969e-05
3.0994e-05
-2.86369e-05
-8.98319e-07
-5.82617e-06
7.04496e-05
-5.77507e-05
5.89299e-05
-3.57074e-06
3.53467e-05
-0.000125794
4.74798e-05
-4.077e-05
0.000100584
-2.69191e-05
-4.9361e-05
-4.73521e-05
0.000123632
6.22604e-07
-2.80696e-05
5.27889e-07
-4.9836e-05
1.09761e-06
1.30963e-05
8.60742e-06
-4.97734e-05
1.30702e-05
5.54002e-07
-8.45588e-06
-2.5826e-05
-4.96845e-05
-1.44173e-05
-2.45478e-05
-8.57816e-06
4.75432e-05
-6.67589e-08
-1.44616e-05
1.10992e-07
-2.3743e-05
-8.71909e-07
9.39737e-06
-5.0939e-05
2.708e-05
-4.90912e-05
4.99104e-05
4.89502e-05
-1.01288e-06
4.0665e-08
-2.53127e-05
-4.98271e-05
1.83255e-07
-0.000124913
5.17694e-07
2.66732e-05
5.0337e-05
9.11367e-08
0.000124553
5.97598e-05
2.12176e-05
4.22024e-05
-0.00012318
4.98715e-07
-1.01656e-06
6.02774e-05
2.08179e-05
4.15906e-07
-3.13715e-05
0.000122639
0.00012949
4.8537e-05
-1.14862e-06
-4.89629e-05
1.57448e-06
-2.72537e-05
-4.49623e-05
0.000120753
3.57714e-07
-2.87604e-05
-1.3417e-05
1.32878e-05
4.86845e-07
8.77076e-06
-5.09482e-05
-8.26564e-06
-2.34091e-05
-4.84578e-05
-2.31374e-05
2.14795e-07
4.85533e-05
3.1028e-07
6.05318e-07
8.58374e-07
-1.03681e-06
-3.94696e-07
-5.01319e-07
-1.6529e-07
8.52889e-07
3.69123e-07
-6.30568e-08
1.34767e-07
-9.46769e-07
2.84508e-08
2.19235e-08
-9.06017e-07
-8.22139e-08
1.27148e-07
3.24189e-07
-1.8043e-07
3.51593e-08
-3.08601e-07
-8.18598e-07
-1.5953e-07
-6.01221e-78
3.91458e-77
-1.35966e-77
-1.39436e-76
7.7306e-77
-3.67743e-76
1.49073e-76
-3.91155e-77
-3.21546e-76
7.72845e-77
6.25437e-77
-6.54495e-76
2.08917e-78
-1.943e-77
-8.34781e-77
3.21349e-80
-4.52081e-76
-2.58152e-71
-1.38845e-70
-1.62018e-71
7.65183e-71
-7.12757e-71
-3.78071e-71
1.61951e-72
-7.17085e-70
-1.53557e-70
8.87564e-69
1.98859e-69
-1.63354e-68
1.89265e-70
-6.3626e-71
-1.39584e-69
4.15171e-70
-8.97158e-71
2.15283e-59
1.45987e-59
1.23502e-59
-4.15237e-58
1.3491e-61
9.39391e-60
1.04768e-59
7.45905e-61
7.85794e-62
-4.01426e-61
8.97991e-62
6.23287e-60
1.82447e-61
-3.55394e-61
-5.02511e-62
4.80539e-62
-7.29989e-64
-1.64245e-40
-1.48627e-38
-1.95194e-40
4.42924e-40
-1.44029e-38
-5.82144e-38
2.43192e-39
-1.71333e-38
-8.21994e-37
1.7763e-37
-3.8906e-36
3.45858e-36
-8.57925e-38
6.87813e-40
-1.01999e-36
2.91778e-38
-6.67395e-36
4.62668e-45
5.85527e-45
-3.33076e-43
-9.97222e-45
-3.45702e-48
-8.15562e-47
6.27445e-47
-2.05822e-44
8.09979e-46
6.97902e-44
2.93871e-42
-3.83108e-42
1.36816e-44
-1.87418e-42
-2.8664e-44
8.23375e-46
6.21432e-47
-1.39283e-16
-1.15056e-14
-1.73543e-13
1.77146e-13
-6.91404e-16
-1.10066e-15
-5.88322e-15
-3.22294e-17
-3.61243e-14
6.40386e-16
-6.20353e-16
-1.1977e-14
2.14715e-12
-9.68289e-11
-7.53678e-14
-4.66959e-15
1.8604e-12
3.31432e-08
4.96339e-08
2.74214e-08
-1.10114e-07
8.72015e-07
-4.88044e-07
-3.29122e-07
1.12584e-07
8.11958e-07
1.74326e-06
1.46883e-06
-1.26319e-06
-6.38499e-07
2.00843e-06
-1.09054e-06
5.64628e-07
4.45721e-07
5.17408e-08
-3.70635e-08
-1.95118e-08
4.83449e-09
-1.29576e-07
-4.28418e-08
2.24158e-07
-7.92515e-08
-8.73876e-08
1.05284e-08
-1.63383e-07
1.10013e-07
-1.05516e-07
9.65327e-08
4.51542e-08
-2.87788e-07
-1.4775e-07
4.4259e-08
3.78784e-08
3.6012e-07
-4.42257e-07
-4.83232e-08
9.03617e-08
2.22044e-09
-4.67203e-08
3.62755e-08
-5.71516e-08
5.07633e-07
2.65915e-07
-3.69787e-07
3.04411e-07
-7.22421e-52
-5.6631e-38
-9.42426e-17
9.42426e-17
1.0487e-52
1.28756e-52
1.03766e-52
-2.77714e-36
-3.86924e-35
1.12794e-53
1.7772e-52
5.0869e-53
5.45095e-53
1.72102e-52
-1.5615e-15
1.71521e-15
6.66204e-16
3.84791e-05
-1.51592e-07
-3.76186e-05
-2.58734e-09
-3.78784e-05
-4.46626e-05
0.000120932
-5.58574e-07
-3.92143e-05
-4.26998e-05
4.41638e-05
-2.00444e-06
3.93824e-05
-0.000120729
-1.91674e-06
1.41203e-06
-1.56657e-07
4.65419e-44
4.33709e-53
-5.21953e-44
-1.04525e-43
2.79828e-53
-1.86047e-43
-2.42894e-43
-3.40671e-53
-4.64037e-53
-5.98809e-35
-5.20877e-35
8.24318e-35
-1.14412e-18
1.14412e-18
2.53569e-15
1.3453e-14
2.53455e-15
2.30052e-44
2.45156e-44
-5.1595e-44
-1.37517e-44
1.26367e-47
-8.50479e-46
2.1462e-47
-6.44971e-47
1.401e-46
-1.00727e-43
1.26656e-41
-1.27046e-41
1.35798e-45
-1.23424e-43
4.2402e-45
-1.76458e-44
8.3226e-45
-5.52828e-38
-3.61784e-39
-1.23998e-38
9.516e-39
6.04855e-38
-3.02268e-37
-2.64716e-37
-1.10711e-38
2.54888e-39
-3.68715e-37
8.70967e-36
-2.41375e-34
1.21035e-36
-2.27231e-36
3.02618e-37
-1.3916e-36
6.96929e-37
6.4124e-37
2.31624e-36
-1.49536e-35
1.18963e-35
6.04427e-38
-1.38558e-38
9.91065e-39
1.37282e-38
1.7755e-37
5.00572e-39
1.84208e-37
-2.92337e-39
1.45557e-38
3.4812e-40
-9.18789e-37
5.94753e-37
-1.55806e-35
2.30545e-33
-3.29816e-32
-5.3103e-33
3.07332e-33
-5.70484e-31
-1.33333e-31
1.74373e-31
-3.36498e-30
-2.73786e-31
6.44245e-34
-1.40645e-33
-1.15827e-32
-1.51849e-30
9.42055e-31
2.2356e-32
1.13598e-29
-1.51513e-29
9.73174e-33
-1.66774e-30
8.41206e-33
1.92064e-30
3.34261e-33
1.21234e-30
-4.1514e-30
-4.96971e-31
2.05295e-31
-1.57675e-29
2.70836e-31
5.55582e-30
-6.96439e-29
4.74307e-29
3.61586e-31
-3.0912e-30
3.50092e-31
1.23904e-32
-6.8148e-30
3.04276e-30
-8.12561e-29
3.66224e-26
-4.59454e-26
-1.31855e-25
2.17089e-26
-7.68817e-26
-1.98339e-24
8.29088e-25
-1.66219e-26
-9.57447e-26
-8.31622e-25
-7.30913e-27
1.73625e-25
-3.36681e-24
3.04551e-25
3.6821e-25
1.80485e-26
-4.10665e-25
2.27981e-23
-2.25187e-23
-6.98678e-27
1.92703e-23
-1.57137e-26
7.93861e-17
-4.89634e-17
-5.11427e-17
1.77397e-17
-1.41819e-16
-1.63646e-16
4.19806e-16
-6.13731e-17
-3.8855e-16
2.32768e-17
-2.1649e-17
-8.96715e-17
-8.01876e-17
1.34934e-16
-8.06867e-16
1.2281e-15
-6.59028e-16
1.12484e-16
-6.58261e-15
4.48949e-17
9.58011e-18
1.12709e-15
3.34775e-16
1.35755e-15
-3.40168e-16
-1.87698e-15
2.80562e-16
1.31227e-17
-7.28382e-17
-3.97857e-17
1.76133e-15
-8.671e-17
2.20409e-17
2.00122e-17
3.7293e-17
-2.73747e-17
1.33054e-17
-3.26727e-16
1.45746e-14
4.74562e-14
-5.41773e-14
-6.79883e-14
1.12135e-14
-7.98891e-15
5.82593e-15
-8.20651e-14
1.038e-13
-4.4723e-13
1.73464e-12
-1.37491e-12
5.34672e-14
-1.22123e-12
-4.49234e-15
1.95169e-14
1.61856e-12
2.95562e-11
-2.94543e-11
1.60218e-15
-6.13923e-16
-1.74028e-10
-1.72777e-12
1.23341e-10
-3.41979e-11
-5.45482e-10
1.33389e-13
1.88233e-14
1.91874e-13
3.82667e-14
-1.91995e-12
3.2183e-13
-3.60495e-11
5.2138e-13
3.31449e-14
-4.08568e-13
-2.05501e-13
-7.98297e-11
3.07163e-11
1.41986e-10
1.69122e-10
-3.32538e-12
-2.66292e-11
-2.39766e-11
2.84328e-10
-7.72044e-12
-1.01137e-11
2.08625e-11
-1.87856e-11
1.88416e-10
1.60685e-19
-1.36853e-19
-2.33927e-20
3.1895e-21
-6.47909e-18
-1.11141e-20
6.666e-18
-2.34428e-19
-6.35886e-18
2.81856e-20
2.04954e-20
-1.89126e-19
3.14036e-20
3.8786e-21
-7.93252e-20
9.77328e-20
-3.31603e-19
1.11827e-20
-1.08701e-21
-1.45383e-20
1.67775e-21
-2.27205e-20
-2.72051e-19
-2.42441e-21
-2.67875e-20
5.11462e-20
-2.7715e-19
4.30785e-19
-4.57316e-21
2.35916e-20
1.21662e-21
-1.12299e-20
-3.04732e-19
-3.36039e-19
2.91803e-20
2.82054e-19
-3.22184e-19
4.04084e-19
-1.15565e-20
-1.63817e-18
3.24846e-19
3.04866e-20
-5.39465e-19
-3.84658e-20
8.45956e-19
-2.9715e-18
1.76314e-18
-1.34219e-17
2.69479e-19
-4.53995e-25
-4.94271e-25
1.05396e-25
3.01674e-25
-4.99652e-25
-4.14538e-24
2.10732e-24
7.82406e-26
-2.28491e-24
1.60729e-23
-7.94882e-24
-1.27195e-23
-3.88428e-25
2.21347e-23
3.26947e-25
-8.16449e-24
3.48504e-26
-2.05282e-30
1.24978e-30
3.77174e-28
-3.51807e-28
8.44386e-31
-1.07773e-30
2.28173e-31
1.76705e-31
-1.48234e-27
-5.82121e-29
1.8458e-27
-6.16106e-28
-1.32625e-27
-1.03904e-28
-2.94649e-31
1.13335e-29
-8.50688e-30
-7.15917e-28
1.12504e-30
-1.13532e-29
5.337e-31
-3.07581e-38
9.42944e-37
-4.30722e-35
4.15596e-35
7.91139e-38
-1.93322e-37
5.84495e-38
9.42836e-38
2.85526e-33
-1.27578e-34
5.22219e-36
2.8897e-33
1.65667e-35
-1.44639e-34
1.86396e-35
7.57824e-59
-7.58282e-59
-2.2135e-61
2.04687e-61
-6.74252e-59
-1.15956e-60
1.41465e-58
-8.6103e-59
-5.51965e-57
4.57626e-63
8.84362e-64
-2.50074e-61
7.00342e-63
1.45527e-65
-2.02579e-60
8.51992e-62
-8.82083e-59
-1.11074e-08
3.39333e-08
-2.24525e-08
-3.73356e-10
1.37036e-08
2.95968e-08
-5.44078e-08
8.45946e-08
-3.69573e-08
7.20093e-09
-1.28127e-08
-1.68406e-08
6.0579e-08
-2.37812e-08
-2.5383e-07
1.48699e-07
1.89726e-07
6.90153e-09
-2.97689e-07
-8.42036e-08
2.93482e-07
-9.01144e-08
1.16852e-07
-2.65138e-07
2.1209e-08
1.30029e-07
-1.49274e-06
1.46457e-07
1.47775e-06
-1.13654e-06
-5.66073e-07
-2.67182e-07
9.59989e-07
-5.46325e-07
1.12179e-06
-1.36774e-06
-2.73111e-07
4.66137e-08
5.09401e-08
1.60207e-10
1.12442e-10
-3.37908e-10
-3.15792e-14
9.69506e-11
-7.41e-10
6.73099e-10
6.03747e-11
6.05715e-11
-1.56592e-11
-1.00049e-09
1.0303e-09
-1.02204e-09
6.95498e-10
-2.04292e-09
8.21629e-10
-2.23234e-09
-2.06098e-09
-7.55373e-20
-7.98616e-10
-1.65407e-10
-3.58791e-09
7.75879e-07
-9.49685e-08
8.04213e-07
-4.60831e-07
-1.10205e-06
5.63958e-09
2.27641e-08
-7.6646e-08
2.55057e-08
-1.02572e-08
-2.43303e-10
1.20164e-08
1.41414e-08
-1.58722e-09
-3.28192e-09
2.90694e-08
-2.84145e-08
-3.25809e-09
1.0273e-08
4.61311e-09
4.0926e-09
-7.08436e-08
-5.18503e-55
-1.91145e-55
4.13074e-55
1.89408e-55
4.9463e-54
5.36417e-53
9.00189e-52
7.63162e-55
-1.46205e-54
1.14448e-53
1.12057e-52
-8.78926e-53
3.0975e-55
1.23582e-54
-2.28708e-53
2.54265e-54
7.66288e-53
8.54396e-15
-4.1251e-14
-6.40155e-15
-5.91327e-14
-4.43994e-14
9.36181e-16
7.00642e-15
-1.18208e-12
5.0898e-13
1.88599e-15
-7.54988e-15
-9.66573e-15
-8.93966e-15
2.64432e-15
1.3262e-11
-6.31857e-13
-6.26808e-11
4.4349e-13
5.86787e-13
-1.18499e-13
1.9948e-13
-7.85776e-13
-6.86745e-53
-1.21997e-55
1.37336e-54
9.70409e-55
2.09538e-52
9.9503e-52
-1.3238e-51
2.45694e-54
7.95352e-54
7.24746e-54
-1.67872e-51
1.90963e-51
-1.30413e-53
1.212e-54
4.82921e-51
-6.81843e-51
1.42506e-52
1.0537e-11
3.38845e-10
-4.81893e-11
-5.65428e-10
3.25431e-12
-8.11788e-13
1.45162e-13
-1.4455e-11
3.49976e-10
5.57358e-12
5.11552e-13
-2.30905e-11
2.57828e-13
1.44725e-12
-2.04308e-13
-1.67574e-11
-5.87325e-11
1.8828e-09
3.57159e-10
2.2561e-09
-4.97315e-09
-3.23654e-10
2.2649e-10
1.52915e-09
-1.08832e-09
1.92059e-09
1.1875e-09
-1.43914e-09
-3.20783e-09
4.70542e-09
-3.86939e-09
-9.9404e-09
2.31139e-08
-1.23041e-09
-5.43417e-10
-2.14957e-09
1.36221e-10
-1.45661e-08
1.53187e-10
-3.76424e-10
-4.21298e-09
3.98972e-09
-4.86134e-10
-3.41667e-11
3.22033e-10
-1.63656e-09
2.36066e-10
2.58056e-10
-4.31949e-09
-8.76008e-10
-2.40884e-10
1.21618e-10
3.64861e-10
1.87403e-09
-1.03896e-08
1.76186e-09
-2.52745e-10
2.02785e-12
1.7619e-09
-3.1228e-09
1.56003e-08
-5.8061e-09
-1.70452e-08
7.25107e-09
-4.59113e-08
-4.21012e-09
6.57217e-08
-1.22406e-08
-3.94768e-08
-1.15304e-08
-5.70749e-08
6.43951e-08
-7.73396e-08
4.8764e-08
-5.30858e-08
-1.62296e-08
-1.69902e-07
4.35704e-08
2.42634e-08
-8.46744e-08
-1.76945e-08
-4.02665e-09
6.52916e-08
6.19614e-09
1.03913e-07
-1.52125e-07
7.61057e-08
-4.02092e-07
-1.30481e-07
8.26056e-07
6.35463e-09
-3.32341e-07
-5.88343e-08
-2.33623e-07
6.94113e-07
2.3035e-07
5.52821e-07
-1.47728e-06
4.97162e-07
-2.83451e-07
4.80404e-07
2.34509e-07
4.93006e-07
-3.03191e-07
1.03276e-08
5.27372e-07
-4.48542e-07
6.39728e-07
1.1317e-06
-1.41191e-06
1.23749e-06
2.86336e-08
5.45657e-08
2.57712e-08
-1.62229e-08
-9.11336e-10
-2.45177e-08
4.09389e-08
2.76294e-08
1.13408e-09
-4.0559e-09
-4.15579e-09
3.48853e-08
-1.86555e-07
1.80888e-07
-2.31061e-08
-5.7292e-09
-3.73009e-07
-4.41895e-35
5.73797e-36
-9.08871e-37
3.8293e-37
1.06882e-34
-4.54566e-33
-2.54706e-34
-5.0004e-36
3.38956e-36
1.75719e-32
7.32741e-35
-6.23185e-31
7.62537e-33
7.26404e-33
6.79369e-35
2.62315e-36
-4.88318e-36
7.301e-35
6.6484e-33
-1.34685e-36
1.11848e-35
-1.1513e-37
-5.64329e-50
-1.36525e-50
-1.84615e-52
7.02046e-50
1.1083e-49
-4.42384e-50
-1.29605e-46
-2.60692e-52
3.9482e-53
6.05921e-52
5.58752e-53
-9.63552e-52
5.35698e-55
7.37272e-53
4.72215e-52
-4.477e-50
5.94033e-54
5.36198e-39
2.52736e-38
-6.62779e-40
-4.48106e-37
6.0063e-41
-2.70943e-40
3.9164e-42
3.38835e-41
1.15428e-40
4.26831e-40
-8.728e-42
-1.71383e-38
2.42626e-42
2.00893e-42
7.22408e-42
1.17435e-42
-2.06323e-41
2.17888e-44
1.35702e-43
-2.3312e-41
2.88053e-42
-7.25764e-40
1.03544e-21
-3.24693e-23
-3.8162e-21
9.10507e-22
-4.29806e-23
-1.63234e-23
9.17083e-24
-1.82795e-22
-3.48612e-23
2.72197e-19
6.89233e-20
-3.68202e-19
8.56927e-23
4.02359e-21
-1.05077e-21
1.47173e-22
-2.86737e-20
-1.45533e-21
-2.06531e-20
1.25904e-21
3.87951e-21
-1.11851e-20
4.94692e-21
6.62947e-22
3.63384e-19
-1.30336e-18
1.1517e-22
-1.07012e-21
1.71286e-22
-1.94484e-22
1.59787e-22
-2.42208e-21
7.00614e-23
2.75054e-21
-2.70925e-35
2.66144e-35
-1.51636e-38
3.90656e-37
4.99783e-35
-4.39637e-35
-1.35484e-33
-3.78004e-37
7.515e-35
5.36027e-38
1.41321e-39
-1.15386e-37
1.2161e-37
6.78007e-38
1.42609e-36
-4.73391e-35
3.88354e-37
2.07654e-39
1.22807e-39
8.64434e-40
-1.01733e-38
5.51293e-41
-1.57574e-40
-3.17416e-38
3.87675e-41
9.72947e-41
-4.84446e-40
1.6158e-41
1.91442e-40
2.06303e-40
-5.29376e-40
3.1681e-41
1.31011e-41
3.45103e-41
-2.5442e-45
2.52769e-45
1.16669e-47
-3.39728e-49
3.25233e-44
-5.65104e-46
-3.45185e-44
-8.25292e-50
3.43235e-44
-5.88571e-49
2.88792e-48
1.03052e-48
9.44901e-50
-3.30525e-48
1.82194e-47
-5.85847e-46
1.08349e-48
9.06021e-56
8.30277e-58
-8.16928e-60
-9.14261e-56
-7.00933e-58
-1.69193e-63
8.76562e-56
-7.24115e-62
-1.16278e-60
6.37194e-62
-1.03205e-60
-7.26825e-60
-9.82268e-63
1.09745e-62
-6.73901e-61
4.6543e-62
-1.00784e-64
4.82035e-62
-2.88306e-59
-2.80283e-62
2.68853e-62
-1.16208e-60
3.88266e-60
-9.10882e-71
-4.97977e-67
-2.97633e-59
-1.28353e-70
-6.55662e-69
6.05481e-62
-5.36385e-73
-2.45415e-70
-1.52908e-70
1.52283e-70
-1.28864e-74
7.23507e-70
-1.1271e-69
-1.36314e-68
7.22174e-69
-5.118e-67
-2.11718e-77
-1.96423e-78
8.35522e-79
5.42209e-78
7.25947e-77
4.44977e-77
-9.12512e-75
1.60393e-77
3.24362e-79
6.30018e-79
-3.61995e-78
2.08076e-79
-6.18798e-79
1.84246e-78
1.09619e-77
2.34215e-77
2.156e-77
1.52061e-76
2.28192e-77
-3.1572e-78
-4.88112e-76
3.78894e-70
-4.84996e-69
1.41918e-69
-1.49586e-71
3.71063e-70
-2.74582e-76
1.27608e-76
5.11849e-74
-5.21849e-74
3.14168e-71
-4.88132e-69
-1.05627e-75
1.5896e-71
-2.04753e-71
1.75626e-73
3.69979e-72
-7.33389e-70
4.88469e-70
2.30794e-70
1.14001e-71
-9.09379e-70
2.05978e-73
-1.76955e-73
8.85003e-75
-1.71925e-72
2.8877e-72
-9.57888e-72
1.92833e-70
4.17331e-73
2.71856e-80
6.6433e-80
1.44636e-78
-1.55149e-78
2.78437e-77
2.1348e-75
-2.16263e-75
2.96539e-80
2.50486e-81
8.11665e-73
8.98718e-71
-9.0689e-71
7.46228e-73
-3.96761e-74
-2.32576e-69
-2.23639e-69
-3.29024e-74
-8.18891e-74
1.51588e-73
8.09002e-75
1.92469e-70
1.07072e-72
-9.91654e-77
-9.17596e-71
-7.89837e-79
-1.01565e-76
-9.34085e-65
-9.10567e-64
-1.98831e-64
9.71078e-64
-9.12584e-65
-2.11877e-66
-1.45411e-67
-8.87113e-64
-1.61709e-64
1.33864e-64
-1.35825e-64
-5.01973e-67
-3.35512e-62
3.34782e-62
-1.11038e-62
-6.79621e-60
-1.14273e-62
1.17071e-68
1.57587e-67
-2.9345e-67
-4.07455e-68
8.09967e-69
-1.59199e-68
3.94771e-69
-1.47174e-67
2.59143e-67
7.3673e-66
3.64109e-67
-8.98557e-66
7.74336e-67
5.75793e-66
-2.49695e-68
3.1804e-67
3.90771e-68
-3.5126e-68
3.28811e-72
-5.62895e-70
-3.66289e-62
-5.91431e-64
6.94053e-63
4.7832e-64
1.48513e-61
3.26225e-61
-4.37001e-60
1.18557e-61
4.11328e-64
-3.33096e-63
-7.46585e-64
2.97133e-63
-1.77187e-61
1.68256e-61
-4.89502e-62
-5.56511e-62
1.00718e-61
-4.00353e-60
3.76753e-60
5.91475e-60
-1.00551e-59
5.85645e-60
-8.35942e-59
-4.2907e-56
2.66622e-57
5.13295e-59
-1.34855e-58
-2.96962e-56
-2.62919e-56
-6.29124e-55
-4.45776e-56
-6.58818e-55
-4.99517e-58
-2.82166e-56
1.22831e-57
8.06152e-56
-8.11867e-56
-6.10642e-55
-9.51921e-55
9.57239e-54
-3.60751e-54
-2.01236e-53
1.00184e-52
-6.74951e-53
-5.03094e-53
-5.05006e-48
-7.90794e-49
-3.53499e-53
1.49069e-53
-3.31193e-54
2.33754e-51
-2.4614e-51
6.201e-48
-9.43705e-47
5.35438e-49
2.68567e-45
-1.28686e-42
-2.05921e-39
2.06088e-39
-4.30027e-43
4.08583e-43
2.8052e-44
1.3962e-41
-1.54244e-41
4.61201e-39
-1.05414e-39
-5.71868e-39
-5.72856e-42
6.5427e-39
1.37406e-41
-1.50858e-40
-9.2544e-40
-3.40335e-42
3.63106e-42
-2.33621e-41
1.02793e-41
-6.40037e-40
-1.22434e-36
-3.5297e-38
1.02777e-36
1.48101e-38
1.90152e-36
1.39339e-34
-1.42313e-34
-6.57476e-35
6.70854e-35
5.16553e-34
-2.17774e-33
-3.41409e-33
-3.8835e-35
1.18647e-35
5.13267e-35
-2.09134e-33
1.17776e-35
1.71503e-32
3.58203e-33
-9.43336e-32
-1.05765e-32
-3.12666e-32
-2.95265e-32
3.41122e-32
-1.72221e-31
4.61663e-31
1.97664e-31
-8.06331e-31
-1.27957e-31
-7.56884e-30
-3.31872e-31
1.2901e-31
-8.59583e-31
2.63631e-32
2.3335e-32
1.67194e-31
-2.1748e-31
1.16608e-32
-6.87251e-31
7.00485e-31
3.41768e-32
1.28561e-34
2.67272e-30
-7.63223e-30
4.2315e-30
-1.04786e-31
3.29559e-30
-6.54797e-30
2.14887e-30
-4.21911e-29
-3.0495e-29
-3.60256e-29
1.7679e-29
7.654e-30
2.14716e-28
-2.72012e-28
-6.76711e-28
-9.58542e-31
5.06072e-30
5.5489e-31
-2.62221e-23
-4.88794e-24
3.56602e-24
4.50163e-24
4.9378e-23
2.48517e-23
-5.9287e-22
-3.14959e-23
1.91842e-23
1.30912e-22
-3.18097e-22
1.26305e-22
-2.39647e-24
8.98966e-23
2.77409e-23
-3.49533e-22
1.39052e-23
-1.94656e-21
-1.16446e-20
2.13104e-21
4.16294e-21
4.98481e-22
-5.63268e-22
-1.52864e-21
1.41506e-19
-1.52117e-19
-3.08601e-19
1.58259e-20
4.38095e-19
-1.73971e-19
-2.92315e-19
4.17552e-21
-1.78619e-19
1.78215e-20
-1.12414e-13
-2.80397e-14
-4.01243e-14
3.59845e-14
1.02083e-13
-2.23239e-13
-9.04408e-14
1.51883e-13
-2.21583e-13
-3.56801e-14
1.66995e-14
1.61881e-13
-3.38427e-12
3.11307e-12
1.2543e-12
-8.93439e-12
4.82251e-13
1.03205e-22
6.2708e-22
4.3745e-22
-1.23337e-21
3.42701e-24
-5.82804e-25
4.46255e-24
1.30002e-24
4.5422e-22
6.90565e-25
-6.16891e-24
-2.13978e-25
-4.67217e-25
2.26423e-25
-3.76162e-23
6.30895e-24
3.56338e-22
9.80889e-32
-1.26914e-30
-1.99646e-34
2.03349e-32
-1.27977e-30
8.39821e-32
5.59369e-31
-6.44135e-32
-2.5732e-30
2.74379e-35
-2.26446e-34
-7.09939e-37
-5.14892e-35
9.63944e-34
8.14602e-35
-4.50927e-35
-1.19803e-33
-1.91765e-34
6.08907e-35
-4.56096e-33
8.82761e-33
-7.05302e-32
5.85301e-35
6.07116e-35
7.64097e-35
-1.74555e-33
2.68348e-37
1.10237e-37
-7.19456e-38
2.07566e-37
1.10175e-37
9.8205e-38
1.07645e-38
-2.43361e-39
2.31209e-38
5.37399e-37
-3.77397e-39
1.37435e-38
1.17488e-38
2.18415e-54
3.55779e-55
-1.85868e-54
-1.51581e-54
-1.58796e-55
2.50629e-57
5.60953e-55
-6.58019e-57
1.12768e-56
3.58947e-57
-2.92974e-56
1.66641e-56
7.72044e-57
5.89515e-59
-1.15033e-55
4.74699e-56
-2.13897e-54
9.7076e-59
5.31823e-57
3.9262e-56
-8.48756e-57
4.4296e-57
-2.85128e-58
-3.9809e-58
8.0953e-56
-5.28074e-57
-2.86477e-58
2.67185e-55
-9.16983e-56
-2.43491e-57
-2.82347e-57
-5.05705e-57
-5.40785e-55
-1.27727e-56
8.02468e-39
2.89662e-39
-2.33779e-40
-1.20933e-38
-1.2884e-40
1.40782e-41
5.77342e-40
2.68376e-41
-3.2259e-41
-6.60962e-42
2.69588e-42
1.0039e-42
-5.8415e-40
1.49936e-40
6.29325e-40
-9.85227e-38
4.92563e-41
-3.83001e-31
-1.25242e-28
-1.5411e-29
1.12462e-29
-8.59153e-29
-3.6806e-30
1.93018e-30
-4.02028e-28
-1.83958e-28
-1.82884e-28
-1.44432e-27
1.47492e-27
-1.16743e-28
-1.47375e-28
-1.53443e-26
5.14296e-27
-1.57705e-26
1.51121e-21
9.31092e-24
6.03865e-24
-1.32966e-19
6.18804e-24
1.25636e-21
1.43665e-22
1.42048e-24
9.38445e-25
-6.33417e-27
-1.80136e-26
2.83291e-26
-2.93863e-26
1.26586e-26
1.04494e-23
7.42083e-25
-4.76084e-24
6.3423e-25
5.80858e-24
-4.70359e-26
4.59276e-26
-1.8142e-26
-4.46232e-31
-2.99433e-31
-6.58262e-34
4.96737e-31
2.99942e-31
4.7195e-30
-2.54487e-36
8.82364e-35
5.56773e-37
-6.50835e-36
-4.52087e-35
8.24509e-36
-3.93595e-36
9.2283e-35
3.25788e-33
-3.44115e-33
2.31717e-36
-5.06571e-35
4.56634e-31
4.2498e-30
7.23183e-33
6.40537e-21
1.60514e-23
1.77247e-22
-6.6133e-21
-2.06587e-24
-1.69659e-24
6.12735e-21
2.53429e-28
-1.0187e-27
-9.59069e-31
9.3064e-30
-2.57086e-37
-1.01856e-27
-1.51095e-30
1.86449e-24
5.21663e-26
1.66868e-22
-3.48038e-30
2.57649e-27
-3.41928e-30
1.50907e-27
1.93098e-30
4.68181e-34
-2.10111e-30
-7.19733e-35
-3.75576e-35
5.37505e-37
-1.68913e-35
-4.57869e-32
4.55726e-32
-4.92914e-34
2.82936e-34
5.68878e-33
2.00945e-30
-4.98813e-30
1.67078e-32
2.4404e-29
7.68343e-20
2.54553e-21
-2.74487e-20
-5.27387e-20
-3.41205e-22
-3.30709e-22
-1.07673e-23
-9.16629e-32
-1.33595e-31
-9.29735e-22
7.63641e-32
-5.48474e-30
-2.83785e-20
1.28948e-09
4.23386e-10
-7.81572e-10
-6.79849e-11
-1.66244e-09
3.82317e-09
4.44998e-10
6.00912e-10
3.17817e-09
9.02947e-10
-9.41632e-09
-2.4173e-09
4.37583e-09
1.8619e-08
6.22735e-09
1.9767e-08
4.44354e-10
-2.55252e-09
-7.67837e-09
-4.27441e-09
7.98845e-09
5.27822e-09
-1.05089e-08
2.24016e-09
-7.25747e-09
1.51346e-09
-1.63135e-09
5.2515e-09
-5.28622e-10
2.86991e-09
2.70556e-09
1.80538e-09
5.59004e-08
-4.80795e-08
-5.58927e-08
-4.66956e-07
-1.39513e-08
6.33447e-09
-2.66585e-08
9.2903e-09
2.6367e-12
-6.57175e-08
5.05017e-09
3.65025e-09
-2.69747e-09
-5.49011e-10
-5.07246e-08
9.26065e-10
1.66705e-09
3.7566e-09
4.36686e-09
1.75724e-07
5.46358e-08
-3.57706e-07
2.39405e-08
2.19983e-07
3.78351e-08
3.0267e-08
-3.81473e-08
8.89537e-07
-1.03981e-06
3.48685e-07
-4.38838e-07
6.28917e-07
6.99458e-07
-2.51427e-07
-1.14099e-06
2.75371e-07
-2.62673e-07
-2.90777e-07
1.45179e-07
1.98128e-06
-1.17896e-06
2.15676e-06
1.42236e-08
4.17915e-08
4.46114e-08
3.40074e-08
4.61024e-08
-7.84993e-09
7.07078e-08
-1.0896e-07
1.87564e-08
9.90194e-09
1.74441e-08
2.6721e-09
8.23438e-09
1.91785e-08
-7.86484e-09
-8.64152e-09
-8.89169e-09
3.63046e-08
2.26244e-08
-2.05873e-08
8.44406e-08
-7.35378e-09
1.43821e-08
-3.92589e-08
3.22306e-08
1.66604e-08
-8.98698e-09
-1.50272e-08
-4.283e-09
3.53255e-08
6.6334e-09
9.18526e-09
-5.50776e-08
-2.64407e-09
2.90464e-10
8.70341e-08
-4.10315e-08
-5.02856e-08
-2.43637e-07
3.65997e-07
-7.70846e-08
3.34089e-08
-3.11537e-07
-1.34605e-08
-1.24211e-07
-2.81974e-08
-2.07486e-07
-1.60124e-08
9.23265e-09
1.54447e-08
-8.66493e-09
4.80326e-08
4.22069e-10
-6.4467e-08
6.04128e-09
5.1224e-08
-1.85224e-08
8.20668e-08
-4.80998e-08
5.11785e-08
-6.92788e-08
6.18461e-08
-9.82986e-09
-4.5975e-08
3.31483e-10
1.12739e-07
-1.03392e-07
1.85791e-07
-6.20436e-08
6.70447e-09
1.0905e-08
1.92805e-09
-1.95376e-08
5.84676e-09
4.5026e-09
-3.64489e-09
8.1103e-09
-1.57067e-09
1.82724e-08
-1.21991e-08
-2.02299e-08
-6.4921e-08
1.09336e-07
3.77919e-08
1.07257e-08
3.14562e-09
-5.11832e-09
-2.22026e-08
-2.14532e-08
8.00477e-09
1.61679e-08
-2.71942e-09
5.82065e-08
1.38679e-08
-9.35276e-08
2.61313e-08
4.008e-08
-8.56699e-09
7.4317e-08
-4.95822e-08
6.01035e-08
-5.48026e-08
4.31458e-08
4.30889e-08
1.57543e-07
-2.4924e-07
7.71511e-08
2.0988e-07
2.53546e-08
4.82864e-07
-7.57447e-07
5.65307e-08
-4.18995e-08
2.11169e-07
-8.15087e-08
2.254e-07
-6.66623e-08
4.68018e-07
8.11745e-08
1.05142e-08
-1.85739e-07
-8.33909e-07
9.79327e-07
-1.03644e-06
1.01402e-06
9.37476e-08
6.48775e-08
-4.98942e-07
3.48055e-07
-8.77724e-08
-7.79798e-08
5.22221e-07
1.70801e-06
-1.59177e-06
7.93403e-07
-1.64819e-07
-1.43659e-07
-4.59787e-07
7.52797e-07
9.24677e-07
-8.95243e-07
-6.58078e-08
3.35531e-07
4.59107e-07
-6.41375e-07
2.49071e-07
7.27835e-07
-3.22527e-07
1.43481e-07
1.46453e-06
-2.05584e-06
6.88291e-07
-1.3134e-10
-1.26171e-10
-1.4269e-10
2.16296e-10
-6.60171e-11
4.89394e-11
-2.36534e-10
-4.19617e-10
-1.7114e-11
-4.40156e-11
-5.90738e-10
1.67428e-10
-1.34041e-10
-5.56458e-12
6.0302e-10
-2.60119e-09
1.08177e-10
-6.01119e-15
6.17637e-16
1.5701e-16
-2.01859e-16
7.20995e-17
-4.91388e-13
2.07993e-13
3.85832e-16
-6.88596e-20
1.26407e-12
-3.63449e-13
-7.9839e-11
-8.15338e-16
7.28087e-13
-1.18501e-14
1.27082e-14
-3.79955e-13
-5.51461e-18
-1.87529e-17
-1.60731e-16
5.36869e-17
-5.95793e-18
-8.41254e-20
2.09631e-20
-4.08346e-16
-1.50917e-17
-2.91966e-18
1.14959e-20
3.6284e-19
-7.53802e-15
-1.07239e-16
-8.88253e-16
-6.47215e-14
-7.22146e-16
-1.58427e-16
1.92481e-17
-1.07589e-17
9.37593e-19
2.26116e-16
-4.76097e-15
-1.29402e-16
-4.09574e-18
9.87465e-20
1.59577e-14
2.67776e-15
-1.72153e-13
-4.04984e-17
1.53576e-14
2.4013e-16
2.20207e-17
1.41187e-16
3.75428e-18
1.93757e-16
-2.1399e-18
3.93232e-19
-3.19702e-18
-3.09759e-25
2.02426e-25
6.86894e-26
3.2445e-26
9.92217e-25
-3.93737e-23
3.559e-23
-1.62055e-21
5.95887e-22
2.08313e-21
-6.97802e-22
9.96682e-23
7.75779e-22
1.22348e-23
-5.15299e-23
-7.1338e-22
-1.87269e-24
1.35063e-23
3.74092e-24
-9.87864e-23
1.42004e-24
4.12509e-57
2.74475e-57
6.23195e-58
-2.31623e-55
-1.7041e-39
1.75163e-42
1.70235e-39
-4.25506e-39
2.55571e-38
1.16782e-36
3.10773e-37
-2.99122e-52
8.91333e-41
1.16764e-36
9.42169e-39
-5.73918e-49
1.7427e-38
1.40433e-33
1.04866e-33
1.75635e-32
-2.07835e-32
-6.05056e-35
2.1874e-34
4.58396e-35
6.65855e-34
-2.26448e-32
1.56191e-35
-7.28574e-33
1.48234e-33
-4.75013e-35
2.89e-35
-1.50727e-33
1.1069e-33
-2.15036e-29
-1.58053e-28
4.38336e-30
1.63909e-29
9.32009e-29
-2.16167e-28
-5.17872e-28
-3.61383e-27
4.35806e-28
-2.96738e-28
-2.56926e-28
1.36295e-28
2.15156e-27
-3.14145e-27
1.45997e-26
-1.87656e-26
1.08851e-27
3.55159e-28
2.25175e-29
-6.29549e-28
-2.35313e-30
2.84692e-28
-2.0427e-34
2.11615e-31
5.64375e-34
4.27421e-32
-4.83801e-47
3.90045e-47
8.99752e-48
-2.17362e-50
1.81981e-44
-3.50297e-48
-2.61153e-44
-8.28965e-50
1.60982e-46
-3.42707e-50
5.72182e-50
2.05168e-50
-5.45008e-51
-4.35188e-49
9.89958e-50
-3.61827e-48
1.57023e-51
-5.15711e-55
-4.02211e-53
-7.25696e-57
4.07434e-53
-5.17913e-55
2.07246e-57
-1.8347e-57
-3.64793e-55
-4.03185e-52
-1.5309e-58
7.05587e-59
2.91409e-59
2.55232e-59
-2.99542e-57
8.83861e-57
-3.74359e-55
1.69595e-58
-1.34361e-71
2.03548e-72
1.01554e-71
8.46355e-73
9.38844e-70
4.43352e-70
-4.5526e-68
3.59456e-71
1.86671e-71
9.7508e-72
7.0115e-70
-3.00451e-70
1.35976e-71
4.46597e-74
-1.46663e-69
3.67476e-70
-1.04853e-69
-4.68018e-84
-3.63853e-84
2.68382e-85
1.26155e-84
2.07835e-82
4.94863e-83
-1.7208e-81
5.28205e-82
-2.12441e-81
7.19204e-86
-1.21279e-84
3.16393e-86
-3.04012e-84
2.26471e-84
1.95176e-84
5.53502e-84
4.37541e-82
8.80944e-78
2.11479e-77
-5.19101e-77
-5.47781e-80
3.23289e-68
-3.84935e-71
-1.03624e-66
-2.20208e-73
1.99699e-69
5.02533e-77
3.25407e-75
-3.3638e-75
4.29691e-77
3.33816e-73
-3.88315e-71
2.72748e-77
-1.41357e-84
-5.41284e-74
-2.36502e-73
2.87526e-73
3.18461e-85
-1.04212e-85
-6.51239e-83
-4.46278e-72
1.04909e-73
-7.33113e-83
3.38131e-83
2.40351e-85
4.98018e-81
-5.15142e-81
5.91632e-72
-1.03791e-71
3.48815e-73
3.70802e-72
1.5991e-73
3.60359e-81
3.09439e-79
-3.18313e-79
6.14432e-82
4.30895e-82
-3.73826e-70
3.77534e-70
-2.05844e-70
-1.33372e-67
1.35062e-74
-1.8548e-74
6.98212e-75
-5.37007e-73
-7.16445e-74
-1.06034e-74
1.58401e-73
-3.23155e-73
-2.34943e-71
-6.08244e-73
2.32576e-71
7.94009e-72
-3.26271e-71
-6.26838e-74
2.94865e-75
1.47282e-72
4.42937e-73
-2.75094e-79
2.58666e-76
7.04855e-78
2.21131e-62
-2.49181e-61
2.11371e-61
1.74812e-63
-1.42578e-59
1.24343e-59
1.57999e-62
9.80248e-60
-2.0926e-58
-5.21954e-57
-4.74892e-59
4.30918e-57
-4.21567e-57
-1.00567e-57
1.29523e-58
-4.34131e-57
1.53121e-61
-2.80944e-59
-5.24528e-59
-4.11792e-60
-4.67099e-60
-3.43213e-58
-1.77351e-58
-3.50728e-60
-6.163e-58
-5.46767e-58
1.20559e-59
9.33918e-60
1.47116e-57
-2.85621e-56
7.88451e-60
1.07466e-57
4.14641e-61
2.48022e-54
1.6803e-53
-3.83444e-54
-1.06214e-52
3.51952e-54
-1.26246e-54
5.04628e-56
-1.69881e-51
1.71698e-51
-1.39868e-52
1.82931e-52
-1.01307e-52
1.24049e-52
-3.09186e-51
-1.2884e-54
3.37153e-54
6.71365e-51
-2.68968e-54
-7.29433e-53
-8.38331e-53
-2.75688e-51
-3.35245e-53
-5.74123e-48
5.64612e-48
1.30526e-50
-4.40983e-48
2.84232e-48
5.74901e-50
3.9594e-46
-4.38188e-46
-6.95191e-46
-7.93587e-47
7.75871e-46
-7.81756e-45
4.36059e-45
7.63389e-47
-1.84602e-44
8.03243e-48
3.50589e-47
8.70179e-44
-2.03474e-45
-8.51991e-44
3.39032e-45
-3.36155e-45
-1.04268e-42
-8.23553e-42
9.37712e-44
-9.92579e-44
-8.58424e-42
-4.76645e-41
-4.26038e-41
2.95634e-38
1.40722e-38
-6.13156e-38
-4.48971e-38
-3.75391e-39
-5.24902e-39
-2.72243e-39
-1.63756e-40
3.18512e-40
-4.10275e-38
-2.57038e-38
-2.17323e-38
-1.36856e-37
-5.23477e-36
5.86752e-34
-5.65808e-34
-1.78979e-35
2.36686e-33
-2.33022e-33
-4.32105e-35
-2.35569e-31
-8.82461e-32
-1.20964e-33
-3.68913e-33
-1.96402e-36
-7.31953e-33
-9.89453e-34
2.90911e-31
-3.30513e-30
-1.63145e-31
-7.25248e-29
-1.90071e-28
-2.2722e-29
1.40606e-28
-6.83267e-29
-1.21118e-27
9.38883e-29
-1.44775e-27
-1.70692e-29
-3.17594e-27
2.44848e-27
5.15439e-28
-9.06375e-27
-2.4316e-28
7.19305e-27
-4.95728e-26
-1.00483e-26
-6.50818e-32
-1.75841e-30
3.63791e-31
1.4911e-31
2.50677e-32
1.95522e-32
-1.24478e-31
-3.31491e-28
3.29746e-28
3.37063e-27
-4.79161e-27
-9.03684e-26
-3.3816e-28
3.94579e-27
-1.27376e-28
1.27705e-28
2.33101e-32
1.62877e-27
-1.75614e-27
3.99739e-27
-1.58462e-26
1.49546e-27
4.71985e-29
-5.7663e-28
1.55852e-27
-1.19116e-27
-3.88753e-28
9.53726e-29
2.18795e-29
7.18148e-28
-4.81243e-27
-2.7905e-29
-5.66895e-28
4.31154e-28
-9.37598e-29
-8.61451e-29
1.13059e-28
7.10434e-28
5.31846e-20
6.29252e-20
8.39014e-21
1.99876e-20
-2.36595e-18
3.65939e-18
3.58915e-20
2.49418e-20
1.76648e-17
-8.0867e-19
-6.81252e-20
1.18896e-17
4.47308e-20
5.4737e-17
-1.61423e-16
4.49672e-15
-4.64756e-15
-2.85057e-16
5.67826e-17
-9.64801e-16
-1.67182e-14
1.20405e-14
-5.87534e-14
-5.11447e-14
-2.06574e-14
-7.80518e-14
1.12236e-13
1.0737e-13
-3.76012e-14
-1.37554e-14
3.21447e-13
1.11052e-12
-4.10611e-12
3.14797e-12
-2.75147e-13
1.81789e-12
2.6298e-12
-8.72576e-12
-2.62955e-14
-2.34196e-15
3.0097e-14
4.85727e-15
1.07639e-13
3.16866e-14
1.01337e-13
1.89061e-14
-1.57566e-14
-1.19118e-14
5.06917e-14
-2.49822e-14
1.07895e-14
-5.47154e-15
-8.6985e-15
4.44492e-15
-1.15757e-14
-2.40282e-14
6.96277e-15
5.94507e-15
1.01551e-13
-3.26319e-14
2.62755e-14
3.32648e-15
-2.76862e-13
1.20414e-14
6.4201e-15
-1.24e-13
5.38476e-15