/*--------------------------------*- C++ -*----------------------------------*\
| =========                 |                                                 |
| \\      /  F ield         | OpenFOAM: The Open Source CFD Toolbox           |
|  \\    /   O peration     | Version:  v2012                                 |
|   \\  /    A nd           | Website:  www.openfoam.com                      |
|    \\/     M anipulation  |                                                 |
\*---------------------------------------------------------------------------*/
FoamFile
{
    version     2.0;
    format      ascii;
    class       volScalarField;
    location    "0.05";
    object      alpha.water;
}
// * * * * * * * * * * * * * * * * * * * * * * * * * * * * * * * * * * * * * //

dimensions      [0 0 0 0 0 0 0];


internalField   nonuniform List<scalar> 
6576
(
0.999996
0.999996
0.999996
1
1
1
1
1
0.999999
1
1
0.999999
0.999999
1
0.999986
0.999999
0.999986
0.999999
1
0.999999
1
0.999999
1
1
0.999994
1
0.999996
1
0.999996
0.999996
1
0.999998
0.999999
0.999999
0.999991
0.99998
0.99998
0.999994
0.99998
0.999998
0.99998
0.999998
0.999999
0.999046
0.770038
0.956905
0.413671
0.999049
1
1
1
1
5.8654e-72
5.70147e-72
3.96361e-72
6.08967e-72
3.9231e-72
1.19057e-72
2.89636e-72
9.59121e-66
6.01372e-66
1.37883e-65
1.18764e-64
1.68838e-64
6.49457e-65
9.29286e-66
8.54073e-54
5.21728e-56
1.87692e-55
1.59988e-56
3.95001e-55
1.55488e-56
6.4221e-57
9.91643e-35
3.1424e-34
2.76545e-33
1.34056e-33
5.62051e-36
4.05721e-33
6.41882e-33
1.09455e-39
2.23201e-41
1.05219e-40
3.21266e-39
7.79752e-39
2.57099e-40
1.13452e-38
1.01105e-10
9.71195e-11
9.86669e-11
9.86669e-11
1.58381e-06
8.29434e-10
3.39692e-10
0.999956
0.997773
0.999651
0.741961
0.966309
1
0.998969
1
1
1
1
1
1
1
1
1
1
1
1
1
1.26059e-29
1.27125e-48
-6.50872e-31
3.4999e-48
2.59168e-48
3.97355e-11
6.07017e-10
0.623015
0.939818
0.920699
0.997133
0.972445
0.999573
0.999212
-3.15455e-39
-1.57707e-38
-9.28125e-49
-6.88683e-30
0
1.56229e-10
1.11693e-27
7.50306e-41
3.00929e-44
1.76443e-42
4.76553e-40
6.45927e-41
1.6828e-42
7.6648e-42
6.4103e-34
2.13369e-33
2.85213e-34
1.73287e-30
3.71149e-33
4.30275e-34
9.8695e-34
2.23537e-33
1.54004e-34
2.23537e-33
3.81912e-34
8.74902e-38
1.05368e-32
5.51666e-34
2.90038e-28
2.45447e-27
1.78805e-26
7.5311e-28
8.88956e-27
5.88642e-27
7.08558e-27
3.68187e-28
4.70043e-29
4.86855e-26
2.07227e-25
7.30156e-26
7.78744e-26
4.90107e-27
1.56439e-25
1.00682e-25
3.42757e-21
3.3433e-20
1.56052e-21
1.78378e-20
1.42289e-20
4.92254e-22
1.03584e-21
4.92254e-22
4.92254e-22
2.69451e-12
1.7968e-11
1.38798e-11
3.92654e-12
3.30384e-11
1.33897e-11
1.4914e-10
4.05335e-12
8.17409e-12
2.12545e-10
3.92223e-12
6.2154e-11
3.83898e-12
1.4128e-11
2.1666e-12
2.22603e-12
3.32136e-09
1.02023e-09
1.42579e-09
3.53437e-09
5.51571e-08
2.82461e-09
2.06716e-09
3.84161e-09
7.72119e-06
6.22341e-05
3.79436e-09
1.20667e-08
5.6286e-09
3.85586e-09
1.75851e-09
3.59957e-06
8.27922e-06
2.29511e-06
3.05192e-07
2.67676e-07
3.49824e-06
1.32822e-15
2.01967e-15
2.01967e-15
4.07742e-15
1.28928e-15
3.96425e-15
3.47654e-15
1.87834e-16
1.24239e-14
2.89689e-16
5.28312e-14
5.1253e-15
3.12156e-16
3.12156e-16
1.02308e-14
5.83967e-14
8.06376e-15
1.69571e-15
1.04572e-12
3.36629e-13
3.9632e-14
3.84949e-20
1.1675e-19
4.08584e-20
8.4468e-20
3.31038e-19
5.59654e-21
2.43882e-21
7.79941e-25
6.19799e-26
1.08682e-26
2.94604e-24
5.30915e-24
9.15442e-25
3.06067e-25
4.75867e-26
3.84499e-26
6.48231e-33
5.62398e-33
1.08146e-32
1.58637e-28
3.18733e-32
6.48231e-33
9.45292e-33
3.20168e-58
7.0768e-57
3.72684e-53
2.22119e-58
1.69772e-58
5.55803e-57
6.33841e-58
1
1
1
1
1
1
1
1
1
0.994986
0.990405
0.990018
0.999991
0.999987
0.939379
0.59138
1.86351e-05
8.97639e-06
8.97639e-06
8.97639e-06
2.48899e-05
0.00021955
0.000277554
0.000273389
0.000803272
0.998258
0.999731
0.999991
0.00103867
0.00113086
0.00107419
0.000968654
0.000966205
0.000967275
0.0017395
4.75197e-51
3.45116e-47
3.58997e-49
5.49071e-49
6.11892e-51
3.63078e-49
6.73328e-49
5.3799e-10
2.63563e-10
2.73814e-09
1.81983e-10
1.29055e-10
3.28818e-07
5.79793e-09
7.71043e-09
5.60333e-10
2.52808e-49
3.68591e-49
3.68591e-49
3.33552e-49
4.44555e-50
9.7079e-48
1.9853e-49
2.44612e-05
1.48496e-07
1.66403e-07
6.17766e-07
1.49559e-07
1.04564e-06
6.20425e-07
0.000167302
0.000167385
0.00016557
0.00125077
0.000601488
0.000361566
0.000325189
9.688e-05
0.000488813
7.59216e-05
4.06461e-05
4.00983e-05
0.000622229
8.22282e-05
0.000248079
5.38107e-05
5.60521e-05
8.69893e-05
1
1
1
1
1
1
1
1
1
1
1
1
1
1
1
1
1
1
1
1
0.999652
0.975796
0.998042
0.00622223
0.00327011
0.0026124
0.000920655
0.000965084
0.000303969
0.0118548
7.74695e-31
5.95427e-29
2.15599e-30
1.38719e-26
4.94378e-29
3.03474e-31
2.66182e-30
4.28874e-30
4.18791e-32
4.55632e-49
5.97462e-43
2.639e-49
2.63901e-49
1.33401e-49
4.55454e-49
1.4605e-51
2.09847e-33
9.70719e-37
1.29999e-36
7.795e-35
1.40246e-38
5.81811e-38
2.02155e-38
9.51411e-37
7.03477e-37
7.31558e-18
3.13959e-19
1.08201e-18
1.28035e-16
1.32167e-17
7.6453e-18
3.17917e-18
7.09149e-17
3.43115e-17
5.17858e-15
1.15578e-17
1.03085e-17
1.68957e-17
3.43115e-17
2.54733e-33
6.78546e-29
1.14677e-32
2.17759e-33
1.46267e-32
1.02567e-31
1.56996e-32
2.976e-34
5.66491e-34
1.57905e-35
3.2691e-36
4.19511e-35
5.14226e-36
3.14679e-36
6.10617e-44
8.24574e-43
6.1293e-44
3.8205e-43
5.39579e-44
6.09918e-44
6.1293e-44
2.74945e-56
3.02762e-57
5.92223e-57
3.02535e-57
2.64212e-57
4.52099e-57
2.06805e-55
1.37976e-57
5.63385e-57
5.41459e-55
3.30641e-57
8.65008e-67
3.12558e-69
3.52778e-67
3.52778e-67
3.52942e-65
3.17276e-73
2.14066e-70
8.13473e-73
3.17276e-73
3.17276e-73
3.6561e-73
3.17276e-73
4.44068e-72
6.72844e-65
4.11637e-67
3.7059e-72
4.44068e-72
5.0297e-71
5.35985e-72
1.65509e-68
7.31785e-67
7.64889e-67
1.18274e-68
1.73755e-67
1.40049e-67
1.18274e-68
7.28567e-75
7.28567e-75
7.28567e-75
-8.16551e-71
5.41711e-71
3.90513e-65
5.46927e-71
4.34804e-69
1.09731e-68
9.69566e-69
1.28036e-73
1.23174e-73
1.21174e-74
1.97553e-59
4.59373e-63
7.76606e-61
2.87104e-62
6.06391e-61
1.23483e-55
6.06391e-61
2.92616e-63
1.22869e-63
2.44949e-63
1.95257e-62
1.95257e-62
3.1861e-63
3.49321e-63
1.7122e-67
1.80604e-58
3.00854e-63
3.66928e-58
6.61838e-56
5.10815e-58
3.66928e-58
3.66928e-58
3.66928e-58
9.73241e-58
1.83654e-56
1.30607e-57
3.45257e-52
1.37419e-57
5.27342e-52
1.35745e-50
4.25064e-56
1.33856e-53
1.03572e-54
7.15615e-53
1.0917e-53
1.28233e-48
1.05406e-48
5.77153e-44
1.28233e-48
1.33141e-48
2.09289e-42
9.37519e-44
2.0323e-38
5.99595e-40
2.0323e-38
3.63416e-36
5.73859e-35
8.22222e-37
7.45702e-37
9.41856e-37
6.23375e-35
4.33652e-33
2.13681e-32
7.44646e-33
1.84338e-28
1.37015e-29
1.59695e-31
7.44646e-33
2.11745e-27
1.86123e-27
3.86795e-27
2.79888e-27
2.58466e-25
1.93028e-27
2.571e-26
3.96304e-29
3.96304e-29
8.47618e-30
4.11046e-27
4.11046e-27
1.27623e-25
1.09163e-24
5.60093e-25
3.06067e-25
3.01462e-24
2.57275e-25
1.27178e-25
5.79278e-19
1.13731e-17
1.27116e-18
1.46807e-18
3.09985e-18
1.58094e-18
6.91703e-19
3.51608e-16
6.47761e-17
7.20435e-17
3.54104e-16
3.04256e-16
7.91582e-17
3.3481e-16
4.2309e-09
8.84743e-09
4.07859e-09
3.73106e-09
4.87072e-09
1.71829e-07
4.22056e-08
6.58312e-19
1.89126e-19
4.00678e-19
3.62149e-20
4.77119e-20
3.31254e-19
7.6138e-20
4.22479e-27
4.13861e-27
4.95778e-28
3.47298e-34
1.99603e-31
1.77159e-29
2.38384e-30
1.85508e-29
2.92394e-29
7.97204e-30
1.44357e-33
1.35509e-33
2.64137e-35
1.44358e-33
1.03307e-33
8.54456e-34
1.0084e-50
1.48028e-50
3.56819e-53
3.56819e-53
2.83399e-54
1.86848e-51
3.15925e-51
-2.02706e-51
-1.16244e-52
-3.67694e-51
-2.06029e-50
8.58042e-53
-8.12865e-50
-7.56952e-70
2.23894e-35
1.17087e-35
4.46684e-37
3.73434e-37
6.1857e-36
1.89519e-33
9.04276e-36
3.31589e-24
1.19944e-24
4.00744e-24
2.29889e-24
1.57805e-24
1.63141e-22
2.26841e-24
3.09373e-15
2.53937e-18
1.77572e-20
3.09143e-20
1.6177e-20
3.11414e-17
3.37341e-20
1.3903e-20
1.6401e-20
4.6995e-27
4.80992e-22
1.13127e-29
1.79103e-29
4.33657e-30
4.33657e-30
4.33657e-30
3.49664e-28
8.31746e-27
3.79337e-19
2.90323e-20
2.4858e-24
5.06458e-24
8.6841e-27
1.50769e-20
3.00299e-23
2.57394e-24
1.40156e-25
4.26716e-27
6.03439e-30
6.03439e-30
6.03439e-30
6.43474e-27
1.07856e-25
1.46403e-23
2.92025e-17
4.47079e-17
2.80887e-17
4.75839e-17
1.15371e-25
1.15371e-25
0.000407403
0.000804248
0.000804751
0.000683586
0.000173162
0.00102499
0.0011452
0.000266629
0.000771486
0.00125046
0.000266629
0.000474959
0.00026967
0.000804751
0.000614459
0.000342098
0.000104902
0.000964826
0.00324738
0.039591
0.000958099
0.00195186
0.000240713
0.00428845
7.81487e-05
7.77574e-05
7.92346e-05
0.0158196
0.00632172
0.00257828
0.00282095
0.00259912
0.999287
1
0.992962
0.97763
0.57469
0.956593
0.980181
1
1
1
1
1
1
1
1
1
1
1
1
1
1
1
1
1
1
1
1
1
1
1
1
1
1
1
1
1
1
1
1
1
1
1
1
1
1
1
1
1
1
1
1
1
1
1
1
1
0.999999
1
1
1
1
1
0.915786
0.997796
0.718938
0.999852
0.999854
0.960775
0.999816
0.96081
0.843756
0.999537
1
0.999743
0.946275
0.993751
1.16438e-05
1.15948e-05
1.15948e-05
3.29733e-05
1.18687e-05
0.000122136
2.33599e-05
9.57733e-11
1.29712e-09
1.46495e-12
1.92703e-06
4.30808e-09
5.9273e-10
9.3565e-11
4.54574e-12
4.73103e-15
3.25943e-12
4.09803e-14
1.37193e-10
7.47198e-10
8.04712e-13
3.95175e-12
8.36611e-11
6.48157e-12
4.57607e-09
3.13246e-11
2.15339e-10
8.56248e-13
9.54931e-13
9.5555e-13
1.6513e-22
6.38745e-20
1.76568e-17
2.29653e-14
4.22521e-17
4.72566e-18
8.25175e-18
3.83e-19
4.10683e-20
5.69988e-51
2.91848e-44
4.00763e-32
7.4815e-31
1.63239e-36
2.14739e-32
6.415e-33
8.62045e-30
1.2621e-30
1.24702e-28
4.42969e-29
5.2545e-33
1.85172e-29
7.17917e-29
2.00332e-24
3.70486e-24
2.01087e-23
5.43738e-24
5.86197e-24
3.19575e-23
1.51232e-23
7.90485e-24
1.76106e-26
4.70043e-29
4.70043e-29
4.57972e-27
4.39144e-45
4.56001e-41
1.71578e-46
1.70584e-46
8.4842e-45
1.71578e-46
6.08692e-47
1.12332e-53
1.11764e-53
2.97098e-48
7.44206e-54
1.11764e-53
1.12332e-53
1.479e-54
5.22711e-69
3.55436e-64
5.45013e-66
5.23047e-68
5.13585e-70
7.58812e-66
3.69393e-66
5.77853e-80
1.35377e-77
1.79786e-77
5.3385e-80
5.77853e-80
5.3385e-80
7.06668e-80
1.35496e-73
1.62309e-62
2.94706e-64
6.19688e-74
6.86432e-77
9.22998e-71
1.96206e-73
1.87172e-71
6.86013e-79
2.21887e-68
6.86013e-79
6.86013e-79
1.39093e-77
7.6131e-79
1.05234e-69
1.41423e-78
7.61303e-79
1.49134e-78
1.05671e-63
2.50079e-65
4.61433e-69
1.78335e-69
1.89916e-69
1.863e-68
1.863e-68
1.89894e-69
1.03068e-67
4.02844e-69
7.32272e-71
3.71106e-73
6.25808e-72
3.21714e-58
2.15248e-56
2.90166e-54
8.97345e-53
4.24781e-56
8.97856e-56
3.59529e-59
1.31629e-54
1.03148e-53
7.69913e-54
1.41635e-53
4.80082e-52
5.40139e-55
7.97772e-57
1.44254e-48
4.4566e-51
4.67402e-50
1.65069e-48
6.77231e-47
3.80777e-48
1.2905e-46
1.12359e-48
6.57859e-49
2.77424e-48
1.64619e-45
2.1926e-44
6.23084e-43
2.93769e-44
1.51921e-41
5.37543e-40
1.47968e-44
3.10007e-42
1.12364e-43
8.30131e-38
3.10007e-42
1.03995e-36
8.47191e-37
2.03054e-33
3.98149e-34
2.13267e-34
1.30846e-33
3.06992e-34
4.2296e-34
2.45069e-31
1.1234e-31
2.95347e-27
7.3103e-29
6.2195e-28
7.41709e-26
1.11915e-26
1.35184e-23
4.3941e-23
2.71235e-23
9.07394e-24
4.55098e-22
1.59535e-21
6.11309e-22
4.21589e-26
5.35346e-27
5.35346e-27
3.39441e-21
3.42553e-24
1.01015e-27
3.61142e-27
4.16426e-22
1.03433e-22
1.05467e-23
9.97729e-24
1.56695e-22
1.72123e-23
4.32288e-24
4.35417e-23
1.70196e-23
4.96541e-15
3.88519e-15
3.82417e-15
2.19315e-12
4.99604e-13
4.80733e-16
3.14166e-16
9.11969e-12
9.01376e-12
2.02744e-11
5.68571e-10
6.17556e-09
3.2406e-08
8.56466e-09
1.7591e-08
1.77748e-08
1.77748e-08
5.59873e-07
1.60147e-07
2.93657e-09
2.2951e-09
2.38391e-09
1.83909e-09
1.59925e-09
1.62135e-09
1.51679e-09
1.75333e-09
1.69568e-09
1.24435e-08
1.11864e-09
3.31379e-10
1.21541e-10
2.70928e-10
7.45251e-11
1.93848e-11
2.69618e-11
3.46402e-11
-3.08327e-40
1.07146e-37
5.24814e-34
3.54262e-40
1.72469e-38
1.68467e-38
3.54262e-40
1.07125e-39
3.21326e-39
1.86286e-38
2.24714e-38
4.37893e-44
7.28421e-39
7.72631e-38
1.99186e-44
7.94742e-48
5.02594e-47
1.81704e-47
1.18575e-47
3.16916e-48
1.81037e-49
2.16546e-49
8.76958e-49
1.66083e-59
6.17694e-58
2.23811e-60
2.68855e-57
6.3335e-58
1.14255e-58
1.51469e-59
1.68669e-43
6.87804e-44
1.12358e-43
3.64742e-44
7.05455e-44
9.20355e-45
2.24709e-42
2.12123e-35
2.78964e-33
2.99117e-33
1.78504e-35
6.78748e-35
8.79813e-36
4.02432e-38
3.92156e-33
6.77883e-36
1.09721e-36
7.38996e-41
7.38996e-41
7.38996e-41
1.21363e-40
7.38996e-41
1.98904e-38
3.46368e-33
1.08075e-33
1.64023e-33
3.47066e-33
1.05081e-33
1.45998e-31
9.94624e-29
7.96505e-35
6.85592e-34
4.63223e-34
4.33657e-30
1.99366e-29
9.52744e-29
2.83855e-27
1.06122e-24
7.41813e-23
0.000150796
5.1585e-05
3.0112e-05
1.18021e-05
1.04324e-05
1.01808e-05
9.94765e-06
1
1
1
1
1
1
1
1
1
1
1
1
1
1
1
1
1
1
1
1
1
1
1
1
1
1
1
1
1
1
1
1
1
1
1
1
0.742994
0.944688
0.995046
0.999949
0.998945
0.999974
0.984236
0.966853
0.8174
0.996097
0.99998
0.999293
0.932978
0.994599
3.22822e-05
0.000246217
3.22822e-05
0.0011002
0.00299708
0.0124775
0.00869772
3.81186e-05
1.38057e-05
8.01642e-06
1.1946e-06
1.56181e-06
1.1946e-06
1.19276e-06
5.03174e-20
2.12749e-19
5.13499e-22
1.19489e-23
1.2107e-23
1.05344e-24
5.01395e-21
1.18613e-33
5.92003e-35
1.73671e-34
3.30327e-35
1.33717e-45
7.65617e-34
1.70476e-34
9.95816e-44
1.60067e-43
1.32234e-42
7.88387e-42
7.83121e-42
1.45335e-43
4.51344e-42
1.41256e-37
8.87244e-37
1.39931e-40
1.39931e-40
4.52319e-40
1.32263e-40
4.94821e-41
1.52933e-37
1.06111e-37
9.80855e-37
5.09478e-36
9.63031e-36
3.43935e-37
1.90179e-36
1.54338e-37
1.10564e-42
2.35324e-34
4.93929e-38
1.10564e-42
1.10564e-42
1.10564e-42
1.07463e-49
3.78116e-47
1.13531e-47
1.20373e-51
4.21546e-49
2.78091e-49
8.27539e-50
4.34774e-57
2.52817e-57
1.61729e-59
5.13166e-60
1.3636e-58
1.61773e-59
1.91216e-58
1.60492e-65
2.02331e-65
5.75976e-64
8.13365e-66
2.62881e-64
1.60492e-65
1.33322e-65
5.75821e-72
2.75281e-73
1.20315e-71
3.60971e-74
2.75278e-73
4.02181e-72
2.9282e-71
1.57702e-62
2.59337e-67
6.76463e-62
8.42896e-63
3.351e-73
-5.40586e-66
3.46538e-73
3.34917e-73
-2.19293e-65
1.98069e-80
1.20363e-76
5.05296e-80
1.98069e-80
1.30476e-80
3.51129e-80
1.98069e-80
8.73942e-78
2.52958e-74
7.9889e-78
1.42339e-78
8.05759e-78
7.92219e-76
1.15302e-78
2.79557e-83
2.79556e-83
4.77305e-80
-6.859e-76
6.69783e-77
2.11925e-73
1.41452e-70
1.13725e-75
5.04903e-77
1.10836e-76
1.10651e-74
1.32065e-71
5.04903e-77
9.29104e-76
2.16172e-82
2.79458e-83
2.16173e-82
2.1716e-76
5.04903e-77
5.04903e-77
6.84227e-75
2.47535e-73
5.3385e-80
5.56828e-61
2.11704e-60
6.4643e-61
2.21594e-61
1.4512e-62
1.04607e-60
4.0325e-61
2.22166e-56
1.15399e-57
4.39907e-57
3.99372e-56
1.8554e-53
2.1524e-53
2.15655e-60
1.91819e-60
3.52082e-62
9.76833e-61
6.50717e-59
9.76833e-61
2.10121e-52
4.42536e-51
5.66587e-55
3.03401e-52
3.03401e-52
1.41425e-50
1.17233e-52
1.53673e-46
4.77721e-46
7.23661e-47
7.96521e-46
2.64254e-45
1.0039e-45
2.03614e-46
1.43573e-35
6.67101e-37
6.82203e-37
7.17137e-35
3.64717e-34
1.46314e-36
1.96769e-33
5.95305e-38
2.06936e-33
1.00361e-32
5.03968e-39
1.11034e-37
5.92325e-32
4.20608e-33
4.63855e-33
1.29476e-32
1.29476e-32
4.63855e-33
1.84619e-32
1.39567e-31
1.75532e-31
4.71096e-30
2.81293e-31
5.54373e-31
1.09765e-28
1.58376e-30
1.71417e-31
1.1234e-31
1.86293e-33
3.12065e-24
3.16022e-24
3.64629e-24
2.34207e-23
3.19288e-24
3.80724e-24
6.59571e-23
1.61541e-26
6.38738e-24
1.04413e-23
6.48595e-21
1.03826e-18
1.64372e-20
3.68325e-21
3.86566e-21
8.95299e-21
3.86566e-21
3.20466e-21
3.20466e-21
3.20466e-21
3.20466e-21
3.51251e-21
2.69399e-17
5.39113e-17
5.62934e-21
5.69135e-21
2.56502e-20
5.89476e-17
5.51598e-17
4.10761e-16
1.00157e-16
5.76131e-17
6.68542e-13
1.00464e-14
6.82941e-16
8.50483e-16
6.9335e-16
1.71043e-16
1.29299e-16
1.66786e-13
1.48862e-12
1.03464e-13
1.03464e-13
1.03464e-13
1.06657e-13
1.90509e-13
1.03846e-13
1.06727e-13
1.69674e-13
2.03372e-13
1.39228e-13
3.42167e-14
1.50297e-12
6.78245e-12
1.60535e-11
1.26541e-07
1.43345e-07
1.35579e-07
5.17013e-07
1.17636e-07
2.40932e-07
1.00957e-06
1.10479e-08
1.2069e-08
1.1932e-08
2.25305e-07
1.30086e-08
6.52661e-07
1.13978e-06
1.17968e-12
1.1362e-12
1.28113e-09
1.1362e-12
1.10295e-12
8.70868e-10
1.78014e-09
2.90033e-13
7.00904e-15
7.86969e-15
5.2036e-15
9.6842e-15
2.3841e-15
2.58596e-15
3.29022e-15
1.20192e-14
5.36183e-14
2.75537e-13
4.8379e-14
7.70599e-13
5.49496e-14
2.99778e-14
1.00841e-14
3.37006e-17
1.42697e-18
1.3518e-18
2.04593e-19
3.25161e-19
1.89133e-18
3.71232e-19
3.1574e-32
2.87998e-32
3.1574e-32
1.63839e-28
2.29875e-28
1.94424e-29
1.32491e-28
3.1574e-32
3.34299e-27
6.94329e-33
2.45748e-32
8.36451e-30
4.02201e-38
6.11717e-38
6.11737e-38
1.55866e-37
1.8945e-36
1.5147e-37
2.12083e-43
1.19084e-35
2.95088e-42
4.10904e-37
6.46684e-36
2.12082e-43
2.12082e-43
2.25809e-60
1.88411e-59
1.62692e-59
5.77858e-61
8.75604e-61
1.17689e-59
9.20679e-61
8.33633e-63
5.78906e-62
2.61843e-63
1.41237e-60
7.05442e-62
4.56178e-62
1.961e-62
1.19295e-54
3.74058e-54
6.84599e-54
1.39e-56
2.68483e-56
5.67489e-55
7.47702e-56
4.29466e-60
7.26255e-60
7.67843e-60
1.97659e-58
8.17584e-59
1.06262e-59
1.06262e-59
1.56361e-53
1.78821e-53
8.1097e-53
1.6094e-54
5.46284e-53
1.6094e-54
1.6094e-54
1.81131e-50
1.82123e-50
1.82123e-50
2.47959e-48
1.75373e-46
1.82123e-50
9.32564e-41
1.841e-54
1.841e-54
8.56176e-55
6.81458e-55
8.56176e-55
2.41805e-53
7.43308e-54
3.14878e-49
2.92766e-49
2.27184e-45
1.74557e-48
1.31462e-46
2.38839e-47
6.07941e-42
3.68458e-43
7.65291e-44
7.71713e-42
5.33866e-41
9.78914e-42
2.18247e-38
2.63986e-40
1.52039e-36
6.40245e-42
6.41758e-39
1.67535e-36
7.38996e-41
3.16246e-05
8.0569e-07
0.0160873
7.74156e-07
0.000982769
0.00401692
0.0281101
1
1
1
1
1
1
1
1
1
1
1
1
1
1
1
1
1
1
1
1
0.989275
1
0.979732
0.963675
0.9978
0.999996
0.34324
0.990415
1
0.949179
0.950448
1
1
0.341398
1.81854e-22
1.21072e-22
1.11368e-20
6.51187e-24
6.60569e-24
3.79579e-23
1.93341e-22
7.11402e-26
7.11402e-26
7.11402e-26
3.64218e-25
7.21728e-26
1.51435e-20
4.95019e-19
3.20843e-25
7.23793e-22
1.35537e-39
1.15855e-31
2.26894e-30
4.75531e-31
1.16588e-31
2.78514e-29
1.17813e-31
1.13941e-32
1.3482e-41
1.61415e-36
2.13057e-26
4.45613e-27
1.25671e-35
1.12789e-29
1.13147e-29
2.95565e-27
6.7465e-48
1.01584e-48
1.10949e-40
1.01584e-48
8.92832e-49
4.606e-40
1.11141e-40
1.32211e-40
2.60763e-37
7.79974e-49
4.96973e-50
9.79974e-52
9.79974e-52
3.34442e-49
9.79974e-52
2.02385e-51
2.17892e-51
1.88478e-56
-9.70331e-59
4.92763e-57
2.22134e-57
3.42288e-56
6.51052e-59
3.46937e-58
5.10231e-64
3.01881e-64
4.20506e-64
3.01874e-64
3.99106e-64
2.54369e-64
1.10888e-78
3.78032e-86
2.21611e-86
7.54555e-87
1.62305e-84
2.61299e-86
4.13746e-90
3.16521e-77
2.57013e-80
2.1629e-79
2.63821e-80
-4.71054e-80
-3.7841e-79
1.12607e-79
4.13731e-90
-4.48224e-89
4.13746e-90
-1.37325e-87
-3.57935e-87
5.28785e-80
5.45714e-75
2.63821e-80
1.34985e-74
1.93109e-76
-2.78208e-88
3.49522e-90
-1.04398e-85
-1.46233e-78
-1.42983e-78
9.71497e-75
1.97507e-73
4.11434e-73
5.78607e-74
9.94971e-76
1.76717e-80
3.81039e-82
2.49144e-79
-2.09853e-65
1.22291e-63
2.07546e-63
9.00318e-73
2.43692e-66
3.31842e-63
4.12284e-67
3.46031e-65
3.0082e-64
1.54721e-61
3.49055e-63
5.24105e-63
3.07143e-60
3.07143e-60
2.46309e-60
1.82505e-58
1.008e-63
1.22107e-58
1.43508e-60
2.75648e-53
9.07664e-51
2.50263e-54
2.17236e-49
2.65082e-51
8.11481e-55
2.10002e-54
2.91727e-49
6.29182e-52
7.02641e-55
1.14217e-54
1.29829e-57
1.479e-54
7.02641e-55
1.01772e-35
8.10601e-32
1.01984e-32
2.13483e-32
1.57181e-30
7.6813e-33
7.6813e-33
9.47178e-19
2.26053e-18
6.0368e-18
6.10604e-16
2.67e-17
3.48819e-18
4.35941e-18
5.48296e-17
9.71356e-17
1.27854e-16
2.67465e-12
1.30854e-12
1.79281e-12
4.53336e-12
1.95172e-13
2.68653e-12
6.90286e-12
2.13034e-12
3.80905e-13
2.74313e-12
9.01056e-13
3.45625e-11
3.03672e-09
1.46745e-09
2.12932e-09
1.4802e-08
3.52306e-08
7.42785e-13
5.16588e-11
9.01056e-13
5.16348e-07
4.15022e-07
7.85487e-08
6.62019e-08
1.91746e-07
1.36329e-06
-1.84767e-29
4.01776e-39
7.99058e-68
4.87859e-06
3.81158e-06
3.49534e-06
2.29535e-06
2.43935e-06
2.39548e-06
2.80623e-06
0.228972
0.779933
0.999556
0.999556
0.999573
0.999556
0.999522
8.93334e-07
6.09556e-07
8.93334e-07
1.33554e-06
4.07871e-05
9.51282e-07
0.00127304
0.00137387
0.00735084
5.8585e-06
5.2263e-06
4.86568e-06
0.117828
5.2263e-06
7.14196e-08
9.64906e-08
4.71769e-07
4.97914e-14
6.97652e-12
2.49287e-11
4.30002e-14
1.7993e-05
2.11714e-05
2.63584e-05
1.01849e-07
2.42472e-06
3.11119e-05
4.65356e-05
6.90578e-14
5.47134e-14
2.43583e-14
1.1586e-14
1.62317e-14
1.19059e-14
9.23453e-15
7.98545e-21
7.28575e-21
6.52367e-21
3.09228e-21
9.68522e-22
1.77447e-19
3.09228e-21
9.68522e-22
9.55937e-22
9.26364e-18
1.84761e-20
1.96457e-18
3.62485e-17
1.99718e-18
3.32846e-18
2.63429e-16
1.7925e-20
3.5265e-20
3.79165e-21
1.62164e-21
5.9427e-21
9.73107e-22
1.19527e-21
2.01713e-29
2.25201e-29
1.77478e-28
4.93408e-27
2.77786e-28
2.01221e-28
2.08327e-28
3.85707e-38
2.8272e-39
6.69624e-41
2.20031e-39
6.76581e-38
6.69624e-41
2.85301e-41
3.47158e-69
6.43715e-69
1.96363e-68
8.51404e-68
2.44616e-67
6.91968e-69
1.61893e-68
4.03746e-71
9.66674e-72
3.02198e-71
5.04342e-72
1.10738e-72
9.4043e-73
1.19594e-72
2.66088e-64
1.68773e-62
1.57905e-64
1.19252e-64
7.15007e-64
1.46036e-65
5.69451e-65
3.47971e-66
9.03388e-67
2.5626e-65
1.98402e-69
1.98402e-69
1.98402e-69
3.98393e-69
2.2778e-69
2.24019e-69
7.69511e-63
2.9859e-65
7.09545e-64
1.61848e-63
2.9859e-65
1.61848e-63
1.02735e-61
2.9859e-65
6.93671e-64
2.9859e-65
3.34822e-59
1.34587e-60
1.34587e-60
2.29686e-58
7.97219e-59
1.4257e-59
1.34587e-60
1.53111e-53
8.47602e-52
3.58915e-52
2.01494e-51
1.36669e-49
1.38151e-53
2.32102e-50
1.8071e-59
9.15592e-59
4.51646e-57
5.61612e-54
7.63424e-52
7.66233e-52
6.58497e-47
3.09707e-46
1.87251e-45
1.86329e-47
1.25826e-47
1.01704e-47
2.20228e-44
4.30747e-07
1.30631e-05
4.12976e-07
1.81551e-09
3.65304e-07
8.60208e-07
6.03966e-06
0.00136841
0.00104813
0.0031887
0.0148981
1.30834e-06
0.00200579
0.000517723
0.999966
0.999593
0.999966
0.975371
0.805089
0.976313
0.998282
1
1
0.999533
1
1
1
1
1
1
1
1
1
1
1
1
1
0.999999
1
1
0.999999
1.236e-68
7.03043e-66
-7.52906e-68
3.72454e-70
1.236e-68
5.02384e-70
8.32728e-66
6.6967e-68
5.65448e-75
2.28936e-75
2.28936e-75
8.16776e-75
2.28936e-75
9.98471e-74
3.94635e-80
1.47028e-82
6.60314e-76
9.24639e-83
1.47028e-82
1.73123e-78
1.55508e-80
4.35889e-90
1.20833e-85
9.59324e-89
4.35889e-90
8.22293e-89
1.01074e-88
4.35889e-90
6.06993e-85
6.50243e-92
1.06996e-90
1.52071e-90
1.20059e-80
9.62054e-92
-2.17434e-89
-1.31419e-90
4.91794e-89
-6.54255e-87
4.48377e-78
7.34365e-78
1.85858e-75
3.52503e-79
3.11587e-78
8.63268e-76
9.81873e-73
2.27507e-72
5.34044e-72
3.60691e-70
1.55967e-72
9.38498e-75
2.05796e-70
2.19282e-67
3.56574e-65
1.83302e-65
5.04983e-67
3.22545e-66
3.74799e-69
5.00087e-62
5.04983e-67
1.30237e-55
1.29568e-55
5.68968e-56
1.64096e-57
6.73413e-60
1.01941e-55
3.45998e-58
8.8472e-15
1.6838e-14
5.00973e-15
7.57571e-14
7.87997e-15
5.94369e-15
7.87997e-15
8.49931e-15
1.0574e-13
1.01594e-14
1.01419e-14
5.87065e-14
6.58872e-14
7.38902e-14
1.73652e-08
1.82717e-09
1.69568e-09
1.26602e-08
1.43008e-09
8.76418e-06
2.04573e-05
4.73694e-06
0.000336298
5.49005e-05
0.000148235
2.29535e-05
0.809164
0.830156
0.994488
0.881313
0.877871
0.298295
0.967239
3.27809e-05
8.89021e-06
3.47366e-05
3.53319e-05
2.80096e-05
9.84214e-06
3.53319e-05
8.43734e-06
2.87512e-06
2.60607e-06
1.76393e-05
8.57446e-06
2.21699e-07
2.30939e-05
3.94561e-10
3.20689e-10
1.20038e-09
1.10638e-06
6.01473e-07
3.92154e-07
9.05077e-07
3.12828e-06
3.88121e-07
2.29154e-06
2.97347e-07
4.49544e-07
4.16502e-06
5.30562e-10
7.58485e-11
1.42021e-08
4.16331e-11
1.54182e-07
4.88929e-08
1.03088e-14
3.00605e-14
7.32418e-15
8.82957e-15
2.8644e-14
7.32419e-15
7.32419e-15
2.11804e-18
5.50917e-18
2.30019e-19
3.81932e-18
6.93371e-19
3.24668e-20
3.70852e-20
1.83346e-32
4.69757e-32
7.29902e-32
7.66313e-35
7.19603e-32
7.99391e-33
4.86166e-34
3.44272e-38
3.93207e-37
5.28146e-38
5.10067e-40
1.09345e-36
5.28392e-38
4.76837e-38
6.56819e-42
6.28433e-43
5.92625e-43
2.18234e-43
2.10356e-42
1.86374e-42
8.28108e-44
1.2844e-46
2.97076e-53
1.33739e-51
1.19631e-53
5.46852e-50
1.36024e-53
6.53168e-50
1.36543e-53
-9.70675e-53
8.11441e-63
8.11441e-63
6.81263e-63
6.60804e-63
9.74949e-63
6.03527e-63
3.28933e-63
2.01172e-77
1.3376e-75
1.58759e-79
4.03915e-78
5.26872e-80
3.93095e-76
1.2421e-80
1.45521e-77
1.16599e-76
1.14019e-73
2.20061e-82
1.24246e-82
1.17593e-82
6.21149e-84
4.5922e-83
4.7975e-84
6.21149e-84
2.41326e-74
2.10096e-76
1.88973e-75
7.84009e-77
5.2586e-75
5.99322e-77
1.17043e-70
1.15739e-71
3.87779e-69
2.00058e-69
2.70574e-71
3.11499e-71
2.87861e-71
5.26684e-70
2.40129e-68
1.79506e-72
1.0662e-65
2.2778e-69
8.41024e-68
1.97596e-63
5.33623e-64
2.29987e-63
1.67725e-63
2.66088e-64
2.00835e-61
3.87148e-64
3.14456e-47
5.5807e-44
1.10744e-47
9.24544e-48
9.37359e-48
3.6733e-46
1.49908e-47
1.42168e-18
1.0649e-17
5.3368e-19
5.96267e-15
2.99457e-17
4.72968e-14
4.80095e-15
5.73074e-16
2.59679e-16
2.20376e-15
2.44515e-15
1.66498e-15
4.09784e-11
5.17751e-11
3.79076e-10
1.63237e-08
7.2455e-12
1.54535e-10
1.03424e-12
2.499e-14
2.39702e-13
3.54612e-14
1.33152e-14
1.18362e-16
8.24627e-08
1.73392e-07
1.55115e-07
1.25941e-07
1.36456e-07
6.69529e-08
3.78573e-08
1.35781e-06
1.35781e-06
1.21239e-06
5.68956e-06
1.19249e-06
5.24309e-05
3.60656e-06
0.104475
0.00869996
0.00814933
0.0309702
0.000134822
0.00280249
0.0162841
1
1
1
1
1
1
1
1
1
1
1
1
1
1
1
1
1
1
1
1
1
1
1
1
1
1
2.36664e-88
2.34081e-86
2.36664e-88
2.36664e-88
2.36664e-88
7.18131e-86
3.35437e-86
6.72076e-87
3.56918e-84
3.81929e-86
9.51629e-76
2.91918e-76
1.10519e-75
2.34216e-74
2.02145e-73
3.64423e-74
2.33185e-74
4.78089e-51
2.36311e-49
3.21255e-50
1.41147e-49
4.00945e-49
4.08524e-50
6.12191e-51
2.58747e-56
4.97571e-55
3.03965e-55
2.94454e-55
2.39427e-56
1.70026e-56
3.49619e-53
2.31692e-08
3.6872e-08
2.80361e-08
3.06328e-06
2.48485e-08
9.32551e-09
2.48485e-08
1.05295e-07
1.75513e-07
4.24367e-07
7.94705e-07
6.98855e-07
6.0816e-05
3.74485e-07
0.000295214
0.00027904
0.000289807
0.00390579
0.000285857
0.000529912
0.00200497
0.000474372
0.00122188
0.000502577
0.000839922
0.00309892
0.000579713
0.000579713
4.80339e-09
6.75798e-09
6.40264e-07
4.7516e-07
8.53517e-09
5.49187e-09
4.86205e-09
4.76573e-09
2.36675e-09
1.15491e-10
8.70743e-09
1.83511e-09
1.1289e-10
1.25086e-07
4.95663e-09
1.29872e-10
4.39112e-08
8.6122e-08
6.33383e-09
3.49831e-06
1.11585e-08
1.87441e-06
2.47636e-08
3.9703e-17
2.3407e-17
3.9703e-17
2.19232e-17
2.3407e-17
7.97723e-17
2.3407e-17
7.32418e-15
1.1867e-14
1.50288e-14
9.37336e-21
7.86846e-22
1.60894e-21
3.60231e-22
7.86846e-22
3.25719e-22
3.60212e-22
1.71963e-15
7.86846e-22
1.85078e-20
6.83041e-29
5.45773e-27
1.79823e-22
8.56258e-27
3.11726e-22
5.26132e-22
2.77796e-29
3.37613e-29
2.77796e-29
4.47527e-29
2.25502e-28
2.77796e-29
2.8162e-29
4.14193e-44
4.14193e-44
5.83114e-45
2.21275e-43
5.46086e-43
5.79998e-45
2.98821e-45
8.89367e-45
1.51177e-45
1.67128e-62
2.81256e-59
6.21775e-55
1.51336e-62
1.54968e-58
1.67128e-62
1.65473e-62
4.59236e-67
3.9361e-67
1.54381e-68
4.12009e-67
5.93413e-68
1.02171e-68
4.51442e-68
4.97833e-81
4.97833e-81
4.97833e-81
1.19504e-74
-6.21799e-78
4.7457e-75
4.97833e-81
1.00742e-77
1.42123e-86
-7.23481e-83
1.55027e-86
-1.6971e-83
7.24822e-74
1.55034e-86
2.24248e-78
1.54616e-86
3.30035e-82
6.5787e-83
1.96729e-85
1.95871e-85
2.37268e-85
1.30168e-85
3.99498e-86
1.28782e-81
1.17052e-82
1.00264e-78
5.79385e-65
1.94789e-65
1.21581e-64
2.08023e-64
2.81935e-65
3.00071e-64
2.73285e-63
8.54475e-59
7.33941e-59
8.54475e-59
8.54475e-59
1.39796e-58
2.92483e-58
3.15647e-58
2.99726e-54
9.14208e-52
2.01905e-55
2.01905e-55
5.13415e-53
1.31416e-54
1.39137e-55
6.18412e-53
7.5697e-55
2.83685e-50
4.39815e-52
4.39832e-52
4.11955e-53
5.40085e-51
1.46798e-42
9.93475e-49
4.17312e-46
9.93475e-49
5.75971e-51
8.14109e-43
5.47608e-45
4.64432e-32
8.04015e-32
1.30632e-30
7.54781e-32
1.26528e-32
1.44763e-32
4.64432e-32
1.32094e-33
1.32106e-33
1.43224e-34
7.08668e-29
2.9741e-33
1.52087e-33
2.97424e-33
2.22022e-29
1.0769e-29
4.18791e-32
3.65903e-32
3.75945e-32
2.34116e-24
3.21786e-25
1.46218e-22
4.36089e-24
2.39201e-21
3.77386e-25
2.80927e-23
2.30021e-15
1.83129e-15
1.33775e-13
5.18003e-14
8.4884e-16
1.52663e-14
9.78095e-16
9.04055e-17
2.95863e-16
1.09116e-16
1.19231e-16
4.84078e-18
4.19834e-17
2.09992e-15
1
1
1
1
1
1
1
1
1
1
1
1
1
1
1
1
1
1
1
1
1
1
1
1
1
1
1.00864e-54
4.90328e-54
3.98759e-54
8.88794e-57
3.10197e-54
6.72201e-53
4.37713e-52
3.64948e-78
3.64948e-78
3.64948e-78
3.62672e-77
5.86676e-77
1.51883e-77
3.64948e-78
5.58104e-84
4.60178e-82
1.28574e-81
9.54896e-82
2.14657e-79
5.58104e-84
9.54896e-82
5.24207e-78
5.72944e-75
2.5276e-74
7.15251e-82
3.54768e-79
5.58104e-84
1.29954e-72
2.13076e-68
8.79532e-75
8.7952e-75
2.28917e-75
1.29954e-72
7.14637e-75
3.93703e-64
2.64508e-64
2.21771e-66
2.12334e-66
1.78934e-66
7.67176e-68
1.10048e-66
9.33675e-67
5.82499e-66
1.44461e-05
6.93311e-06
7.66461e-06
2.32016e-05
6.56692e-05
6.85481e-06
0.000152716
6.32644e-06
3.04501e-06
3.41061e-07
8.21664e-06
4.76359e-06
5.74573e-07
3.08225e-07
7.83244e-23
1.13307e-22
3.82324e-22
1.13835e-20
9.44679e-22
5.55329e-22
1.59977e-21
2.77796e-29
3.54416e-29
3.07402e-29
6.65555e-33
7.68525e-34
7.47781e-33
3.74252e-33
5.11746e-35
7.28961e-35
1.2451e-33
7.64073e-37
6.25325e-37
6.88016e-37
4.2241e-37
5.73438e-37
1.35741e-33
2.21782e-37
7.19549e-39
2.21782e-37
4.53718e-31
8.238e-33
6.93177e-32
3.27761e-40
1.30232e-39
3.21296e-40
1.88312e-40
3.49735e-39
2.83206e-40
2.04036e-40
5.38268e-39
2.83206e-40
2.39177e-37
3.29908e-45
5.5029e-45
7.80818e-45
8.44722e-45
5.55209e-45
2.60711e-44
3.01704e-53
3.01704e-53
3.01704e-53
3.01704e-53
3.13555e-53
8.1214e-51
9.43137e-53
8.66028e-65
4.14532e-64
9.83061e-61
2.81536e-58
1.95805e-63
4.14532e-64
1.95805e-63
3.62193e-74
8.82205e-76
6.47936e-76
1.58326e-75
1.39835e-72
2.35659e-74
1.61855e-77
7.45191e-77
1.61855e-77
1.61855e-77
1.61855e-77
3.85975e-77
3.52418e-74
2.6175e-74
3.45234e-80
3.40806e-80
5.33184e-81
2.28365e-54
2.16401e-55
3.11283e-55
4.03228e-54
9.87772e-53
2.60409e-55
7.37944e-54
2.12239e-59
3.37622e-61
3.02395e-62
1.13594e-62
3.78135e-62
2.60806e-58
3.27794e-57
9.87202e-64
2.0233e-64
4.45967e-65
4.45967e-65
4.08435e-65
5.16014e-65
2.05354e-63
2.0664e-60
1.08316e-62
3.15632e-60
1.10055e-58
1.06097e-58
4.19089e-60
1.40105e-55
-6.88291e-64
-8.90056e-65
-2.99952e-64
5.94654e-66
-6.72543e-65
1.18342e-58
2.52665e-66
3.19507e-48
7.822e-48
3.94973e-47
3.41889e-48
3.82442e-46
1.13854e-46