/*--------------------------------*- C++ -*----------------------------------*\
| =========                 |                                                 |
| \\      /  F ield         | OpenFOAM: The Open Source CFD Toolbox           |
|  \\    /   O peration     | Version:  v2012                                 |
|   \\  /    A nd           | Website:  www.openfoam.com                      |
|    \\/     M anipulation  |                                                 |
\*---------------------------------------------------------------------------*/
FoamFile
{
    version     2.0;
    format      ascii;
    class       volScalarField;
    location    "0.05";
    object      p;
}
// * * * * * * * * * * * * * * * * * * * * * * * * * * * * * * * * * * * * * //

dimensions      [1 -1 -2 0 0 0 0];


internalField   nonuniform List<scalar> 
6576
(
-610.558
-667.659
-630.055
-622.567
-608.293
-573.587
-615.643
-607.019
-591.07
-604.865
-541.8
-555.15
-564.49
-561.031
-534.921
-535.516
-630.601
-580.393
-554.955
-472.084
-608.251
-546.054
-551.337
-700.855
-478.443
-393.625
-228.452
-629.138
-674.489
-676.422
-629.672
-694.552
-586.814
-453.537
-446.434
-425.904
-487.124
-446.317
-499.473
-471.528
-555.828
-630.938
-526.917
25.4054
3.60728
39.0578
6.25389
24.2739
65.5039
41.4568
15.4032
40.222
-2.92139
-2.92375
-2.93535
-2.8927
-2.89706
-2.9105
-2.90527
-2.92349
-2.89454
-2.88464
-2.86942
-2.90103
-2.92569
-2.89298
-2.71903
-2.75135
-2.76486
-2.77899
-2.75013
-2.81194
-2.77827
0.201009
0.172921
0.193173
0.192477
0.216442
0.218882
0.197354
0.169855
0.170491
0.136832
0.155713
0.183481
0.167957
0.139885
0.530702
0.528266
0.537862
0.510386
0.52104
0.519606
0.46969
57.4115
44.616
85.063
5.52721
33.1378
56.7404
27.7711
187.154
160.579
152.977
160.854
187.215
140.008
166.265
165.439
152.233
191.757
138.982
165.778
165.198
-2.91145
-2.94321
-2.89072
-2.89465
-3.01064
-2.84671
-2.92608
-43.6494
-79.1637
-360.878
-245.218
-181.023
-60.9367
14.3066
-2.87109
-2.98783
-3.00122
-3.45378
-3.00942
-3.71128
-3.12095
-1.2941
-1.27612
-1.31955
-1.267
-1.22473
-1.22982
-1.27443
-1.53084
-1.50464
-1.47609
-1.49225
-1.43076
-1.42931
-1.48522
-1.76762
-1.74244
-1.81554
-1.64991
-1.69889
-1.74926
-1.70584
-1.79275
-1.86452
-1.78325
-1.76971
-1.84405
-1.77021
-1.69283
-1.7968
-1.718
-2.01803
-2.08685
-2.04862
-1.91801
-1.95647
-2.01271
-1.97902
-2.11227
-2.18795
-2.12568
-2.06141
-2.13933
-2.05286
-2.15629
-2.10651
-2.01668
-2.7976
-2.85709
-2.88908
-2.81263
-2.88477
-2.97327
-2.89242
-2.85642
-2.93379
-2.9203
-2.89333
-2.90398
-2.84372
-2.86511
-2.85594
-2.88124
-3.05949
-3.00167
-3.05684
-3.08202
-3.06001
-2.9948
-3.04035
-3.07877
-3.14715
-3.20677
-3.05466
-3.00604
-3.06054
-3.09301
-2.86809
-2.6409
-2.79181
-2.7181
-2.72499
-2.7349
-2.6022
-2.85132
-2.86383
-2.87497
-2.81946
-2.82066
-2.83396
-2.83808
-2.77306
-2.80928
-2.79878
-2.80122
-2.76626
-2.78037
-2.80959
-2.74349
-2.69291
-2.67616
-2.7789
-2.79827
-2.73499
-2.72388
-2.4305
-2.48963
-2.41757
-2.52238
-2.53372
-2.45874
-2.47037
-2.21736
-2.13585
-2.15872
-2.29326
-2.27242
-2.25813
-2.23817
-2.16884
-2.19273
-1.94009
-1.85896
-1.89388
-1.93613
-1.96989
-1.87771
-1.91058
-1.4756
-1.49427
-1.45292
-1.41005
-1.4516
-1.45474
-1.41483
187.699
160.652
154.841
174.916
147.78
116.082
143.307
128.253
155.824
50.6065
82.5178
52.2754
49.9427
21.402
38.2562
11.062
0.493487
0.657356
0.655167
0.599916
0.603775
0.579715
0.589921
0.685057
0.449663
97.1877
53.3609
69.236
0.0822574
-1.12999
0.601938
0.0252173
-0.519179
-1.45714
-2.48246
-0.247116
-0.197889
-0.202503
-0.211956
-0.256391
-0.230974
-0.187865
1.15862
0.948788
0.811692
1.14243
0.936003
1.18129
0.711616
0.854341
1.1434
-0.166524
-0.139686
-0.124191
-0.221037
-0.205932
-0.186636
-0.171438
0.376605
0.465702
0.460165
0.476077
0.453002
0.446528
0.498237
0.209497
0.599703
0.200463
0.552407
0.652346
0.41267
0.630891
0.496434
0.469106
0.488909
0.48713
0.557735
0.158504
0.512661
0.229282
0.24903
0.394974
0.0109476
189.22
189.696
199.99
162.963
163.118
173.72
173.848
189.451
188.338
201.76
174.286
161.316
114.876
140.872
155.443
170.353
42.7679
23.1503
53.6074
63.4108
90.3312
43.0003
65.3317
0.407931
1.11022
0.911921
0.0317295
0.631098
1.2277
1.38955
0.146477
0.191907
0.161998
0.221199
0.237688
0.202951
0.219604
0.181847
0.165452
0.0655843
0.066421
0.096187
0.117249
0.126172
0.0828494
0.0891098
0.0951957
0.115284
0.0775774
0.161368
0.149557
0.14238
0.13391
0.0984414
0.108986
0.457246
0.408814
0.465359
0.573312
0.433456
0.400061
0.483612
0.548231
0.572844
0.663219
0.50301
0.475377
0.508449
0.542427
-2.24934
-2.2864
-2.31085
-2.22475
-2.24818
-2.27471
-2.30244
-2.29649
-2.34498
-2.34348
-2.33167
-2.28859
-2.31467
-2.35851
-2.1739
-2.20058
-2.23425
-2.18446
-2.15341
-2.19469
-2.22891
-2.1511
-2.18978
-2.13011
-2.13129
-2.16755
-2.10509
-2.06735
-2.12491
-2.08938
-2.30046
-2.33914
-2.28303
-2.29461
-2.26329
-2.33579
-2.29937
-2.42036
-2.35854
-2.4019
-2.42196
-2.46223
-2.38428
-2.42233
-2.42639
-2.44316
-2.48113
-2.40452
-2.36549
-2.40381
-2.4396
-2.72209
-2.70331
-2.66455
-2.72545
-2.76437
-2.72472
-2.68412
-2.53734
-2.57357
-2.57963
-2.5741
-2.61351
-2.63465
-2.59531
-2.78751
-2.72708
-2.74696
-2.55246
-2.57151
-2.50894
-2.91541
-2.87884
-2.87802
-2.88015
-2.9161
-2.89232
-2.86019
-2.87164
-2.87826
-2.91542
-2.81274
-2.85104
-2.84115
-2.87518
-2.89693
-2.93274
-2.86153
-2.87116
-2.81871
-2.85245
-2.91494
-2.88164
-2.89797
-2.86347
-2.83671
-2.87193
-2.93401
-2.91572
-2.91395
-2.90121
-2.8829
-2.87195
-2.81968
-2.85697
-2.89191
-2.91732
-2.92105
-2.93455
-2.88565
-2.88323
-2.89968
-2.89839
-2.63265
-2.60515
-2.57526
-2.65253
-2.68073
-2.63229
-2.66188
-2.62398
-2.59545
-2.5106
-2.48211
-2.53144
-2.56014
-2.58559
-2.52929
-2.55258
-2.59361
-2.6236
-2.5749
-2.58159
-2.62262
-2.63362
-2.58959
-2.4309
-2.45212
-2.4479
-2.49608
-2.5168
-2.50124
-2.48176
-2.2106
-2.15384
-2.22779
-2.2673
-2.20465
-2.29578
-2.26769
-2.33479
-2.40199
-2.41124
-2.35699
-2.36781
-2.25186
-2.26383
-2.32462
-2.41688
-2.42047
-2.35738
-2.35773
-2.93472
-3.00475
-3.11065
-3.30446
-3.46095
-3.22859
-3.12441
-1.14072
-1.15905
-1.31456
-0.979759
-1.09705
-1.17401
-1.02924
-0.928047
-1.0214
-0.906933
-0.835108
-0.923053
-0.852506
-0.944314
-0.991378
-0.888448
-0.572483
-0.560631
-0.654867
-0.593886
-0.61559
-0.670458
-0.69556
-0.178342
-0.220939
-0.23206
-0.244493
-0.287681
-0.256011
-0.214574
-0.284272
-0.317014
-0.256828
-0.24782
-0.277689
-0.204842
-0.236446
-0.225913
-0.266313
-0.281851
-0.338615
-0.296252
-0.262997
-0.302668
0.100193
0.0664834
0.120853
0.134357
0.102278
0.171599
0.138574
0.271814
0.30205
0.253578
0.235616
0.202219
0.30037
0.270139
0.267982
0.236492
0.194637
0.230027
0.245522
0.281459
0.248653
0.248528
0.215692
0.228508
0.195411
0.397727
0.428879
0.381451
0.380548
0.348951
0.367737
0.398057
0.347896
0.378382
0.332603
0.38092
0.416114
0.383694
0.382686
0.351273
0.330703
0.536751
0.562397
0.521904
0.518441
0.468214
0.500463
0.724502
0.671164
0.724682
0.554182
0.705385
0.216427
0.249919
0.580263
-0.0693467
-0.0590805
0.558053
0.609015
0.969352
0.736929
0.531695
0.409244
0.902984
1.13191
2.99427
-2.94752
0.0491133
0.250237
0.461286
0.377885
0.500522
0.124065
0.268567
0.613656
0.254788
0.212615
-0.367273
0.0282352
89.4536
59.8106
48.4217
34.4409
3.2706
33.8852
64.6691
155.924
142.367
169.775
112.239
138.887
152.386
187.532
161.581
161.271
135.125
162.852
189.128
154.866
162.899
188.941
141.154
115.341
167.817
141.793
174.846
201.197
175.129
190.402
189.871
200.694
163.972
164.157
186.937
186.461
160.324
160.681
190.952
190.941
201.564
165.129
164.615
175.867
149.746
169.178
155.995
142.365
191.224
165.523
157.029
190.773
164.944
143.58
169.377
141.228
116.879
154.892
167.314
141.4
116.769
142.175
41.5736
54.504
12.2006
92.1399
62.3343
35.395
63.7063
41.6417
16.3009
51.642
60.9887
88.8999
39.4375
64.7851
0.95356
0.971591
0.895743
0.916866
0.883585
0.843934
0.834235
0.60394
0.6178
0.569323
0.644657
0.57061
0.579499
0.615211
0.614411
0.582369
0.632008
0.585732
0.62374
0.665438
0.613073
0.467698
0.501574
0.49142
0.502334
0.514285
0.49688
0.514361
0.501435
0.478564
0.367832
0.39883
0.403621
0.441487
0.409491
0.429055
0.399143
0.408981
0.378221
0.32196
0.333955
0.306526
0.304453
0.316798
0.284729
0.29351
-1.50366
-1.52719
-1.44106
-1.62407
-1.55512
-1.50223
-1.55874
-1.5098
-1.44301
-1.56534
-1.57458
-1.51414
-1.59722
-1.66555
-1.83541
-1.88428
-1.78359
-1.68473
-1.73424
-1.83864
-1.86426
-1.9069
-1.81575
-1.76889
-1.8194
-1.8562
-1.886
-1.82946
-1.84715
-1.84131
-1.80566
-1.85027
-1.88618
-1.77584
-1.7354
-1.80012
-1.77725
-1.81481
-1.8583
-1.8178
-1.95292
-1.89086
-1.93206
-1.95519
-1.99727
-1.91779
-1.95496
-1.95267
-1.97391
-2.01822
-1.89303
-1.93413
-1.93421
-1.97254
-2.17342
-2.10777
-2.10997
-2.10686
-2.05896
-2.06527
-2.10279
-2.13104
-2.04565
-2.10621
-2.12338
-2.08632
-2.05036
-2.26804
-2.32975
-2.26865
-2.25015
-2.21016
-2.29143
-2.20877
-2.24963
-2.44142
-2.42283
-2.47977
-2.41378
-2.43724
-2.37309
-2.49443
-2.45659
-2.41468
-2.45015
-2.7854
-2.74978
-2.73303
-2.711
-2.67353
-2.71176
-2.7444
-2.73619
-2.75216
-2.78915
-2.71939
-2.68106
-2.71746
-2.75263
-2.87597
-2.89363
-2.85796
-2.72458
-2.74619
-2.69052
-2.79552
-2.76187
-2.72621
-2.75701
-2.88028
-2.89981
-2.93291
-2.86634
-2.89656
-2.89733
-2.89862
-2.93362
-2.89748
-2.91092
-2.89299
-2.87854
-2.92976
-2.93123
-2.94027
-2.89479
-2.89709
-2.91165
-2.90099
-2.92718
-2.89666
-2.8999
-2.92681
-2.89457
-2.89258
-2.91884
-2.77627
-2.75604
-2.79658
-2.81276
-2.83909
-2.80357
-2.78252
-2.81388
-2.83865
-2.62416
-2.62875
-2.58391
-2.66439
-2.62685
-2.60313
-2.64007
-2.7289
-2.73961
-2.71765
-2.8209
-2.80029
-2.78483
-2.77443
-2.86668
-2.76891
-2.8075
-2.91817
-2.95885
-3.02493
-3.09022
-3.10956
-3.19072
-3.12276
-3.13864
-3.08529
-3.30494
-3.34653
-3.6847
-3.14318
-3.07172
-3.24537
-3.13149
-3.28517
-3.48687
-3.24288
-2.91421
-3.01418
-3.17678
-2.88982
-3.06693
-2.8317
-2.85613
-3.1166
-1.28167
-1.3015
-1.23643
-1.19527
-1.25522
-1.25278
-1.18786
-1.08305
-1.14468
-1.04403
-1.01446
-0.965426
-1.02939
-1.07745
-0.825873
-0.787088
-0.8662
-0.856919
-0.816741
-0.949345
-0.900832
-0.874516
-0.918591
-0.699996
-0.718994
-0.651411
-0.78438
-0.73441
-0.695015
-0.741868
-0.137951
-0.173793
-0.177183
-0.210721
-0.174076
-0.234123
-0.195104
-0.0325143
-0.0132438
0.0210803
-0.0341764
-0.0677492
-0.0694408
-0.0366683
-0.0478386
-0.0147933
-0.0858191
-0.0337327
0.00379035
-0.0308053
-0.0320139
-0.065479
-0.0867236
0.0752373
0.11131
0.114055
0.110925
0.145918
0.131837
0.167766
0.0540977
0.109213
0.0910788
0.253191
0.303797
0.270175
0.385033
0.436006
0.401584
0.309688
0.509025
0.461499
0.406876
0.252768
0.289429
0.424626
170.583
158.248
145.398
162.592
149.079
137.137
134.699
108.527
110.499
135.66
200.905
175.557
174.902
188.093
187.827
198.494
161.488
161.821
172.172
172.62
168.08
154.564
141.09
188.908
163.196
154.743
167.165
141.328
162.64
188.528
170.244
197.101
157.674
170.432
144.607
171.1
1.03657
38.442
49.8325
59.5555
88.8688
59.9629
32.2562
37.1815
9.45906
47.2536
56.5534
85.92
33.9739
60.3456
0.833292
0.758791
0.821295
-0.74443
0.299381
0.818273
1.24724
0.79398
0.633665
0.826401
0.914207
0.856077
0.769127
0.83496
0.483537
0.461891
0.474241
0.445046
0.462623
0.444161
0.462454
0.356536
0.373067
0.349594
0.360529
0.343491
0.358854
0.375846
0.289108
0.307332
0.293761
0.290427
0.276441
0.276465
0.295332
0.235484
0.224481
0.226718
0.242732
0.226171
0.226235
0.242717
0.0966511
0.127679
0.116208
0.118526
0.0973823
0.0836258
0.113966
-1.31639
-1.2921
-1.332
-1.38421
-1.33627
-1.33678
-1.3851
-1.48849
-1.50925
-1.55736
-1.46864
-1.41895
-1.46629
-1.50721
-1.50608
-1.55037
-1.49233
-1.50327
-1.46891
-1.54891
-1.50873
-1.54081
-1.48496
-1.49875
-1.49694
-1.46286
-1.50049
-1.5392
-1.53329
-1.47823
-1.49332
-1.49226
-1.45853
-1.53539
-1.49682
-1.69443
-1.64759
-1.63028
-1.67243
-1.62837
-1.60818
-1.56774
-1.58994
-1.6304
-1.46472
-1.4025
-1.44531
-1.46664
-1.5095
-1.42788
-1.46772
-1.46626
-1.48667
-1.529
-1.44811
-1.4062
-1.44868
-1.48567
-1.62741
-1.58491
-1.63064
-1.62731
-1.66942
-1.69677
-1.65334
-1.83714
-1.79442
-1.79206
-1.72945
-1.77095
-1.75601
-1.795
-1.62602
-1.56282
-1.60346
-1.85863
-1.79671
-1.81739
-2.01867
-1.97586
-1.95739
-2.18238
-2.14139
-2.12263
-2.10329
-2.14002
-2.06054
-2.10114
-2.12811
-2.14153
-2.1859
-2.1148
-2.07005
-2.33857
-2.3046
-2.28644
-2.26215
-2.22408
-2.26409
-2.29884
-2.14158
-2.07633
-2.11291
-2.16134
-2.12461
-2.08393
-2.11835
-2.36028
-2.30636
-2.31592
-2.33306
-2.29215
-2.32194
-2.36506
-2.62963
-2.63797
-2.67591
-2.61625
-2.58174
-2.81175
-2.77962
-2.76197
-2.80944
-2.77948
-2.77384
-2.74581
-2.60223
-2.61988
-2.65626
-2.67204
-2.64946
-2.63306
-2.60926
-2.78443
-2.82016
-2.78183
-2.78904
-2.82393
-2.80426
-2.76875
-2.8929
-2.87389
-2.90408
-2.88993
-2.92537
-2.89448
-2.86418
-2.89037
-2.88176
-2.86013
-2.9021
-2.9386
-2.87628
-2.93522
-2.91179
-2.90888
-2.9098
-2.89074
-2.87254
-2.89352
-2.93699
-2.93364
-2.94118
-2.91285
-2.91609
-2.9252
-2.90558
-2.91279
-2.9056
-2.89182
-2.93542
-2.93507
-2.9412
-2.91807
-2.9195
-2.92735
-2.92986
-2.89768
-2.88745
-2.91162
-2.88561
-2.90004
-2.92269
-2.90159
-2.94174
-2.92791
-2.92273
-2.93879
-2.9238
-2.91312
-2.92887
-2.88864
-2.89498
-2.87254
-2.87428
-2.87025
-2.89644
-2.88606
-3.10229
-3.17668
-3.22785
-3.09625
-2.98734
-3.10266
-3.17985
-3.32642
-3.4713
-3.50971
-3.34337
-3.58431
-3.30294
-3.47692
-3.07924
-3.03702
-2.9878
-3.03822
-2.98703
-3.02429
-2.96984
-2.97381
-2.98431
-3.12837
-2.88242
-2.93659
-2.85198
-2.94353
-3.00046
-2.89464
-2.88255
-2.79399
-2.8013
-2.96435
-3.04795
-2.97137
-2.93385
-2.46718
-2.51734
-2.60607
-2.41151
-2.50784
-2.41824
-2.52409
-1.76574
-1.69265
-1.78391
-1.78962
-1.86522
-1.8145
-1.88513
-1.75998
-1.82925
-1.73084
-1.81407
-1.77094
-1.63475
-1.67954
-1.66678
-1.71181
-1.77799
-1.7344
-1.41404
-1.48744
-1.47127
-1.45862
-1.51184
-1.41567
-1.46863
-1.10553
-1.08424
-1.04117
-1.13148
-1.17652
-1.1297
-1.08897
-1.1331
-1.11496
-1.17782
-1.04713
-1.09043
-1.13136
-1.09067
-0.784975
-0.764585
-0.724657
-0.808984
-0.849166
-0.806746
-0.769165
-0.85802
-0.815066
-0.800879
-0.817956
-0.857742
-0.780258
-0.816576
-0.649817
-0.690849
-0.628531
-0.608725
-0.56999
-0.610716
-0.647931
-0.283896
-0.318219
-0.317348
-0.282515
-0.316179
-0.334894
-0.300357
-0.434873
-0.472688
-0.476855
-0.536588
-0.496881
-0.473723
-0.511438
-0.26848
-0.320707
-0.322633
-0.376389
-0.267459
-0.338692
-0.1166
-0.153806
-0.172049
-0.157243
-0.119934
-0.174695
-0.193812
-0.232007
-0.157129
-0.192771
0.025066
-0.0111966
-0.0288503
0.203299
0.940706
1.53773
0.553
0.573161
0.346327
0.687743
160.235
146.757
134.488
132.837
106.278
108.067
133.382
198.599
172.554
173.194
185.838
185.524
196.035
158.889
159.224
169.678
169.201
165.916
152.18
139.11
42.1547
54.5243
28.6793
5.63793
27.0432
24.2347
3.34794
41.4716
24.9403
0.800756
26.4395
53.0086
24.2781
8.14708
0.460105
0.482289
0.469199
0.432706
0.447811
0.465819
0.450058
0.460887
0.442016
0.468593
0.47887
0.458936
0.476276
0.492545
0.474327
0.492033
0.371901
0.383791
0.398786
0.374003
0.388659
0.391127
0.408131
0.384906
0.366742
0.389505
0.403333
0.381933
0.415543
0.391111
0.395101
0.417468
0.29584
0.272578
0.294023
0.301125
0.276658
0.290837
0.317728
0.285844
0.311794
0.190647
0.158908
0.182213
0.176931
0.145955
0.185959
0.152424
-1.16785
-1.21399
-1.15674
-1.2126
-1.17298
-1.17207
-1.13324
-1.17183
-1.21351
-1.15729
-1.21211
-1.17485
-1.17292
-1.13518
-1.20888
-1.14717
-1.16619
-1.14354
-1.10523
-1.14356
-1.18323
-1.34891
-1.30922
-1.30462
-1.26982
-1.31004
-1.28477
-1.2436
-1.13856
-1.09866
-1.14291
-1.13478
-1.09642
-1.3555
-1.31592
-1.31199
-1.31917
-1.35894
-1.08319
-1.13928
-1.08201
-1.11814
-1.15635
-1.37093
-1.31569
-1.29616
-1.33383
-1.3737
-1.46791
-1.53221
-1.48883
-1.62806
-1.69475
-1.65079
-1.56883
-1.60556
-1.40586
-1.44795
-1.4683
-1.48686
-1.45023
-1.44925
-1.41031
-1.81903
-1.77829
-1.80021
-1.73393
-1.77475
-1.73785
-1.7759
-1.72088
-1.68162
-1.6601
-1.68203
-1.71799
-1.67259
-1.63694
-2.04392
-2.00454
-1.9831
-1.91835
-1.95557
-1.96104
-1.99612
-2.38772
-2.43876
-2.38258
-2.36022
-2.40613
-2.33157
-2.37518
-2.75161
-2.78227
-2.75427
-2.80314
-2.8019
-2.77229
-2.76877
-2.92094
-2.91289
-2.90356
-2.9167
-2.93137
-2.91767
-2.9075
-2.91973
-2.91364
-2.90644
-2.92623
-2.939
-2.91365
-2.93974
-2.9342
-2.94048
-2.91837
-2.91886
-2.9221
-2.92201
-2.92864
-2.91214
-2.90868
-2.90741
-2.9779
-2.8668
-2.91117
-2.87287
-2.86856
-3.11735
-2.91694
-2.91533
-2.4334
-2.75454
-1.33601
-2.39076
-2.30705
-2.9448
-1.49509
-4.55714
-203.125
-107.448
-90.6883
-61.8157
-31.0168
72.5954
-3.12041
-4.2155
-5.64007
-4.94124
-5.56048
-6.49879
0.0235353
-3.90594
-6.41086
-5.43234
-4.46824
-4.9105
-5.62672
-5.2315
-2.95435
-3.04676
-2.90128
-2.86821
-2.7987
-2.36413
-2.73417
-2.42096
-2.57315
-2.67806
-3.34178
-3.12493
-2.35255
-2.69201
-2.91643
-2.8825
-2.90881
-2.91078
-2.87676
-2.88279
-2.92156
-2.82634
-2.82979
-2.80515
-2.78549
-2.78741
-2.81712
-2.81657
-2.79632
-2.79422
-2.71227
-2.69283
-2.74657
-2.77985
-2.7595
-2.71565
-2.7353
-2.65255
-2.58466
-2.60895
-2.60805
-2.55175
-2.60286
-2.54594
-2.34958
-2.40677
-2.36211
-2.36939
-2.31399
-2.35741
-2.29402
-1.86887
-1.8642
-1.80427
-1.83202
-1.88402
-1.85197
-1.79801
-1.30564
-1.34828
-1.28264
-1.26273
-1.22004
-1.26502
-1.30518
-1.07385
-1.11356
-1.11716
-1.11423
-1.15609
-1.18242
-1.13695
-0.93319
-0.895271
-0.955718
-0.957884
-0.994247
-0.971398
-0.935185
-0.9972
-0.961254
-1.01413
-0.957043
-0.914318
-0.954091
-0.955546
-0.993281
-1.01688
-0.834422
-0.792894
-0.790056
-0.793592
-0.753498
-0.72921
-0.769179
-0.795114
-0.858882
-0.816847
-0.591416
-0.630442
-0.634214
-0.669953
-0.630933
-0.695464
-0.654937
-0.647683
-0.628575
-0.688335
-0.605139
-0.56794
-0.608052
-0.64317
-0.628715
-0.568876
-0.608115
-0.470712
-0.412594
-0.451995
-0.470984
-0.452508
-0.413176
-0.489268
-0.52981
-0.489569
-0.451129
0.732189
0.635602
0.652388
0.637875
0.682368
0.685075
0.754137
0.62259
0.748358
1.72587
0.875205
0.806231
0.644199
0.654821
57.8899
46.9181
84.2331
30.7303
13.2423
34.2879
58.0737
47.4766
33.2806
59.2725
87.6559
62.2025
61.6332
87.2244
187.018
186.686
197.497
161.141
160.698
171.91
171.263
167.41
193.725
167.147
167.871
154.243
141.191
-0.842766
-0.888725
-0.835429
-0.849454
-0.890094
-0.815758
-0.853398
-0.85512
-0.897405
-0.844402
-0.859588
-0.89782
-0.825025
-0.861359
-0.902095
-0.848844
-0.861939
-0.863817
-0.829603
-0.864878
-0.901769
-0.841616
-0.858469
-0.898081
-0.824453
-0.785177
-0.822879
-0.858824
-1.03274
-0.99201
-0.9896
-0.931833
-0.970432
-0.955348
-0.993163
-0.99399
-1.05549
-1.01398
-1.00102
-1.055
-1.01533
-1.0171
-0.980493
-1.05416
-1.0175
-0.999135
-1.05356
-1.01182
-0.977881
-1.01536
-1.05323
-1.01562
-1.04897
-1.00441
-0.994508
-0.97238
-1.01103
-1.00899
-1.04876
-0.968982
-0.940216
-0.904414
-1.03086
-0.990813
-0.980507
-0.945436
-2.18058
-2.15679
-2.02691
-2.2106
-2.02572
-1.97528
-2.14099
-2.38925
-2.40785
-2.60089
-2.46744
-2.48064
-2.66362
-2.65963
-3.52896
-3.292
-3.26561
-3.16114
-3.05476
-3.96254
-4.31131
-4.02824
-4.77364
-4.74694
-4.62831
-4.63067
136.04
2.21955
50.211
42.289
5.81304
-8.13152
1.49078
-5.21797
-5.60322
-6.2638
-4.64361
-4.63609
-5.92505
-5.94408
-3.49556
-3.38909
-3.11443
-2.92703
-2.99414
-3.01307
-3.10479
-2.78152
-3.0497
-2.8961
-2.91782
-2.9612
-2.8981
-2.93864
-2.91907
-2.92142
-2.88829
-2.94876
-2.96697
-2.94951
-2.91622
-2.90145
-2.93453
-2.89099
-2.90664
-2.91096
-2.93507
-2.93915
-2.93352
-2.92096
-2.92302
-2.9132
-2.91439
-2.85705
-2.85079
-2.86353
-2.87121
-2.85918
-2.86794
-2.88109
-2.49113
-2.52626
-2.54399
-2.48626
-2.53162
-2.52021
-2.47611
-2.35161
-2.35788
-2.30478
-2.31364
-2.35866
-2.33932
-2.29384
-2.17032
-2.15983
-2.10829
-2.18141
-2.22451
-2.19716
-2.15133
-1.95763
-1.91234
-1.97078
-1.98108
-2.031
-1.96492
-2.01245
-1.93089
-1.97669
-1.99846
-1.96381
-1.94245
-1.99602
-1.96177
-1.92237
-1.95181
-1.44925
-1.42804
-1.38474
-1.50866
-1.46614
-1.46749
-1.42725
-1.34447
-1.28193
-1.30138
-1.4026
-1.44393
-1.44734
-1.48437
-1.44451
-1.51118
-1.46872
-1.21815
-1.27916
-1.25991
-1.28036
-1.22075
-1.34432
-1.09253
-1.11246
-1.0492
-1.13708
-1.17858
-1.11446
-1.09685
-1.0533
-1.095
-1.13463
-0.930976
-0.951896
-0.890449
-0.979972
-1.01946
-0.963902
-0.942106
-0.97909
-0.980807
-1.0198
-0.59236
-0.548785
-0.611517
-0.627021
-0.672281
-0.586932
-0.629441
0.383208
0.404922
0.362422
0.422822
0.442132
0.554753
0.51795
0.503941
0.486993
0.459273
0.48917
0.519104
0.499816
0.502319
0.511114
0.55861
0.525698
0.529276
0.513725
0.496667
0.514018
0.525183
0.488773
0.466182
0.530906
0.482688
0.742398
0.512589
0.44652
0.537973
0.533887
0.95056
0.835297
0.787714
0.70166
0.748638
0.781233
0.897147
-0.609317
-0.0341696
2.36088
1.25436
1.06751
-0.29805
-0.314617
153.801
166.411
140.449
193.026
166.983
158.743
145.397
171.165
192.546
166.732
157.554
169.781
197.127
144.108
171.574
171.194
192.302
192.067
202.843
166.102
166.011
176.693
176.794
176.813
202.66
176.757
-0.550928
-0.517128
-0.554367
-0.571664
-0.608279
-0.586147
-0.551207
-0.549207
-0.531329
-0.496965
-0.628117
-0.665331
-0.678542
-0.663022
-0.625542
-0.694714
-0.655551
-0.336228
-0.315721
-0.312545
-0.284197
-0.263027
-0.271536
-0.295577
-0.452226
-0.464643
-0.420068
-0.407195
-0.448963
-0.440425
-0.399189
-2.04907
-1.88701
-1.69683
-1.58866
-1.43162
-1.52437
-1.85156
-2.64449
-2.76079
-3.15476
-3.08623
-3.02626
-4.00833
-3.40934
-4.85485
-5.14352
-4.83632
-6.7986
-5.76983
-4.25573
-5.3441
-4.4029
-5.06101
-5.00976
-4.67979
-4.95246
-4.87238
-5.17089
-2.93774
-2.83433
-3.04065
-2.71141
-2.79719
-3.05497
-2.97771
-2.94032
-2.90904
-2.9512
-2.91272
-2.87602
-2.96331
-3.02295
-2.94408
-2.92258
-2.77473
-2.76684
-2.77703
-2.89012
-2.80838
-2.73694
-2.76288
-2.8687
-2.85214
-2.84214
-2.84929
-2.84802
-2.83972
-2.86214
-2.90843
-2.89763
-2.91707
-2.91397
-2.93502
-2.90976
-2.93586
-2.91633
-2.9217
-2.9031
-2.92145
-2.94108
-2.92583
-2.92465
-2.91053
-2.93788
-2.90252
-2.92174
-2.92275
-2.93532
-2.93831
-2.93044
-2.91496
-2.91765
-2.90773
-2.91018
-2.71666
-2.69288
-2.67393
-2.70028
-2.67678
-2.6246
-2.65018
-2.64236
-2.6662
-2.1727
-2.22304
-2.21331
-2.19851
-2.24079
-2.20998
-2.17013
-2.05296
-2.01254
-2.06872
-2.01459
-2.0512
-2.04781
-2.08528
-1.88171
-1.92189
-1.92605
-1.96152
-1.92113
-1.9875
-1.94725
-1.80713
-1.76642
-1.76295
-1.72688
-1.76785
-1.74474
-1.70431
-1.83167
-1.76899
-1.791
-1.60803
-1.54703
-1.61178
-1.58799
-1.62962
-1.67001
-1.42262
-1.44206
-1.3814
-1.35331
-1.3113
-1.29487
-1.35565
-1.31296
-1.27496
-1.31552
-0.571619
-0.536443
-0.502487
-0.494736
-0.526573
-0.44566
-0.477959
-0.314708
-0.343483
-0.376476
-0.353021
-0.381982
-0.431321
-0.399332
-0.284772
-0.309762
-0.286019
-0.226607
-0.243794
-0.261154
-0.237781
-0.0907895
-0.146779
-0.134143
-0.146893
-0.196396
-0.112667
-0.157894
0.181696
0.15487
0.201119
0.135971
0.11603
0.153212
0.173074
0.218269
0.235084
0.201164
0.273841
0.258849
0.234675
0.250622
0.189883
0.229005
0.192357
0.195399
0.157805
0.355765
0.342637
0.35866
0.392519
0.375889
0.371485
0.388525
0.438409
0.427004
0.474095
0.43153
0.415143
0.468298
0.444955
0.437753
0.440029
0.470804
0.452763
0.431426
0.446436
0.466926
158.946
145.701
171.746
194.169
167.711
159.946
173.205
146.846
194.22
167.887
161.062
174.087
200.553
147.887
174.394
174.178
191.61
191.807
202.097
164.957
165.315
175.199
175.835
177.246
203.816
177.624
-0.180238
-0.132246
-0.145671
-0.118899
-0.0858767
-0.149554
-0.116567
-0.280068
-0.247929
-0.283239
-0.312722
-0.280234
-0.333326
-0.299637
-0.415334
-0.412579
-0.449627
-0.362092
-0.395617
-0.382638
-0.41561
-0.278239
-0.261565
-0.229034
-0.469692
-0.434544
-0.417504
-0.467763
-0.430007
-0.419154
-0.402394
-0.434547
-0.43405
-0.468246
-0.379326
-0.35087
-0.401077
-0.421535
-0.454052
-0.389128
-0.419426
-0.353218
-0.382948
-4.40986
-4.45289
-4.92556
-5.17165
-5.15916
-4.68975
-4.649
-4.30927
-3.95531
-3.96647
-4.05704
-3.78382
-3.96304
-3.69207
-2.75947
-2.72619
-2.74533
-2.74135
-2.77888
-2.77055
-2.74092
-2.90342
-2.8951
-2.92138
-2.81294
-2.77877
-2.80716
-2.8207
-2.78982
-2.77483
-2.80165
-2.9042
-2.92671
-2.89816
-2.8864
-2.86806
-2.90467
-2.92864
-2.91073
-2.8883
-2.91554
-2.93851
-2.91677
-2.9365
-2.92829
-2.92662
-2.91153
-2.9117
-2.90067
-2.90288
-2.91176
-2.8966
-2.88303
-2.9062
-2.93475
-2.89091
-2.88017
-2.91003
-2.90629
-2.92633
-2.89971
-2.89203
-2.92792
-2.89711
-2.87686
-2.9059
-2.51944
-2.5549
-2.51288
-2.52902
-2.49643
-2.52154
-2.55712
-2.21515
-2.15943
-2.20792
-2.19691
-2.23394
-2.27482
-2.07456
-2.02038
-2.07632
-2.09196
-2.12736
-2.05519
-2.09419
-2.13117
-1.89714
-1.91982
-1.86015
-1.79977
-1.85557
-1.81268
-1.78266
-1.82335
-1.85726
-1.81434
-1.80941
-1.84384
-1.78603
-1.79656
-1.76601
-1.83947
-1.80291
-1.60585
-1.64427
-1.62398
-1.6808
-1.63895
-1.68185
-1.64107
-1.63623
-1.64703
-1.61332
-1.65901
-1.69631
-1.69218
-1.65544
-1.51973
-1.4736
-1.45352
-1.38823
-1.43441
-1.47452
-1.43196
-1.54625
-1.49779
-1.4859
-1.5497
-1.50208
-1.46276
-1.50701
-1.09766
-1.02368
-1.06645
-1.16755
-1.12131
-1.07058
-1.11163
-0.985275
-1.02604
-1.05728
-1.08735
-1.04654
-0.993031
-1.03452
-0.820627
-0.85958
-0.89338
-0.867298
-0.905209
-0.964187
-0.918589
-0.854066
-0.798335
-0.868211
-0.876887
-0.942295
-0.637865
-0.608277
-0.555573
-0.480669
-0.501325
-0.624439
-0.595246
-0.546372
-0.522954
-0.624113
-0.572267
-0.633446
-0.626372
-0.690441
-0.667927
-0.614885
-0.648067
-0.704993
-0.319023
-0.30668
-0.289569
-0.227168
-0.232285
-0.248612
-0.261257
-0.0883967
-0.0638465
-0.0987595
-0.0164507
-0.0208756
-0.0486461
-0.0425756
0.00650965
-0.0300733
0.0184622
-0.066632
-0.0517403
-0.0084599
-0.0209736
0.164992
0.136437
0.177446
0.117597
0.105599
0.153537
0.140509
0.179313
0.21469
0.189601
0.219473
0.185641
0.22586
0.193325
0.485901
0.504149
0.476267
0.504708
0.490051
0.486201
0.467872
158.256
145.275
171.775
189.841
163.257
155.653
142.568
169.349
190.175
163.54
158.322
172.109
197.649
145.382
170.642
171.208
172.748
199.517
173.135
186.321
160.629
152.259
138.768
165.476
160.024
186.401
139.427
113.397
152.097
164.365
191.375
139.24
165.576
164.917
43.6008
7.11171
26.7434
56.0055
30.302
5.99887
28.9221
39.7569
52.2409
21.7949
3.85088
18.2353
22.6161
8.22262
0.903116
0.723253
-0.392622
0.803731
0.234497
-3.30888
0.647227
0.133777
0.904695
0.551434
0.589025
0.630118
0.555211
0.64963
0.652836
0.549547
0.530815
0.590754
0.454303
0.44977
0.423059
0.466078
0.475127
0.46696
0.448684
0.356114
0.39128
0.347072
0.360839
0.330012
0.333877
0.30337
0.103221
0.0588253
0.0853048
0.119241
0.0952473
0.0614824
0.0876437
0.110921
0.140879
0.0981758
0.0846686
0.0537067
0.0822255
0.112323
-0.0381914
-0.0715631
-0.0252345
-0.00842999
-0.0399304
-0.0110399
0.0198176
-0.0795274
-0.0335619
-0.0464117
-0.0307461
-0.00148085
-0.0603324
-0.0306933
-0.0483311
-0.0786515
-0.0268555
0.0176757
-0.011757
-0.187822
-0.156169
-0.150892
-0.156446
-0.125899
-0.134875
-0.104304
-0.205399
-0.172255
-0.157872
-0.174149
-0.205493
-0.0405689
-0.0266741
-0.0723558
-0.012402
0.017958
-0.0115583
-0.0418558
0.207746
0.166774
0.198059
0.220546
0.192073
0.165139
0.194997
0.260667
0.221494
0.237159
0.204837
0.178474
0.232497
0.207229
0.589765
0.505065
0.528053
0.508141
0.519402
0.505563
0.519208
43.748
57.1845
82.9072
1.13109
2.14495
2.55279
0.953162
0.46337
2.11177
1.67638
1.58069
0.564254
0.954353
1.07458
21.3134
38.6628
47.9469
80.8276
47.5108
21.1656
0.414787
0.45001
0.459501
0.451366
0.416469
0.441092
0.470741
0.459448
0.459395
0.415472
0.508058
0.475115
0.471359
0.450037
0.359309
0.347034
0.375931
0.394511
0.371384
0.371572
0.399715
-0.0610916
-0.0174509
-0.0341102
-0.031321
0.00738177
0.00167263
-0.0381516
0.129513
0.0958348
0.10693
0.110079
0.0767893
0.0727669
0.10435
-0.0411377
0.00427042
-0.0243275
-0.0119249
-0.0581441
-0.0212837
0.0238378
-0.0332641
0.00983212
0.0857711
0.069286
0.08819
0.122365
0.108237
0.102075
0.115307
0.897278
0.800304
1.0347
0.718885
0.683028
0.779045
0.848868
0.931973
1.10458
0.882525
0.742724
0.725923
0.811695
0.772524
1.35013
1.3542
1.86506
1.35054
1.23561
1.47301
1.24171
1.08819
1.22443
1.38748
0.709455
0.855741
1.50518
1.79925
1.24916
1.67462
1.22328
0.960202
0.481109
-3.75285
-3.94032
-3.52485
-3.36617
-3.84693
-3.80616
-3.40678
-3.03555
-3.32628
-3.2608
-2.73295
-2.73372
-2.48337
-2.48231
-2.41779
-2.4583
-2.52607
-2.49021
-2.42626
-2.55853
-2.50832
-2.50369
-2.48148
-2.53154
-2.54956
-2.50298
-2.63957
-2.64288
-2.59807
-2.61814
-2.62625
-2.5876
-2.58176
-2.63005
-2.59126
-2.59413
-2.58497
-2.62119
-2.63737
-2.60155
-2.67283
-2.63116
-2.66708
-2.6771
-2.71218
-2.76806
-2.723
-2.75656
-2.7796
-2.74778
-2.72321
-2.75495
-2.86572
-2.8946
-2.88227
-2.83831
-2.86825
-2.86816
-2.83977
-2.93727
-2.90917
-2.9074
-2.88321
-2.84026
-2.8707
-2.91972
-2.89056
-2.90577
-2.87564
-2.85374
-2.88478
-2.92239
-2.92171
-2.93567
-2.90592
-2.89117
-2.83858
-2.8683
-2.88531
-2.90282
-2.93672
-2.9054
-2.90693
-2.70487
-2.75811
-2.73819
-2.73355
-2.76794
-2.73716
-2.7059
-2.75558
-2.7888
-2.75174
-2.75518
-2.71942
-2.73583
-2.70242
-2.75735
-2.80889
-2.7756
-2.62311
-2.57184
-2.62635
-2.60749
-2.64195
-2.67616
-2.54631
-2.51176
-2.4979
-2.44714
-2.48301
-2.54886
-2.51483
-2.48108
-2.51324
-2.48071
-2.44467
-2.49622
-2.50998
-2.54384
-2.47873
-2.51117
-2.07372
-2.12435
-2.13459
-2.18978
-2.14828
-2.11663
-2.16014
-2.08987
-2.10943
-2.11961
-2.16626
-2.13645
-2.16109
-2.12913
-2.06847
-2.01607
-2.01422
-1.99902
-2.04642
-2.02537
-2.0742
-1.90719
-1.97312
-1.93984
-2.03456
-2.0032
-1.81703
-1.80046
-1.84343
-1.87209
-1.82492
-1.83264
-1.87809
-1.84569
-1.85027
-1.81964
-1.87804
-1.91032
-1.90115
-1.86773
-1.72162
-1.67133
-1.6523
-1.58332
-1.63374
-1.62799
-1.67448
-1.72282
-1.79823
-1.7317
-1.71365
-1.64326
-1.68714
-1.64458
-1.60136
-1.70981
-1.75723
-1.69352
-1.65299
-1.49576
-1.4744
-1.52444
-1.56141
-1.50832
-1.5157
-1.56724
-1.54397
-1.63202
-1.55093
-1.51692
-1.57568
-1.6386
-1.56529
-1.37026
-1.30628
-1.26521
-1.16657
-1.21683
-1.22877
-1.2788
-1.31327
-1.37476
-1.32211
-1.27387
-1.31411
-1.39148
-1.31632
-1.32398
-1.38587
-0.917636
-1.03937
-0.985918
-0.834783
-0.805827
-0.9926
-1.02608
-1.05725
-1.01245
-1.10624
-1.11519
-1.03936