/*--------------------------------*- C++ -*----------------------------------*\
| =========                 |                                                 |
| \\      /  F ield         | OpenFOAM: The Open Source CFD Toolbox           |
|  \\    /   O peration     | Version:  v2012                                 |
|   \\  /    A nd           | Website:  www.openfoam.com                      |
|    \\/     M anipulation  |                                                 |
\*---------------------------------------------------------------------------*/
FoamFile
{
    version     2.0;
    format      ascii;
    class       volScalarField;
    location    "0.05";
    object      p_rgh;
}
// * * * * * * * * * * * * * * * * * * * * * * * * * * * * * * * * * * * * * //

dimensions      [1 -1 -2 0 0 0 0];


internalField   nonuniform List<scalar> 
6576
(
2575.19
2517.21
2530.24
2550.91
2589.75
2611.29
2544.67
2542.44
2595.25
2569.17
2671.55
2633.63
2599.71
2627.75
2529.37
2553.37
2460.7
2533.04
2533.93
2656.09
2495.37
2644.36
2651.36
2526.42
2608.77
2681.32
2821.93
2594.8
2512.57
2510.64
2569.69
2455.65
2563.4
2622.19
2604.7
2662.06
2603.3
2668.71
2566.37
2618.94
2536.22
2498.03
2577.47
199.413
158.007
193.16
89.2916
198.282
197.635
199.864
200.087
198.63
0.0049677
0.00261169
0.00151445
0.00737832
0.00301873
8.64071e-05
0.00532513
0.00461442
0.00729016
0.00930763
0.011384
0.00606008
0.00241838
0.00885244
0.0268776
0.0208384
0.0204678
0.019481
0.0220568
0.0128074
0.0201994
1.36592
1.36411
1.3975
1.38366
1.38135
1.41007
1.41481
1.27783
1.26533
1.25795
1.3031
1.3046
1.28907
1.28728
0.854775
0.878615
0.901349
0.887011
0.871943
0.869955
0.793763
201.924
201.922
203.264
151.797
198.184
201.259
198.39
202.044
201.745
202.026
202.02
202.105
202.195
202.176
200.474
200.405
200.515
200.293
200.813
200.233
-0.000893455
-0.00634433
0.0198387
0.0316869
-0.0843098
0.0533236
-0.0260512
1684.34
2501.42
2203.42
2544.89
2565.6
2709.78
2810.25
0.0552432
-0.0614942
-0.0643617
-0.553775
-0.109413
-0.800752
-0.210418
0.540855
0.545699
0.528539
0.554812
0.570805
0.565716
0.547386
0.422355
0.435419
0.450826
0.434668
0.469879
0.47133
0.441702
0.295063
0.307101
0.273418
0.360218
0.337512
0.313422
0.330565
0.269929
0.224434
0.266287
0.279832
0.231768
0.266186
0.317293
0.252742
0.305268
0.136618
0.107206
0.119158
0.197223
0.185035
0.155078
0.162491
0.0545688
0.00516445
0.0280237
0.0791567
0.0275087
0.0614273
-0.0157288
0.0340522
0.0976039
-0.419629
-0.452842
-0.52424
-0.447796
-0.493661
-0.621578
-0.567
-0.517866
-0.568963
-0.437227
-0.423387
-0.394625
-0.386919
-0.434587
-0.372859
-0.424436
-0.589556
-0.518598
-0.547501
-0.625228
-0.629365
-0.537999
-0.557279
-0.508117
-0.543441
-0.490266
-0.523418
-0.448496
-0.50302
-0.561774
-0.0434973
0.167453
0.0164317
0.0339566
0.0479133
0.0641648
0.179505
-0.175533
-0.174907
-0.212325
-0.183085
-0.158002
-0.171312
-0.201713
-0.18486
-0.194808
-0.223722
-0.21302
-0.204342
-0.244734
-0.247678
-0.277924
-0.266756
-0.223729
-0.300193
-0.34584
-0.308837
-0.271451
-0.078782
-0.12478
-0.0921382
-0.144396
-0.129454
-0.107024
-0.0923749
0.0423888
0.0844874
0.0878957
0.00590839
0.000467656
0.0278971
0.0215749
0.064636
0.0670221
0.210176
0.251897
0.243252
0.201
0.193515
0.233148
0.226547
0.464462
0.458937
0.47401
0.490602
0.475322
0.472189
0.485821
208.345
207.574
208.332
208.7
207.84
208.987
209.936
208.02
209.315
206.602
211.772
210.095
206.723
204.457
200.354
128.723
0.91005
1.04346
1.02802
0.943307
0.979507
1.04632
1.11226
1.1518
1.15784
212.602
208.349
211.126
0.648009
-0.566644
1.23202
0.488823
-0.00451119
-0.890524
-1.76547
0.900277
0.923228
0.905475
0.909161
0.891002
0.890142
0.906976
2.8797
2.64359
2.54592
2.87665
2.64395
2.9555
2.45898
2.58857
2.90389
1.04218
1.05588
1.0451
1.02708
1.01591
1.0352
1.02413
0.740002
0.833623
0.788672
0.88361
0.834063
0.801627
0.879478
0.591749
1.02799
0.612771
1.40737
1.30285
0.894251
1.13443
0.884465
0.956553
0.757466
0.719547
0.831022
0.5846
0.768573
0.606346
0.539762
0.67245
0.325104
205.862
206.338
206.121
205.88
206.036
206.127
206.255
209.158
208.045
208.329
207.132
207.299
206.843
206.562
207.996
209.768
213.563
220.222
211.264
207.93
208.533
209.666
209.568
2.39883
2.39955
1.86043
0.510941
1.06978
1.58738
4.59544
1.07928
1.0853
1.06853
1.10145
1.09166
1.09634
1.08672
1.07524
1.08512
1.18232
1.20943
1.19978
1.20771
1.19036
1.19959
1.17957
1.34331
1.32399
1.29942
1.35693
1.31884
1.35108
1.31634
1.30714
1.34396
1.98126
1.89341
1.97623
2.13674
1.97061
1.91094
2.02076
2.07224
2.10999
2.22665
2.01389
1.95998
2.01932
2.07958
0.119909
0.0959828
0.0978092
0.131364
0.134207
0.107672
0.106224
0.129695
0.107487
0.122125
0.120793
0.137598
0.137792
0.120232
0.195358
0.181809
0.174422
0.197932
0.202703
0.187705
0.179766
0.226913
0.214517
0.234773
0.233593
0.223604
0.246649
0.258117
0.239974
0.249222
0.187045
0.174644
0.19134
0.192899
0.197941
0.178
0.188138
0.152996
0.175396
0.158316
0.154023
0.140031
0.165424
0.15365
0.148717
0.14508
0.133394
0.157447
0.170196
0.15815
0.148639
0.0614885
0.0671268
0.0796148
0.0607571
0.0481138
0.0614891
0.0758097
0.115726
0.10577
0.102337
0.105242
0.0921121
0.0867402
0.0997933
0.0398627
0.0608762
0.0541402
0.111985
0.106079
0.129233
0.00860855
0.0189039
0.0153386
0.0175974
0.00792212
0.0141804
0.0200363
0.0173413
0.0151061
0.00422484
0.0368251
0.0248083
0.0259343
0.0181794
0.0110327
0.00150378
0.0201537
0.0183487
0.0313785
0.0239108
0.0074176
0.0144373
0.0112417
0.019467
0.0265133
0.017571
0.00242294
0.00756742
0.00934049
0.00894295
0.0141102
0.0184915
0.0313451
0.0203295
0.0116719
0.00903522
0.00530794
0.00231474
0.0144251
0.0168491
0.0109078
0.0122028
0.047555
0.0619158
0.0655306
0.0408164
0.0388909
0.0479184
0.04461
0.056226
0.0584811
0.0513474
0.0535612
0.0436548
0.0280857
0.0289184
0.0326627
0.0356487
-0.014142
-0.00472018
0.0177053
-0.0152645
-0.0300209
-0.0147402
0.00301381
0.0303139
0.0222279
0.0395963
-0.00859512
-0.0030303
0.0125266
0.00573232
0.0491538
0.0664978
0.0188155
0.0318683
0.0682385
-0.0491691
-0.0473575
-0.0750413
-0.129108
-0.11208
-0.110384
-0.0949301
-0.0797015
-0.117947
-0.165607
-0.21845
-0.248315
-0.185223
-0.159298
-0.76256
-0.858862
-0.951634
-1.10603
-1.28879
-1.05608
-0.925895
0.606637
0.575168
0.459077
0.715049
0.624034
0.573355
0.691842
0.701073
0.647129
0.735325
0.754598
0.69293
0.750338
0.684806
0.664018
0.740672
0.934015
0.919592
0.864769
0.886337
0.890909
0.836041
0.837214
0.885844
0.869523
0.87154
0.872244
0.855333
0.860726
0.875888
0.832466
0.826001
0.846772
0.842642
0.839049
0.859343
0.854015
0.838273
0.824149
0.821749
0.8044
0.820486
0.827465
0.81407
0.901617
0.894183
0.909139
0.909505
0.903702
0.92047
0.913721
0.940918
0.944878
0.93582
0.930997
0.923875
0.943198
0.939244
0.937087
0.931872
0.92061
0.929724
0.932081
0.939115
0.932585
0.932459
0.9259
0.928205
0.921385
0.962786
0.967662
0.959648
0.960434
0.955113
0.959072
0.963115
0.954058
0.958268
0.951783
0.960685
0.966976
0.960832
0.959823
0.954687
0.949883
0.996584
0.995954
0.994875
0.991412
0.980599
0.986572
1.19485
1.32143
1.38303
1.16098
1.0975
0.872339
1.00109
1.04057
0.504494
0.728929
1.00172
1.16434
1.38073
1.39264
1.13951
0.879327
1.26102
1.64278
3.93103
7.06853
0.640514
1.06411
0.787234
1.83578
0.769634
0.364762
0.537949
4.80828
1.88866
1.15217
0.686148
1.11502
207.612
204.33
204.97
201.419
116.609
197.274
206.327
205.849
205.429
206.562
204.956
205.328
205.689
205.925
206.25
205.941
206.071
206.395
206.395
206.292
206.442
206.209
205.719
206.181
206.105
206.358
206.377
206.452
206.66
208.178
207.648
207.96
208.025
208.21
208.28
207.804
207.943
208.3
205.967
205.957
206.069
206.42
205.907
206.648
206.803
205.965
205.92
205.427
206.114
206.689
206.078
205.663
206.11
205.767
205.288
207.856
209.784
208.383
207.667
208.029
209.674
208.804
198
211.814
153.938
210.365
206.832
199.497
208.199
205.75
182.612
209.226
205.508
207.112
201.066
208.402
1.28583
1.33043
1.26787
1.28328
1.26911
1.27143
1.25102
1.09005
1.09077
1.08171
1.07905
1.03044
1.06561
1.07504
1.1049
1.09913
1.10936
1.1025
1.11423
1.12965
1.10356
1.08519
1.07965
1.08263
1.06727
1.05295
1.07496
1.06616
1.07951
1.08292
1.09043
1.09515
1.0868
1.08525
1.07953
1.08596
1.08232
1.09216
1.08768
1.20221
1.18793
1.19992
1.21098
1.19705
1.21753
1.20004
0.427641
0.417243
0.463959
0.35978
0.402457
0.429063
0.398833
0.421499
0.462007
0.379089
0.38299
0.417152
0.360348
0.318301
0.227265
0.204677
0.265953
0.325398
0.302159
0.316014
0.303539
0.287176
0.32577
0.346353
0.322116
0.311593
0.312457
0.329574
0.325022
0.330862
0.340237
0.321903
0.312273
0.365687
0.379842
0.354546
0.364272
0.352987
0.335777
0.349999
0.305095
0.327739
0.312822
0.305462
0.289651
0.316575
0.305684
0.307106
0.299001
0.280964
0.327327
0.312506
0.312424
0.300367
0.230567
0.2568
0.254595
0.253327
0.274955
0.268646
0.257402
0.24667
0.275439
0.254293
0.250263
0.261044
0.270726
0.201015
0.178715
0.200405
0.205762
0.219471
0.190757
0.220865
0.20628
0.149447
0.154902
0.137374
0.14818
0.137858
0.16259
0.12009
0.131652
0.147284
0.138088
0.0393478
0.0486865
0.0523032
0.061194
0.0723838
0.0604287
0.0540701
0.0491407
0.0463081
0.0356
0.0527995
0.0648459
0.0547298
0.0458331
0.0171034
0.0125817
0.0219682
0.047603
0.0391368
0.0553833
0.0292244
0.03659
0.045981
0.0414509
0.0145436
0.00815479
0.00133148
0.0153463
0.0113993
0.0106271
0.00933957
0.000623482
0.010477
-0.00295949
0.00183306
0.00313835
-0.00340663
-0.00487397
-0.00340023
0.00528965
0.00298381
-0.00105982
0.00959759
-0.00315932
0.00108126
-0.00653866
-0.00279319
0.00317043
-0.0123573
-0.0123443
-0.00315528
-0.00920157
-0.0103225
-0.013365
-0.0134112
-0.00417157
-0.00940463
-0.0144819
-0.0129698
-0.0622282
-0.0536763
-0.0482477
-0.0498927
-0.0386295
-0.0411909
-0.051855
-0.267708
-0.265279
-0.230186
-0.33344
-0.286553
-0.297371
-0.260684
-0.501846
-0.417206
-0.482079
-0.513926
-0.580867
-0.642506
-0.734131
-0.740311
-0.808343
-0.714105
-0.754969
-0.676284
-1.04521
-1.12621
-1.43811
-0.844037
-0.798845
-0.959365
-0.871754
-1.05171
-1.22714
-1.20646
-0.904093
-0.964648
-1.12725
-0.86656
-0.977984
-0.769026
-0.806604
-1.0408
0.44818
0.44149
0.480283
0.495162
0.461494
0.463927
0.502572
0.559209
0.523855
0.585092
0.601524
0.624282
0.58659
0.564809
0.685007
0.697516
0.657818
0.667099
0.681001
0.614088
0.636325
0.649502
0.631704
0.70578
0.69992
0.728089
0.673948
0.697642
0.710761
0.690185
0.833393
0.823827
0.823064
0.813175
0.823544
0.805539
0.818281
0.860997
0.867129
0.875177
0.861024
0.853728
0.852036
0.858532
0.858811
0.86558
0.848675
0.861347
0.869966
0.861647
0.860438
0.85325
0.847771
0.890675
0.900472
0.900589
0.900087
0.908804
0.905232
0.914885
0.884425
0.900126
0.89513
0.933744
0.944936
0.93759
0.960481
0.97204
0.963894
0.748089
0.937294
0.840431
0.765787
0.584643
0.647765
0.809416
207.37
208.173
208.461
206.386
206.01
207.207
204.769
204.873
206.845
205.73
206.16
207.089
206.433
204.735
204.468
204.625
204.406
204.739
204.579
205.028
204.866
204.489
204.152
203.798
204.362
203.792
203.076
203.515
203.806
203.418
205.279
205.859
205.847
205.467
205.919
206.135
147.51
199.8
206.709
204.067
206.987
204.478
200.362
202.321
170.581
204.296
201.069
204.079
193.333
204.085
1.11809
1.13529
1.09253
-0.220444
1.19145
4.53326
3.66585
1.18949
1.04656
1.19721
1.26936
1.18504
1.15059
1.19011
1.15796
1.16259
1.1618
1.17202
1.16332
1.17113
1.16315
1.23241
1.22266
1.2386
1.2364
1.24564
1.23472
1.22544
1.27446
1.26641
1.29225
1.30206
1.31435
1.2881
1.28069
1.35222
1.36749
1.33032
1.33319
1.34291
1.31669
1.3069
1.29221
1.29697
1.32491
1.34037
1.3455
1.30547
1.30953
0.527323
0.538471
0.524846
0.498917
0.52058
0.520068
0.498027
0.455949
0.448335
0.4265
0.462668
0.486076
0.46501
0.450374
0.455878
0.437872
0.456493
0.458695
0.466773
0.439324
0.453233
0.44743
0.463865
0.463217
0.465022
0.472824
0.461468
0.449041
0.454954
0.470596
0.468642
0.469704
0.477158
0.452849
0.465145
0.394543
0.415097
0.419276
0.4034
0.421181
0.428231
0.442396
0.433338
0.419157
0.477976
0.500778
0.484242
0.47868
0.462099
0.491163
0.477602
0.47819
0.470915
0.454859
0.483196
0.498827
0.482631
0.471918
0.421272
0.437488
0.420666
0.421372
0.405538
0.393952
0.411103
0.344678
0.361114
0.360848
0.384046
0.368823
0.373252
0.360541
0.420911
0.444691
0.43033
0.338075
0.360581
0.353039
0.283145
0.299681
0.305011
0.22192
0.236627
0.242246
0.248447
0.238
0.264919
0.250602
0.236768
0.236491
0.218394
0.236938
0.255411
0.170838
0.17853
0.183549
0.194701
0.206491
0.192757
0.184291
0.21892
0.244755
0.234454
0.212296
0.22275
0.237154
0.229004
0.153504
0.168008
0.171582
0.154441
0.169075
0.165571
0.148719
0.0505761
0.0553829
0.043715
0.0508208
0.059051
0.0173697
0.0232178
0.027732
0.0196833
0.0233592
0.0290044
0.0307514
0.0341729
0.0428064
0.0195668
0.016926
0.0132261
0.0296281
0.027141
0.0184115
0.00896494
0.0078691
0.0138023
0.00519181
-0.00142316
0.00781467
0.000164371
0.00603504
0.00213261
0.00342953
-0.00572621
-0.00550098
0.00289724
0.00299005
-0.00592234
-0.0105736
0.00585851
-0.00435511
0.00540379
-0.0106137
-0.0134705
-0.0191978
-0.0114753
-0.0186981
-0.0222772
-0.0169786
-0.00901232
-0.00565391
-0.00268473
-0.0111514
-0.014389
-0.0129851
-0.019648
-0.00658807
-0.0125314
-0.0118929
-0.00907107
-0.00871878
-0.00433443
-0.0180033
-0.0194291
-0.01677
-0.0192776
-0.0247684
-0.0408209
-0.0255697
-0.0389827
-0.027128
-0.0234914
-0.0286838
-0.0177208
-0.0301795
-0.0293762
-0.0147734
-0.0260646
-0.0329105
-0.0223771
-0.0858353
-0.0658813
-0.0828643
-0.0714611
-0.0937168
-0.0673393
-0.0832449
-0.632056
-0.719548
-0.797016
-0.611912
-0.47771
-0.619007
-0.720593
-0.944045
-1.10207
-1.15362
-0.934209
-1.20194
-0.892747
-1.09187
-0.591797
-0.562707
-0.474073
-0.577039
-0.499572
-0.536834
-0.456108
-0.754422
-0.725507
-0.882706
-0.610481
-0.638376
-0.606318
-0.671591
-0.754801
-0.675249
-0.727912
-0.678764
-0.659798
-0.770297
-0.88018
-0.829878
-0.76608
-0.356338
-0.367084
-0.46895
-0.274383
-0.344443
-0.307389
-0.38697
0.166501
0.21331
0.161465
0.168895
0.119573
0.144014
0.0996606
0.172254
0.129266
0.213596
0.16978
0.186635
0.270272
0.251757
0.251382
0.23263
0.192722
0.210041
0.381504
0.34751
0.350544
0.363195
0.336248
0.379868
0.353189
0.523591
0.531745
0.548543
0.51078
0.492022
0.512563
0.527023
0.509161
0.514166
0.490719
0.542586
0.525564
0.510903
0.525317
0.633941
0.641193
0.654844
0.62307
0.609164
0.625308
0.636613
0.60469
0.621368
0.622417
0.618478
0.604969
0.629899
0.619858
0.677133
0.662376
0.68528
0.691948
0.704407
0.689957
0.679019
0.790144
0.782097
0.783907
0.791524
0.784137
0.779499
0.787759
0.746681
0.735142
0.733602
0.713284
0.726714
0.734107
0.722668
0.794768
0.781955
0.780029
0.765688
0.795789
0.777108
0.839854
0.828924
0.823819
0.828114
0.839148
0.823801
0.817822
0.805903
0.828228
0.818863
0.876415
0.866428
0.861913
0.460809
1.20368
5.35054
0.829113
1.17201
1.72939
7.94728
204.028
203.688
204.558
202.907
202.624
204.413
203.452
203.854
204.085
204.726
202.48
202.165
202.166
201.807
202.141
202.085
201.609
202.702
202.105
202.173
202.455
203.422
200.307
199.778
201.833
199.408
72.6262
201.956
200.115
192.024
192.942
201.907
199.452
77.0546
1.14329
1.12605
1.13924
1.1553
1.14413
1.13586
1.14638
1.15627
1.16367
1.15083
1.14797
1.15432
1.14538
1.13537
1.14343
1.13486
1.20398
1.18959
1.19145
1.20608
1.19446
1.19693
1.18766
1.18539
1.1935
1.17685
1.17754
1.18242
1.16347
1.16532
1.16931
1.1654
1.20237
1.20538
1.18741
1.19451
1.19632
1.17109
1.1717
1.17923
1.17891
1.20666
1.20119
1.18509
1.19294
1.18824
1.17569
1.16843
0.583901
0.564032
0.581875
0.565426
0.578764
0.579677
0.592237
0.579922
0.564519
0.581317
0.565919
0.576898
0.578828
0.59029
0.566469
0.588766
0.582888
0.589473
0.601505
0.589455
0.576058
0.517923
0.531332
0.533012
0.544456
0.530521
0.539732
0.554625
0.588375
0.601998
0.588406
0.592152
0.604241
0.51742
0.53072
0.530267
0.527471
0.513972
0.607252
0.590573
0.60843
0.598577
0.58664
0.512203
0.528029
0.534424
0.523023
0.509432
0.479165
0.454276
0.471385
0.42149
0.394219
0.411901
0.441305
0.430857
0.494788
0.478976
0.471763
0.466347
0.476692
0.477677
0.490337
0.344387
0.358853
0.350074
0.376934
0.362395
0.373019
0.361242
0.372465
0.385453
0.393835
0.385041
0.375356
0.394477
0.403855
0.255259
0.268363
0.276668
0.302003
0.291059
0.285588
0.276787
0.0953965
0.0706338
0.087403
0.096618
0.0769887
0.098987
0.0816593
-0.0889385
-0.106461
-0.117884
-0.140477
-0.112955
-0.109625
-0.132392
-0.0147378
-0.0198295
-0.0236427
-0.0233518
-0.0117299
-0.0287028
-0.040434
-0.0263736
-0.03781
-0.0568996
-0.0182735
-0.00475976
-0.0319807
-0.0133908
-0.00785394
-0.00360432
-0.0183129
-0.0187953
-0.0114875
-0.0113387
-0.0224461
-0.0190872
-0.0287771
0.00202499
-0.0424498
0.0282217
-0.00303824
0.00931645
0.0433268
-0.224311
-0.0107722
-0.0354909
0.347713
-0.00276204
1.45448
0.383192
0.440951
-0.170621
1.30658
631.266
1935.5
2671.86
2701.82
2704.5
2709.05
2838.8
-0.31527
-1.38491
-2.84808
-2.10864
-2.64369
-3.71983
6.39026
2.45244
15.6213
-2.74981
-1.76102
-2.17784
310.961
-2.52427
-0.0813508
-0.199995
-0.0139168
0.0309374
0.0741441
0.482383
0.138649
0.400919
0.27095
0.139991
-0.516915
-0.319872
0.532735
0.208868
-0.485897
-0.425691
-0.438863
-0.453965
-0.393672
-0.373423
-0.438475
-0.21092
-0.240655
-0.229141
-0.248897
-0.224542
-0.201696
-0.227424
-0.233454
-0.205067
-0.38683
-0.341115
-0.381723
-0.401868
-0.355237
-0.33766
-0.383585
-0.305212
-0.263602
-0.248469
-0.260709
-0.230683
-0.22924
-0.198603
-0.076685
-0.1076
-0.102356
-0.0964973
-0.0673672
-0.110794
-0.0736783
0.176297
0.167827
0.201484
0.20001
0.174285
0.180058
0.207742
0.44173
0.425372
0.451594
0.458362
0.47478
0.456078
0.442192
0.52813
0.514697
0.513716
0.514021
0.49844
0.48787
0.507066
0.577815
0.589457
0.568425
0.567948
0.557862
0.565883
0.57582
0.554908
0.564578
0.550992
0.568669
0.58249
0.568993
0.567538
0.55608
0.548242
0.611647
0.626899
0.627108
0.6262
0.640018
0.64854
0.634847
0.62643
0.602077
0.617836
0.695243
0.682493
0.681349
0.669259
0.682002
0.659513
0.673764
0.679266
0.685236
0.66489
0.695534
0.706457
0.692621
0.683779
0.682469
0.702893
0.689931
0.735366
0.754069
0.740945
0.737722
0.74306
0.756116
0.732576
0.71831
0.732275
0.744439
1.16155
1.097
1.12117
1.11961
1.13799
1.14092
1.1859
1.51408
1.46555
3.24725
6.0225
1.15704
1.61764
1.18637
202.404
204.511
202.472
197.323
171.941
201.041
202.345
200.754
199.696
199.346
201.519
202.342
201.773
201.088
203.659
203.328
203.628
204.058
203.615
204.317
203.67
202.445
202.483
202.182
202.905
202.415
202.502
0.698771
0.679088
0.692971
0.692084
0.67772
0.699503
0.688139
0.686417
0.670409
0.683998
0.68195
0.669994
0.690236
0.680179
0.66572
0.679556
0.679599
0.677721
0.685659
0.676661
0.666045
0.682405
0.67869
0.665355
0.686429
0.699429
0.688004
0.678335
0.623535
0.637993
0.637775
0.656127
0.643804
0.648378
0.636839
0.637764
0.615682
0.630911
0.632481
0.617917
0.631311
0.629545
0.639875
0.618759
0.629146
0.634371
0.619361
0.634827
0.642486
0.631282
0.619693
0.631027
0.62395
0.642237
0.638997
0.647987
0.635614
0.637653
0.624157
0.660143
0.67577
0.685296
0.637681
0.65145
0.661756
0.670551
-0.122293
-0.111637
0.00510319
-0.178592
-0.0199872
0.0304558
-0.108978
-0.27841
-0.270731
-0.450632
-0.356605
-0.34352
-0.500229
-0.522519
-1.25605
-1.03227
-0.966472
-0.940793
-0.808165
-1.64328
-2.0054
-1.74463
-1.77229
-2.40485
-2.01887
-2.33257
2135.05
2020.32
2493.44
2254.07
2185.9
726.433
2403.26
-2.45015
-2.88613
-3.44998
-1.88255
-1.92155
-3.2319
-3.15583
-0.806134
-0.701304
-0.466877
-0.15961
-0.277833
-0.34552
-0.349428
0.0983177
-0.143551
-0.00307825
-0.0128178
-0.0313461
-0.00305322
-0.00789427
-0.00821381
-0.0132244
-0.000932566
-0.0364657
-0.0279115
-0.0259647
-0.00827207
-0.00664134
-0.000250457
-0.00933585
0.00175521
-0.00287047
-0.0087158
-0.00228577
-0.00717174
-0.0103816
-0.0124386
-0.0131309
-0.0143181
-0.0848921
-0.104906
-0.0782282
-0.0727737
-0.0870155
-0.0694992
-0.0563687
-0.0649533
-0.0606618
-0.0915302
-0.0337991
-0.0528829
-0.0677528
-0.0499255
0.00888517
-0.0105297
0.0162934
0.033713
0.014973
0.00803378
0.0272372
0.0894456
0.0868004
0.112056
0.0914937
0.0746666
0.0757477
0.0952988
0.183889
0.202903
0.183877
0.186722
0.163076
0.189745
0.168487
0.197494
0.177971
0.2
0.208367
0.21659
0.202434
0.210409
0.223533
0.220371
0.390096
0.398164
0.415188
0.370093
0.386342
0.384987
0.398952
0.429176
0.452303
0.445992
0.409587
0.394536
0.393751
0.380367
0.393951
0.369332
0.385515
0.476673
0.455077
0.46119
0.453878
0.474068
0.429329
0.520837
0.51404
0.537885
0.505189
0.489966
0.514672
0.519141
0.536409
0.520988
0.507637
0.57728
0.569499
0.591532
0.561568
0.54836
0.5645
0.573157
0.56245
0.560733
0.548017
0.708312
0.725611
0.702293
0.699928
0.680944
0.71374
0.697508
1.07953
1.0881
1.08502
1.09286
1.0859
1.09341
1.08289
1.08202
1.07821
1.07676
1.08038
1.08404
1.11731
1.09353
1.08919
1.09728
1.09064
1.09421
1.10494
1.07474
1.07896
1.06384
1.07999
1.08367
1.01267
0.93822
1.21106
0.94182
0.902035
0.967179
0.989357
1.27946
1.19051
1.15603
1.11126
1.1301
1.18219
1.25315
22.9248
2.385
4.76284
9.22715
1.38057
0.850124
4.44958
203.725
203.197
203.512
207.916
208.149
207.791
207.584
207.076
207.435
207.898
205.727
204.816
205.886
205.419
206.609
206.229
208.944
208.709
208.974
209.02
208.929
209.1
209.202
208.345
207.915
208.288
0.762006
0.76953
0.761195
0.757036
0.746697
0.753064
0.761727
0.761975
0.766715
0.774803
0.747004
0.736066
0.735993
0.738375
0.749579
0.732959
0.745846
0.881234
0.888603
0.878641
0.906989
0.901882
0.893374
0.895608
0.857203
0.857924
0.876223
0.862819
0.847328
0.855866
0.870825
-0.0958447
0.0531014
0.230132
0.344148
0.46906
0.376282
0.0753977
-0.63855
-0.728427
-1.10875
-1.07891
-0.99283
-1.85287
-1.35029
-2.18955
-2.52828
-2.21601
3.16205
-3.19132
-1.1882
0.757949
-1.29175
-0.315215
-1.77994
-0.7978
3.80073
-1.45611
-1.79612
-0.349589
-0.259309
-0.424568
-0.17461
-0.235304
-0.466819
-0.415825
-0.351217
-0.293672
-0.375244
-0.323604
-0.260648
-0.40048
-0.486081
-0.381244
-0.333473
-0.0901114
-0.0426834
-0.079365
-0.183067
-0.136999
-0.00792682
-0.0651751
-0.0439907
-0.0668478
-0.0437141
-0.0771385
-0.10215
-0.0675755
-0.0637098
-0.0153714
-0.017718
-0.0108747
-0.0121443
-0.00691342
-0.0158168
-0.00775825
-0.0145074
-0.0146171
-0.0223073
-0.00998799
-0.00333572
-0.0143678
-0.0166875
-0.0157174
-0.00364086
-0.0208391
-0.0137854
-0.0147904
-0.00896169
-0.0014456
-0.00408241
-0.00437302
-0.00706306
-0.00764963
-0.0100995
0.00296361
0.000466611
0.00628094
0.00620999
0.0034319
0.0161887
0.0168957
0.011576
0.0140107
0.148385
0.137465
0.134051
0.148849
0.132847
0.137386
0.150953
0.189299
0.203439
0.186668
0.201385
0.191051
0.194445
0.183256
0.245805
0.231895
0.230366
0.218545
0.232654
0.208332
0.222301
0.269579
0.284012
0.284857
0.29727
0.282583
0.289929
0.304076
0.259929
0.283195
0.274321
0.336419
0.358001
0.332667
0.343321
0.327962
0.313849
0.400959
0.394651
0.415903
0.424722
0.440448
0.443742
0.422375
0.438787
0.450517
0.436231
0.781604
0.790504
0.811322
0.805935
0.800374
0.828734
0.822712
0.854582
0.852083
0.832228
0.842545
0.83986
0.816797
0.82251
0.919552
0.907701
0.905167
0.938303
0.947392
0.930032
0.927129
0.973395
0.95682
0.956318
0.969844
0.946617
0.977794
0.958843
1.06195
1.04826
1.05509
1.0425
1.04883
1.05974
1.05333
1.1248
1.12847
1.13397
1.12782
1.1391
1.1412
1.13087
1.07013
1.08298
1.08575
1.10193
1.09061
1.13967
1.13968
1.12943
1.13701
1.14666
1.14225
1.13302
1.10407
1.1058
1.11348
1.09719
1.10708
1.10768
1.11062
1.11655
1.10569
1.11019
1.11843
1.12336
1.1121
1.10631
208.87
208.763
208.532
209.059
208.877
208.995
209.116
209.033
209.11
209.053
209.235
209.122
209.312
209.198
209.429
209.213
208.252
208.449
208.228
207.875
208.233
207.606
208.242
208.777
209.072
209.155
0.857671
0.866249
0.865961
0.866457
0.873204
0.862079
0.868789
0.822656
0.828518
0.822113
0.816278
0.82249
0.81144
0.818853
0.794247
0.794375
0.78623
0.805447
0.798198
0.800666
0.793971
0.822733
0.826269
0.832524
0.781055
0.789926
0.793829
0.784736
0.796215
0.793931
0.797552
0.791675
0.792172
0.784253
0.815302
0.817481
0.80669
0.799369
0.793128
0.8055
0.801478
0.815134
0.81168
-2.07754
-2.16429
-2.64854
-2.89987
-2.76519
-2.42778
-2.02939
-2.01763
-1.64479
-1.70159
-1.7611
-1.46934
-1.71078
-1.41412
-0.1406
-0.133591
-0.165872
-0.175034
-0.18629
-0.151675
-0.14832
-0.0103514
-0.0151689
-0.0151719
-0.0320035
-0.0372453
-0.039355
-0.026623
-0.0220157
-0.0333055
-0.0338462
-0.00474644
-0.000978694
-0.00658978
-0.00797026
-0.0159095
-0.00522464
-0.00290575
-0.0060274
-0.00987399
-0.00408082
-0.000767408
-0.0053081
0.00036609
-0.00193811
-0.00026383
-0.00094239
-0.0011078
-0.000592487
-0.00280699
-0.0055552
-0.00352829
-0.0031049
0.00176615
-0.000506001
0.00391085
0.00151073
-0.00206824
0.00167086
0.00178151
0.00211704
0.00191604
0.000190742
0.004717
0.00395089
0.00118698
0.0731855
0.0640012
0.0666014
0.0636018
0.0699121
0.0710816
0.0617797
0.149736
0.166033
0.156962
0.154831
0.144085
0.129477
0.186148
0.200916
0.184396
0.181887
0.172772
0.19238
0.179656
0.168958
0.241757
0.23222
0.252468
0.254164
0.237775
0.254388
0.258132
0.243721
0.236088
0.252732
0.257667
0.249509
0.267907
0.270516
0.274785
0.253875
0.26416
0.329839
0.317699
0.324845
0.307443
0.323011
0.306394
0.320897
0.312594
0.314937
0.322366
0.302954
0.291932
0.29606
0.306524
0.359026
0.378881
0.385818
0.411697
0.39179
0.377958
0.39424
0.336886
0.35907
0.357816
0.333434
0.354774
0.367813
0.34984
0.53147
0.566029
0.549536
0.500987
0.520949
0.545406
0.530628
0.600054
0.585569
0.567467
0.550531
0.565064
0.592299
0.577087
0.663977
0.651301
0.630639
0.643583
0.631948
0.599246
0.618569
0.656815
0.686269
0.655807
0.660269
0.621138
0.821399
0.824712
0.864277
0.899767
0.905387
0.834825
0.837743
0.886617
0.883759
0.7826
0.80817
0.786406
0.806617
0.768824
0.765063
0.791829
0.784922
0.754273
1.00354
0.98961
1.01986
1.04285
1.06401
1.0214
1.03503
1.13344
1.14486
1.14936
1.15284
1.17469
1.17319
1.15299
1.09697
1.07352
1.08265
1.07638
1.065
1.082
1.09576
1.15035
1.13493
1.13653
1.12923
1.14351
1.13889
1.15214
1.16029
1.16939
1.18372
1.20045
1.19289
1.18056
1.1743
1.15156
1.14354
1.15507
1.14409
1.15571
1.15186
1.15981
208.181
208.338
208.562
204.731
204.423
204.702
204.755
205.259
205.065
204.706
206.495
207.144
206.408
206.693
205.677
206.243
204.279
204.772
204.666
201.211
201.795
201.308
200.955
201.386
201.19
201.291
204.179
204.425
203.71
202.841
203.574
203.992
204.052
203.393
203.963
195.24
201.191
204.904
205.435
177.739
204.096
198.979
201.044
196.878
123.118
187.179
197.336
140.149
1.65724
1.03029
0.997886
1.10871
0.569341
15.5363
6.71494
0.396581
1.14122
0.958714
0.970064
0.998033
0.949354
1.01992
0.986277
0.904331
0.899864
0.967022
0.926399
0.935003
0.934568
0.893504
0.928829
0.920661
0.928662
0.921051
0.929941
0.925148
0.925777
0.921226
0.92509
0.92086
0.895885
0.890904
0.891107
0.898767
0.90105
0.893561
0.893446
0.886068
0.88975
0.886461
0.886092
0.881406
0.883649
0.88747
0.868337
0.861241
0.868156
0.871822
0.866598
0.869212
0.873793
0.856655
0.863207
0.863495
0.863395
0.866384
0.860085
0.863447
0.861575
0.857531
0.863907
0.869024
0.865867
0.839869
0.845246
0.846143
0.844969
0.849239
0.849022
0.853316
0.836889
0.843757
0.845002
0.841863
0.836796
0.865959
0.866716
0.860449
0.86785
0.871934
0.868694
0.864672
0.895306
0.893748
0.898757
0.894968
0.89277
0.892113
0.895695
0.904433
0.904675
0.907201
0.901155
0.901068
0.902539
0.903547
0.930482
0.872702
0.897674
0.917269
0.902161
0.87284
0.913658
198.777
199.076
198.521
4.81571
5.20203
5.54667
1.29012
0.770829
12.8606
20.3206
2.40844
2.45364
1.30635
41.3425
167.289
190.538
191.783
198.059
191.234
179.019
0.931551
0.940498
0.936851
0.941854
0.933234
0.93158
0.934953
0.931543
0.944628
0.926981
0.935484
0.928817
0.925061
0.930015
0.933005
0.933868
0.936489
0.928793
0.931942
0.93213
0.933997
1.18702
1.20439
1.17459
1.16424
1.17667
1.19724
1.18369
1.1937
1.18629
1.21053
1.20054
1.19352
1.21578
1.22109
1.31114
1.33028
1.28854
1.26153
1.24159
1.30472
1.32357
1.26647
1.28329
1.39958
1.39623
1.44141
1.42303
1.38263
1.40274
1.44225
2.53953
2.42942
2.70323
2.33486
2.27273
2.39502
2.49112
2.57423
2.77312
2.51164
2.3587
2.31563
2.45395
2.3885
3.0975
3.08843
3.63913
3.07162
2.93042
3.22037
2.9628
2.82241
2.97179
3.16117
2.43054
2.55055
3.30122
3.62861
3.08519
3.50265
3.02083
2.80953
2.30333
-1.70327
-1.85132
-1.46215
-1.35597
-1.81048
-1.74341
-1.37032
-0.98602
-1.26361
-1.17186
-0.69656
-0.723607
-0.236759
-0.22256
-0.19745
-0.185412
-0.226909
-0.21732
-0.179643
-0.176153
-0.139082
-0.147592
-0.0990944
-0.122879
-0.140902
-0.120599
-0.15208
-0.129112
-0.123722
-0.130653
-0.112483
-0.10011
-0.120542
-0.0111556
0.00134934
-0.014659
-0.0186405
-0.0285775
-0.0184838
-0.00893645
0.00738537
0.00963506
-7.69409e-06
0.0162539
0.00744604
0.0128829
0.0185303
0.0112507
0.0144835
0.0200335
0.0183235
0.0128575
0.0072008
0.00460266
0.00378894
0.0083377
0.00466922
0.00476194
0.00687473
0.000478936
0.00229564
0.00406613
0.00629677
0.00982321
0.00566583
0.00263611
0.00551837
0.00344576
0.0072929
0.00948976
0.00472186
0.000903414
0.00158138
0.000765334
0.00423403
0.00583894
0.0124443
0.00900788
0.00512853
0.000762357
0.00102792
0.00606772
0.00453293
0.0366641
0.0228374
0.0296233
0.0342615
0.0261542
0.0306484
0.03563
0.0306223
0.0236865
0.0318415
0.0310218
0.040513
0.034612
0.0417435
0.0306068
0.0184862
0.0254973
0.0571102
0.0689629
0.0538643
0.0595919
0.0514067
0.0434725
0.0691462
0.0774181
0.0781436
0.0894901
0.0798946
0.0665985
0.0743517
0.0818257
0.0759457
0.0812565
0.0910177
0.0788807
0.0782637
0.0706775
0.0832387
0.0770776
0.146634
0.122274
0.125173
0.109406
0.124625
0.129995
0.112763
0.161142
0.154718
0.157679
0.137301
0.140839
0.142474
0.148154
0.129985
0.156105
0.144821
0.146878
0.125756
0.146801
0.124252
0.208053
0.181537
0.201684
0.159513
0.164599
0.236901
0.240328
0.223639
0.221253
0.242152
0.234434
0.215252
0.208242
0.216796
0.221147
0.189024
0.183022
0.192191
0.199342
0.262243
0.286256
0.292144
0.32171
0.297565
0.303318
0.283098
0.221617
0.185623
0.225875
0.217655
0.261761
0.257304
0.286722
0.303664
0.247771
0.226626
0.26406
0.278315
0.347951
0.356179
0.332411
0.321717
0.348531
0.34115
0.315889
0.299738
0.251105
0.305924
0.313654
0.281171
0.244526
0.291559
0.404321
0.442022
0.469957
0.529176
0.5052