/*--------------------------------*- C++ -*----------------------------------*\
| =========                 |                                                 |
| \\      /  F ield         | OpenFOAM: The Open Source CFD Toolbox           |
|  \\    /   O peration     | Version:  v2012                                 |
|   \\  /    A nd           | Website:  www.openfoam.com                      |
|    \\/     M anipulation  |                                                 |
\*---------------------------------------------------------------------------*/
FoamFile
{
    version     2.0;
    format      ascii;
    class       surfaceScalarField;
    location    "0.05";
    object      phi;
}
// * * * * * * * * * * * * * * * * * * * * * * * * * * * * * * * * * * * * * //

dimensions      [0 3 -1 0 0 0 0];
oriented        oriented;


internalField   nonuniform List<scalar> 
13152
(
1.45889e-06
3.36296e-05
-2.39155e-06
-3.26969e-05
3.09941e-05
-2.86368e-05
-8.9834e-07
-5.82616e-06
7.04498e-05
-5.77507e-05
5.89299e-05
-3.57078e-06
3.53467e-05
-0.000125794
4.74798e-05
-4.07699e-05
0.000100584
-2.69191e-05
-4.9361e-05
-4.73521e-05
0.000123632
6.22625e-07
-2.80697e-05
5.27906e-07
-4.98361e-05
1.09768e-06
1.30964e-05
8.60744e-06
-4.97735e-05
1.30702e-05
5.54028e-07
-8.45589e-06
-2.5826e-05
-4.96845e-05
-1.44174e-05
-2.45481e-05
-8.57815e-06
4.75436e-05
-6.67706e-08
-1.44616e-05
1.10988e-07
-2.3743e-05
-8.71926e-07
9.39741e-06
-5.0939e-05
2.708e-05
-4.90912e-05
4.99105e-05
4.89503e-05
-1.01288e-06
4.06804e-08
-2.53126e-05
-4.98271e-05
1.83214e-07
-0.000124913
5.17703e-07
2.66733e-05
5.0337e-05
9.11983e-08
0.000124554
5.97598e-05
2.12176e-05
4.22024e-05
-0.00012318
4.98725e-07
-1.01657e-06
6.02776e-05
2.0818e-05
4.15906e-07
-3.13715e-05
0.000122639
0.00012949
4.85372e-05
-1.1487e-06
-4.89631e-05
1.57464e-06
-2.72543e-05
-4.49632e-05
0.000120755
3.57758e-07
-2.87607e-05
-1.34172e-05
1.3288e-05
4.86895e-07
8.77085e-06
-5.09488e-05
-8.26573e-06
-2.34094e-05
-4.8458e-05
-2.31373e-05
2.14802e-07
4.85533e-05
3.10061e-07
6.06289e-07
8.59177e-07
-1.03917e-06
-4.26301e-07
-5.53134e-07
-4.37835e-07
1.59726e-06
3.69115e-07
-6.30717e-08
1.5493e-07
-9.46743e-07
3.53979e-07
2.19189e-08
-9.06153e-07
-8.22141e-08
1.27143e-07
3.24185e-07
-1.80446e-07
3.51607e-08
-3.08591e-07
-8.18598e-07
-1.59529e-07
-5.17211e-07
5.80397e-06
-1.93823e-06
-3.34852e-06
8.21618e-06
-3.27118e-06
-5.46221e-06
-6.27345e-06
-9.59228e-06
1.89458e-06
2.06947e-07
-5.3727e-06
4.22919e-07
-4.66574e-07
-6.32634e-06
4.75805e-07
-1.57117e-05
-2.06619e-06
-3.89677e-06
-4.75692e-07
6.43866e-06
-6.00088e-07
-1.67691e-06
2.10806e-07
-3.93113e-06
-5.65728e-07
6.81305e-06
4.38395e-06
-1.51281e-05
6.39779e-06
-1.50471e-07
-3.27603e-06
9.19813e-06
-5.68989e-07
4.91591e-06
4.86088e-06
4.21926e-06
-1.3996e-05
3.71493e-07
4.69435e-06
-1.49936e-07
4.84255e-06
3.89822e-07
-8.78785e-07
5.09464e-06
4.78497e-07
4.63107e-06
-1.29059e-06
-5.55123e-06
1.54884e-05
-5.30336e-07
-8.38196e-07
-1.94727e-06
-2.70274e-06
5.4882e-06
-1.82799e-06
-4.20151e-06
5.19129e-06
-1.36468e-06
-2.41058e-06
4.28839e-06
-2.43411e-06
-6.05581e-06
-4.47563e-06
6.06128e-06
-2.89635e-06
-2.94396e-06
-7.74105e-06
1.44024e-06
1.82264e-06
-1.43663e-06
-1.82625e-06
-4.03061e-07
-2.30508e-06
4.14839e-06
-4.25577e-06
5.67534e-06
2.92096e-07
2.65277e-06
-4.38149e-06
3.28524e-06
-4.81939e-06
-2.53233e-06
3.51249e-06
-4.13535e-06
-1.33336e-06
-6.02394e-06
-2.76114e-06
1.01184e-05
5.37545e-06
-1.03887e-06
-5.66993e-06
-3.30333e-07
-3.18176e-07
6.71171e-07
3.04571e-06
-4.04719e-06
1.15338e-05
-1.11808e-05
9.22468e-06
-7.21781e-06
1.79973e-05
3.30951e-08
4.96652e-08
2.73981e-08
-1.10158e-07
8.75098e-07
-5.07534e-07
-3.34469e-07
1.12697e-07
8.12066e-07
1.79031e-06
1.4915e-06
-3.78934e-06
-6.40376e-07
2.09621e-06
-1.09228e-06
5.64603e-07
4.26619e-07
5.17399e-08
-3.70634e-08
-1.95109e-08
4.83437e-09
-1.29574e-07
-4.28415e-08
2.24155e-07
-7.92514e-08
-8.73855e-08
1.05291e-08
-1.6338e-07
1.1001e-07
-1.05512e-07
9.65304e-08
4.51591e-08
-2.87791e-07
-1.47738e-07
4.42572e-08
3.78769e-08
3.60114e-07
-4.42248e-07
-4.83233e-08
9.03596e-08
2.22089e-09
-4.67228e-08
3.62764e-08
-5.71536e-08
5.07627e-07
2.65924e-07
-3.698e-07
3.0442e-07
-2.67656e-05
2.40418e-05
2.78615e-07
2.44507e-06
3.96789e-05
2.38962e-05
3.78717e-05
4.26582e-06
5.94546e-05
2.7098e-06
8.96391e-06
1.22223e-05
1.28936e-05
2.76879e-05
-8.10792e-06
2.52675e-05
1.13448e-06
4.29826e-05
-1.83639e-07
-4.00305e-05
-2.76772e-06
-4.08458e-05
-4.49278e-05
0.000128756
-5.84266e-07
-4.04452e-05
-4.29849e-05
4.44123e-05
-2.01163e-06
4.11532e-05
-0.000124583
-1.92648e-06
1.41096e-06
-8.02958e-07
-2.95363e-06
-4.67583e-05
1.6555e-05
3.31571e-05
-3.01669e-05
1.18059e-05
1.54075e-05
3.67515e-05
5.00579e-05
8.691e-06
7.58649e-06
-4.4715e-06
-9.9624e-07
2.62421e-05
2.36322e-05
2.07058e-05
7.26943e-05
3.09945e-06
3.15297e-06
-3.37522e-06
-2.87719e-06
2.33226e-06
-7.7238e-06
8.49098e-06
-4.36424e-06
9.84946e-06
-5.22985e-07
7.37501e-06
-1.02272e-05
4.94983e-06
-8.35001e-06
6.03097e-06
-8.80495e-06
9.04172e-06
-3.73666e-06
-2.76887e-06
-5.62208e-06
1.21276e-05
4.08857e-06
-4.30103e-06
-3.52421e-06
-9.64608e-06
1.09658e-05
-6.81104e-07
8.63811e-06
-1.2258e-05
6.02737e-06
-1.02327e-05
7.22494e-06
-1.08437e-05
1.0241e-05
3.03776e-06
1.04799e-05
-2.76845e-06
-1.07492e-05
4.43151e-06
-3.98598e-06
2.59222e-06
2.39398e-07
1.4672e-05
8.62538e-06
8.29581e-08
-1.26943e-05
3.23165e-06
7.98594e-06
-6.91333e-06
1.03844e-05
-9.59884e-06
8.85137e-07
-4.91763e-06
-7.99855e-06
1.2031e-05
-5.62424e-06
-7.62858e-06
1.4138e-05
-5.1824e-06
-5.35948e-06
1.3211e-07
-3.81992e-06
-4.31075e-06
-3.90738e-06
-3.58911e-06
1.1834e-07
9.06959e-06
-1.43703e-05
8.63246e-06
-1.38736e-05
3.66345e-08
5.12556e-06
4.84917e-06
5.35842e-06
-3.23443e-06
-4.93595e-06
2.81196e-06
-1.08627e-05
3.55395e-07
1.58657e-05
-2.48155e-06
-1.16156e-05
1.01262e-05
-9.24191e-07
3.63166e-06
9.30646e-06
-7.73456e-06
1.17216e-05
-1.11403e-05
2.35865e-06
-3.58275e-06
-1.17067e-05
1.29308e-05
-3.54085e-06
-1.30432e-05
1.89427e-05
-3.98221e-06
-3.14141e-06
-7.34627e-06
-1.48486e-05
1.04882e-05
-9.15858e-06
-1.12309e-05
1.59902e-06
1.14274e-05
-1.70086e-05
1.25066e-05
-1.4049e-05
-1.41924e-05
1.75404e-05
-1.76136e-05
7.82994e-06
-3.33852e-06
-1.44285e-05
9.93708e-06
-9.04043e-06
-6.5009e-06
2.33713e-05
-3.65521e-06
-8.72375e-06
2.64319e-06
-5.2024e-06
-1.18693e-05
-4.86171e-06
1.00396e-06
-8.08807e-06
1.37767e-05
-9.3439e-06
9.0497e-06
-2.58615e-05
2.6235e-06
1.22381e-06
1.15385e-05
2.88582e-06
1.13602e-05
-6.45055e-06
-7.79549e-06
7.89212e-06
3.01354e-06
-8.01986e-06
-4.17864e-06
2.3431e-05
-1.2207e-05
6.36138e-06
8.8591e-06
3.14441e-06
-3.95162e-06
6.13437e-06
-7.25777e-06
2.81785e-06
8.71106e-06
-3.45332e-06
-8.0756e-06
6.12002e-06
-1.16762e-05
8.37403e-06
-1.75059e-05
3.2337e-05
-4.03186e-06
1.20181e-05
-1.14396e-05
1.32757e-05
-2.53832e-05
-6.30448e-06
7.90394e-06
-1.17923e-05
1.33099e-05
-7.20678e-07
-1.25246e-05
-6.46481e-08
-1.92709e-05
-3.63054e-06
3.62115e-05
-1.22231e-05
-7.76867e-06
1.82491e-05
1.56323e-06
1.28551e-05
5.32949e-06
-2.14018e-05
3.06263e-05
-3.20618e-05
3.52529e-05
2.03193e-05
1.66842e-05
-7.22562e-05
-9.63184e-06
2.14173e-05
2.34673e-05
2.0428e-05
-9.7406e-06
-3.45189e-05
-1.22719e-05
6.72187e-05
-2.19145e-05
-2.23452e-05
1.45587e-05
-1.9789e-05
2.37038e-05
7.66659e-06
-1.59623e-06
-7.65034e-06
1.58e-06
-1.24984e-05
-2.38139e-06
2.25465e-05
-9.58818e-06
-4.50653e-06
1.30561e-05
1.90459e-06
-2.2611e-05
9.18892e-06
5.4472e-06
-1.41436e-05
2.09511e-05
-2.18272e-05
4.32973e-06
-2.75362e-06
-9.26718e-06
7.69104e-06
-7.5508e-06
-1.07304e-05
-7.71717e-06
-2.58725e-06
4.28615e-06
-8.79945e-06
-6.21708e-06
-1.15271e-05
6.54599e-06
3.87117e-06
-2.31155e-05
-7.51548e-06
-8.08388e-06
2.4232e-06
8.39675e-06
-2.73606e-06
1.48899e-05
-6.0293e-08
-2.29135e-05
9.53963e-06
7.77354e-06
-1.45802e-05
-1.2603e-06
2.42372e-05
-8.45721e-06
1.54558e-05
-2.39733e-05
2.37351e-05
-3.23759e-06
-1.2861e-05
5.8213e-06
1.02773e-05
-6.83002e-06
-2.92058e-06
6.513e-06
9.15932e-07
-2.0607e-05
9.97006e-06
-4.70227e-06
-8.18841e-06
-2.66662e-06
1.91497e-05
5.50608e-06
-9.29241e-06
8.66075e-06
-6.54221e-06
3.0118e-06
7.07352e-06
-3.54311e-06
1.30453e-05
-3.72181e-06
6.53419e-06
9.52291e-06
-1.47398e-05
3.03913e-06
1.87742e-05
-6.69606e-06
-1.15869e-05
-3.91811e-06
-9.53674e-07
7.91089e-06
-7.89402e-07
-9.82476e-06
3.67594e-06
-8.18714e-06
9.25644e-06
-4.74497e-06
2.17776e-06
-2.40481e-06
4.97203e-06
1.01689e-05
-2.41831e-07
4.70414e-06
7.64249e-06
1.12037e-05
-4.30205e-06
6.96612e-07
1.54791e-05
1.04023e-05
-1.49462e-05
1.5803e-05
3.52452e-06
-6.35951e-07
-3.20585e-06
3.17286e-07
-7.3454e-06
-1.7301e-07
1.10429e-05
-3.55672e-06
-4.42464e-06
6.09436e-06
1.10265e-06
-1.04029e-05
4.10275e-06
2.3089e-06
-7.6781e-06
1.16078e-05
-1.01322e-05
-1.11105e-08
3.39329e-08
-2.24495e-08
-3.72597e-10
1.37088e-08
2.95953e-08
-5.4415e-08
8.45926e-08
-3.69505e-08
7.19917e-09
-1.2809e-08
-1.68397e-08
6.05801e-08
-2.37855e-08
-2.53815e-07
1.48692e-07
1.89716e-07
6.8968e-09
-2.97662e-07
-8.4199e-08
2.93471e-07
-9.01113e-08
1.17903e-07
-2.69633e-07
2.13114e-08
1.3042e-07
-1.51666e-06
1.47798e-07
1.48677e-06
-1.20749e-06
-5.78806e-07
-2.67174e-07
9.61339e-07
-5.46367e-07
1.12262e-06
-1.36849e-06
-2.94258e-07
4.81135e-08
2.49552e-07
5.93833e-06
5.48514e-06
-4.34955e-06
-7.0739e-06
7.98831e-06
-9.1985e-06
7.14857e-06
6.72509e-06
6.74843e-06
-9.61014e-07
-3.71028e-06
1.13961e-05
-1.28004e-06
7.06744e-06
-3.79831e-06
2.08034e-06
-7.48061e-06
-3.02751e-06
-5.12039e-06
-1.25152e-06
-3.78362e-07
-5.55897e-06
7.7722e-07
-9.49579e-08
8.04505e-07
-4.60846e-07
-1.10217e-06
2.97142e-06
1.9156e-05
-4.04396e-05
1.83127e-05
-6.418e-06
-4.40706e-06
1.3796e-05
1.53431e-05
-2.6051e-06
-2.12158e-06
1.68194e-05
-1.91047e-05
-5.50521e-06
1.71791e-05
2.67384e-06
7.16528e-06
-2.09467e-05
-3.06046e-06
-4.14153e-07
1.38153e-06
2.09307e-06
1.74164e-06
1.29567e-06
-6.09777e-06
1.75952e-06
-4.32045e-07
2.59193e-06
1.37954e-06
-2.67578e-06
4.67091e-07
3.50636e-06
-3.48265e-06
5.70926e-06
-2.53516e-06
2.65787e-05
7.8792e-06
-1.69817e-05
-1.74763e-05
-1.04428e-05
4.57538e-06
3.24461e-05
-1.50288e-05
1.24652e-05
8.07599e-06
-3.37501e-06
-2.16826e-05
-2.40956e-06
1.5061e-05
4.82497e-05
-8.13536e-06
-5.5143e-05
1.80905e-05
4.26245e-05
-1.03014e-05
2.59823e-05
-2.18119e-05
-2.87179e-06
-2.85346e-07
6.30799e-07
2.52634e-06
4.97827e-06
1.3436e-06
-9.19362e-06
4.55419e-06
1.38693e-07
3.86493e-06
-3.31727e-06
8.3186e-08
-1.53098e-06
7.92225e-06
6.24092e-06
-8.21458e-06
9.2641e-06
1.24274e-06
1.26238e-05
-4.69225e-06
-9.17427e-06
4.21241e-06
-3.38307e-06
4.1342e-07
-1.10132e-05
2.78494e-05
7.62751e-06
4.3208e-07
-1.14427e-05
1.69637e-06
6.34457e-06
-5.51119e-06
-3.80563e-06
-9.77136e-06
4.58203e-06
6.44242e-06
9.15165e-06
-2.01761e-05
-2.33534e-06
1.01688e-06
5.90044e-06
-5.06711e-06
1.70281e-06
9.75084e-07
-1.66099e-06
-4.35929e-06
1.19626e-05
-5.77239e-06
-1.9592e-05
2.63395e-05
-8.31776e-06
-1.81394e-06
-2.45016e-05
1.11167e-05
-3.4942e-05
-7.73338e-06
-4.44407e-06
-1.23812e-05
2.45587e-05
-7.67616e-06
-4.29499e-07
3.72372e-07
-1.61933e-05
4.07311e-06
-3.53375e-06
-8.51847e-06
-3.28963e-07
-4.08772e-06
1.24436e-07
7.75219e-06
6.15224e-06
-3.00977e-05
1.58118e-05
-3.98659e-06
1.11281e-06
1.06113e-05
-1.25342e-06
1.56015e-08
-5.80635e-09
-1.70458e-08
7.25059e-09
-4.59133e-08
-4.21133e-09
6.57267e-08
-1.22416e-08
-3.94781e-08
-1.15303e-08
-5.70769e-08
6.43958e-08
-7.73418e-08
4.87653e-08
-5.3087e-08
-1.62314e-08
-1.69907e-07
4.35661e-08
2.42581e-08
-8.46635e-08
-1.76942e-08
-4.0299e-09
6.52902e-08
6.19165e-09
1.03915e-07
-1.52139e-07
7.61005e-08
-4.02094e-07
-1.30478e-07
8.26043e-07
6.35985e-09
-3.32354e-07
-5.88272e-08
-2.33601e-07
6.94466e-07
2.30386e-07
5.53199e-07
-1.47805e-06
4.97172e-07
-2.90207e-07
4.875e-07
2.34518e-07
4.9304e-07
-3.03246e-07
1.03862e-08
5.27377e-07
-4.50081e-07
6.39876e-07
1.13561e-06
-1.41543e-06
1.23872e-06
6.24822e-06
1.0432e-05
3.86707e-06
-2.05473e-05
-4.41842e-07
-9.14065e-06
1.58307e-05
1.83686e-05
-8.37847e-06
-8.378e-06
-1.00272e-05
3.67738e-05
-1.80637e-05
1.30722e-06
-9.83084e-06
-9.33698e-06
-2.40275e-05
-5.74978e-07
2.52767e-06
-2.8995e-06
9.46827e-07
2.23333e-06
-2.07097e-06
-7.37343e-07
-1.35215e-06
6.11315e-06
1.86715e-06
1.13596e-06
-5.07409e-06
2.92817e-06
-1.79837e-06
5.44411e-07
9.16084e-07
-3.24536e-07
1.02327e-06
2.44931e-06
-6.46312e-07
3.17423e-07
-2.62976e-06
-3.81656e-06
-1.72024e-06
-4.77144e-07
6.01394e-06
9.15648e-08
-1.02119e-06
-2.8869e-06
-1.84511e-06
2.16429e-07
3.8565e-06
3.56271e-07
-6.05785e-06
2.8817e-06
1.1912e-06
4.76549e-06
-5.4304e-06
7.17002e-06
1.31966e-06
6.26228e-06
-1.77603e-06
-5.80589e-06
2.0321e-06
-1.86861e-06
1.15617e-06
1.4248e-06
6.86958e-06
5.02176e-06
-1.30933e-06
-5.58106e-06
2.11427e-06
4.06363e-06
1.34274e-06
6.92222e-08
-2.72127e-06
2.11575e-07
3.24545e-06
-1.47654e-06
3.1129e-06
-3.18337e-06
5.56684e-06
-1.2803e-06
-6.11018e-06
1.82362e-06
-9.89776e-06
-1.10215e-06
1.65667e-05
-4.64706e-06
-6.53099e-06
1.17504e-05
4.22307e-06
-2.20836e-05
4.81356e-06
8.76041e-06
-8.20826e-06
1.19196e-05
-8.63226e-06
-1.05375e-06
-6.97686e-06
1.92064e-06
6.10996e-06
-8.12772e-06
6.66506e-06
4.08869e-07
9.8944e-06
-2.4999e-05
5.08467e-06
-6.56983e-06
3.40582e-06
-5.66705e-06
1.68616e-05
-1.04477e-06
2.04274e-06
2.2798e-06
-1.70333e-06
6.09465e-06
-5.95282e-06
1.56149e-06
1.12772e-05
-5.82174e-06
-7.15881e-06
-2.7843e-07
1.76503e-05
1.14521e-05
5.54649e-07
-1.79595e-05
7.24764e-06
5.76592e-06
1.20793e-05
-1.73463e-05
1.90485e-05
6.99797e-06
5.51643e-06
4.51079e-06
-1.70252e-05
2.33259e-06
9.96631e-06
-5.30094e-06
2.2364e-06
5.61262e-06
-1.16664e-05
4.39126e-06
1.72414e-05
9.86721e-06
-1.70228e-05
7.59586e-06
4.50775e-06
1.75997e-05
-8.18506e-07
5.62392e-06
7.55427e-07
-5.56085e-06
9.88879e-06
-6.5998e-06
-4.10752e-06
-1.34227e-06
1.6855e-05
-9.6343e-06
7.44153e-06
2.94821e-06
1.54658e-06
-1.67417e-05
1.15211e-05
-1.65743e-05
1.76204e-05
8.44396e-06
3.00084e-07
-6.23662e-06
-2.50742e-06
-5.48289e-06
-5.58821e-07
1.44857e-05
3.40078e-07
-5.52289e-06
2.2658e-06
-1.72353e-06
-6.77889e-06
-1.74331e-06
3.45025e-06
-8.61347e-06
6.49056e-06
2.46298e-06
2.36153e-07
-1.43725e-05
-2.36868e-06
7.11592e-06
-3.85603e-06
8.4837e-06
-2.89163e-07
-5.81111e-06
-2.38344e-06
-5.23839e-06
-1.77063e-06
1.54927e-05
-5.07987e-07
-5.01957e-06
-8.15614e-06
7.74789e-06
-9.97336e-08
1.89706e-06
-1.50728e-05
-1.01899e-05
1.61672e-05
-1.41039e-05
-3.10757e-06
-4.62957e-07
4.78125e-07
3.0924e-06
6.51553e-06
6.22117e-06
-1.58443e-05
5.92577e-06
1.26788e-07
1.48364e-06
-1.53296e-06
5.27441e-07
-1.23128e-06
5.80735e-06
1.07032e-06
3.61785e-06
5.76481e-06
8.45181e-07
4.9198e-06
-6.77815e-07
-5.08716e-06
5.70988e-06
-5.40069e-06
5.35978e-07
-6.01414e-06
1.66439e-05
-5.48532e-06
4.93428e-06
5.94925e-06
-1.65218e-05
1.07923e-06
-5.30695e-07
-6.37205e-10
-6.7899e-07
-4.40319e-06
5.55719e-07
4.52646e-06
-6.66513e-06
6.58436e-06
-5.98172e-07
5.88882e-06
-1.69572e-05
1.68436e-06
-1.6632e-06
5.34559e-07
-1.38713e-06
7.598e-06
-1.24553e-06
6.44275e-06
2.98005e-06
1.59841e-06
3.90575e-06
1.10971e-06
-6.61392e-06
5.08392e-07
1.53002e-06
-4.40011e-07
4.07032e-06
3.43819e-07
1.36675e-06
6.29824e-06
-6.55528e-06
5.68361e-06
-2.78679e-06
-7.2032e-06
-5.61188e-07
-2.83059e-06
-6.77598e-06
1.72046e-05
6.8404e-07
3.50815e-07
5.23789e-07
-6.39983e-06
-6.79235e-07
-2.70303e-06
-1.57168e-05
-4.06755e-06
-4.97794e-06
-7.62767e-07
9.80826e-06
-1.03291e-06
-2.72566e-06
-3.08986e-07
-1.30285e-06
-4.708e-06
5.03805e-06
-5.26824e-06
-2.49547e-06
-7.96456e-06
1.22398e-05
-8.16872e-06
-1.09868e-06
-1.8145e-05
5.99568e-07
4.43442e-06
-4.47434e-06
-5.59649e-07
1.77578e-06
-2.04143e-06
8.65208e-07
-2.73074e-06
8.94099e-06
6.00815e-06
6.69522e-06
-1.71777e-05
6.09592e-06
-6.47369e-07
-8.69725e-07
5.52349e-06
6.46724e-06
-6.27977e-06
6.7776e-07
-1.06526e-06
-5.68435e-06
-2.63421e-07
5.67575e-06
2.7201e-07
8.35339e-06
4.19934e-06
-1.82371e-05
7.66642e-06
4.23562e-07
-2.10889e-06
-3.13532e-07
8.09821e-06
-2.12381e-06
2.86927e-07
-8.38781e-07
-2.40821e-06
2.93346e-06
-3.77171e-06
8.09108e-07
3.80749e-06
-3.37984e-06
9.0657e-06
-1.02391e-05
-1.0029e-05
-7.66382e-06
1.17523e-06
-8.48086e-06
-2.71456e-06
-6.1392e-06
-7.2285e-06
-1.48372e-07
-9.13394e-06
-6.18687e-06
-4.66166e-07
5.13838e-07
8.80672e-06
-1.83735e-05
-7.93392e-07
-5.90575e-07
7.46511e-06
-2.6133e-06
-4.26122e-06
1.03209e-05
-3.925e-06
-6.9865e-06
-1.17485e-05
-8.74087e-06
-2.05454e-06
1.42502e-07
-7.0128e-07
4.57756e-07
-6.4373e-06
6.74115e-06
-1.80319e-05
-1.85722e-06
7.22078e-07
-6.73451e-06
-8.7876e-07
6.8912e-06
-1.04114e-05
8.45525e-06
2.67824e-06
8.49771e-07
-1.79957e-05
1.10904e-05
-8.86095e-06
-3.1082e-06
-7.19388e-07
1.8701e-05
3.07423e-06
-2.25395e-06
-9.68123e-06
-2.22559e-06
4.5804e-06
-2.96222e-06
9.19187e-06
-4.36636e-06
-7.79987e-06
-2.83527e-07
5.57524e-06
2.50821e-06
6.35949e-06
4.31255e-06
-1.8472e-05
-6.72582e-07
6.74855e-06
9.15874e-06
-6.04508e-06
-3.78624e-06
-4.43617e-06
2.03435e-05
4.08684e-06
-5.81941e-06
5.22592e-06
6.12783e-06
1.04914e-06
-5.96183e-06
-1.21514e-06
-9.24741e-06
-4.71499e-06
2.00902e-05
-1.19845e-05
7.53592e-06
4.87805e-06
-1.83758e-05
1.12908e-05
-4.97003e-06
-1.40236e-05
2.05994e-05
-2.11301e-05
6.70651e-06
1.21812e-05
7.79303e-07
-1.9667e-05
1.43235e-06
-1.74855e-06
7.0227e-06
8.26927e-06
5.34426e-06
1.257e-05
-6.97742e-06
-7.34118e-06
-9.72165e-07
2.05649e-05
-1.33719e-05
2.0669e-05
-1.957e-05
-5.37706e-06
-4.12002e-06
5.81625e-06
3.68084e-06
2.78235e-06
-1.63466e-05
-1.11624e-05
-3.49155e-06
1.72187e-05
9.44573e-06
-1.29584e-05
-3.33018e-06
5.00011e-06
1.12884e-05
6.66279e-06
9.63563e-07
-2.05847e-05
-3.48e-06
6.8126e-06
1.24963e-05
-5.48919e-06
-1.04871e-05
-8.15455e-07
2.01244e-05
8.9406e-06
-1.34663e-05
1.31252e-05
-1.57286e-05
-4.31934e-06
5.77276e-06
1.42753e-05
6.91918e-06
-1.85157e-06
-2.07963e-05
6.92239e-06
-4.32256e-06
-1.65113e-05
3.25972e-06
2.01739e-05
-1.99343e-06
-1.88405e-05
1.29371e-05
-1.67821e-05
2.19696e-05
-2.65723e-05
-5.0208e-06
1.0973e-05
2.06202e-05
1.34199e-05
-1.43174e-06
-3.85606e-05
1.35817e-05
-5.1826e-06
-2.7652e-05
6.85766e-07
4.05479e-05
-1.39805e-05
-1.88542e-05
2.45074e-05
-3.99197e-05
3.61662e-05
6.43171e-06
1.36514e-05
3.61201e-06
-2.36951e-05
1.7131e-06
-1.12529e-06
5.84391e-06
8.67251e-06
6.69204e-06
1.32088e-05
-1.0851e-05
-3.48313e-06
-1.77931e-06
2.0832e-05
-1.72702e-05
2.41635e-05
-2.45092e-05
1.76251e-06
-5.25602e-06
-1.53417e-06
5.02768e-06
-1.05605e-05
6.74018e-06
5.58283e-06
-3.75146e-07
-1.54413e-05
9.3059e-06
-6.72246e-06
-4.11765e-06
8.4809e-07
1.34855e-05
2.78761e-06
-1.52751e-06
-7.9825e-06
-1.38582e-06
5.02154e-06
-2.91111e-06
8.26543e-06
-4.81376e-06
4.76985e-06
4.95666e-06
6.22758e-06
-1.59541e-05
1.29558e-06
5.09998e-06
-1.62569e-06
4.29397e-06
1.95829e-06
9.00292e-07
6.1448e-06
-1.9451e-06
4.69653e-06
2.43129e-06
-2.07398e-06
1.25127e-05
4.58084e-06
2.95924e-06
6.13371e-07
-9.52827e-07
-2.61981e-06
-1.3037e-06
1.12105e-07
4.15084e-06
-1.5463e-06
8.55961e-07
4.09743e-06
-6.07881e-08
-5.58298e-06
1.68104e-06
3.27237e-06
-4.03683e-06
5.82999e-06
-5.05046e-06
-8.34942e-07
-1.44642e-06
-1.90581e-06
4.18717e-06
-1.20486e-06
-3.05518e-06
3.42514e-06
-9.96055e-07
-1.65523e-06
-3.06941e-06
-3.28716e-06
4.45074e-06
-1.48321e-06
-4.6414e-06
-1.58492e-06
-2.69833e-06
-4.72334e-06
2.41074e-06
9.50886e-07
-1.45381e-07
-3.21627e-06
-7.57571e-07
6.47151e-07
2.52116e-06
1.19885e-06
-1.00554e-06
-3.67716e-06
4.81685e-07
4.39435e-06
-5.50915e-07
-4.13183e-06
2.96821e-06
-3.66452e-06
4.09705e-06
-5.82145e-08
-7.64189e-07
-1.12859e-06
1.951e-06
-8.43135e-07
-1.67626e-06
2.4612e-06
-7.03295e-07
-9.04031e-07
-1.27083e-06
-1.97123e-06
2.11345e-06
-1.04625e-06
-1.90085e-06
-6.40637e-07
-2.03392e-06
-2.5909e-06
7.69662e-07
6.28678e-07
1.4872e-06
-2.88552e-06
2.98993e-07
1.89831e-06
-1.42764e-06
5.57976e-07
3.69683e-07
-2.01344e-07
-7.65868e-07
1.52519e-06
-1.34871e-06
1.51707e-06
8.46131e-07
1.07692e-06
-2.47673e-08
9.57269e-07
1.37603e-06
-1.4709e-06
1.78192e-06
-1.86235e-06
-1.06435e-06
-2.08153e-07
-7.01778e-08
1.34267e-06
1.46622e-07
3.1421e-07
-1.39413e-07
7.78799e-08
3.05216e-08
-1.86177e-08
-1.51358e-07
1.29558e-07
-2.11563e-08
1.32848e-07
3.25326e-08
-1.83983e-07
5.34609e-07
-2.72178e-07
9.3952e-07
-5.92757e-07
1.40393e-06
2.15626e-06
1.07564e-07
5.97948e-08
-2.32362e-06
-3.39413e-07
-3.69529e-07
2.86515e-06
2.62945e-08
-2.58157e-07
-2.30388e-07
2.9937e-07
-4.26914e-08
-3.45945e-08
-4.53943e-07
2.0405e-06
6.13967e-07
-2.59464e-06
-5.83031e-08
1.72928e-06
2.88187e-07
2.91201e-07
5.29242e-07
2.68179e-08
-2.36216e-07
-2.44565e-07
-1.0491e-07
8.9029e-08
-1.79915e-07
-3.34146e-07
4.09119e-07
-1.16467e-07
2.55835e-08
7.40227e-08
1.21075e-07
-3.70799e-07
3.28382e-07
-3.15832e-07
1.87909e-06
6.10662e-07
-1.39683e-06
-1.09291e-06
-1.63549e-06
-1.60591e-06
-2.30674e-07
-7.94127e-07
-1.15762e-06
-6.78963e-07
6.61674e-07
-2.61336e-06
-1.4142e-06
3.0151e-06
8.09336e-07
-3.67963e-06
-1.44928e-07
-2.31775e-06
4.80836e-06
5.24577e-07
1.41759e-06
3.01238e-06
9.13401e-06
-4.49639e-06
-9.06167e-06
5.89825e-06
7.65982e-06
5.49912e-06
1.63441e-05
1.66431e-06
-5.22684e-06
-6.48302e-06
-1.77165e-05
6.51474e-06
3.34638e-06
-2.41217e-05
8.06941e-06
-2.28337e-05
5.59245e-06
-8.34255e-06
7.42377e-06
-1.30675e-06
2.95556e-06
9.71825e-06
1.05097e-05
2.64121e-05
-2.06895e-06
7.55658e-06
-1.54591e-05
-2.4034e-05
7.17519e-06
-1.80831e-05
1.22879e-05
-1.0101e-05
-2.62209e-05
1.24538e-05
7.00928e-06
-4.40555e-06
-5.13751e-06
-8.54004e-06
1.00521e-05
2.07305e-05
1.77546e-06
2.26023e-05
1.09268e-05
1.01661e-05
-1.04816e-05
9.9773e-06
1.07394e-06
1.25504e-05
7.59304e-06
-1.39994e-05
8.89762e-07
-1.05041e-06
3.50362e-07
-4.44402e-07
6.34735e-07
6.99428e-07
-2.58088e-07
-1.23672e-06
3.14456e-07
-2.68441e-07
-3.04103e-07
1.51667e-07
2.10842e-06
-1.32202e-06
2.19034e-06
1.42227e-08
4.17933e-08
4.46179e-08
3.40002e-08
4.61067e-08
-7.84857e-09
7.07156e-08
-1.08974e-07
1.87558e-08
9.90261e-09
1.74482e-08
2.67248e-09
8.23477e-09
1.91792e-08
-7.86484e-09
-8.64197e-09
-8.8925e-09
3.63065e-08
2.2625e-08
-2.05872e-08
8.44481e-08
-7.35409e-09
1.43816e-08
-3.92594e-08
3.22323e-08
1.66599e-08
-8.98672e-09
-1.50273e-08
-4.28253e-09
3.53239e-08
6.63431e-09
9.18495e-09
-5.50788e-08
-2.64282e-09
2.90247e-10
8.70303e-08
-4.10329e-08
-5.02799e-08
-2.43639e-07
3.65993e-07
-7.7089e-08
3.34133e-08
-3.11543e-07
-1.34608e-08
-1.24214e-07
-2.81979e-08
-2.07491e-07
-1.60126e-08
9.23271e-09
1.54444e-08
-8.66455e-09
4.80326e-08
4.22676e-10
-6.44679e-08
6.04186e-09
5.12234e-08
-1.85217e-08
8.20652e-08
-4.80991e-08
5.11776e-08
-6.92766e-08
6.18453e-08
-9.82901e-09
-4.59745e-08
3.31775e-10
1.12737e-07
-1.0339e-07
1.85787e-07
-6.20415e-08
6.70509e-09
1.09058e-08
1.92841e-09
-1.95392e-08
5.84681e-09
4.50288e-09
-3.64465e-09
8.11059e-09
-1.57105e-09
1.82733e-08
-1.21994e-08
-2.02299e-08
-6.49241e-08
1.09341e-07
3.77973e-08
1.07262e-08
3.14784e-09
-5.11786e-09
-2.22001e-08
-2.14526e-08
8.00432e-09
1.61676e-08
-2.71939e-09
5.82048e-08
1.38674e-08
-9.35247e-08
2.61297e-08
4.00794e-08
-8.56726e-09
7.43158e-08
-4.9581e-08
6.01013e-08
-5.48012e-08
4.3147e-08
4.3084e-08
1.57542e-07
-2.49239e-07
7.71522e-08
2.09884e-07
2.53518e-08
4.8286e-07
-7.57451e-07
5.65295e-08
-4.18958e-08
2.11162e-07
-8.14998e-08
2.25391e-07
-6.66753e-08
4.68036e-07
8.11671e-08
1.16405e-08
-1.93645e-07
-8.43559e-07
1.02556e-06
-1.1002e-06
1.01775e-06
9.40864e-08
6.75942e-08
-1.36144e-06
3.4808e-07
-8.77762e-08
-7.99711e-08
5.22137e-07
1.72501e-06
-1.73739e-06
7.93677e-07
-1.66093e-07
-1.49013e-07
-4.63325e-07
7.78431e-07
9.44364e-07
-9.54723e-07
-1.55733e-07
3.35869e-07
4.59482e-07
-6.41503e-07
2.49532e-07
7.2784e-07
-3.2551e-07
1.43489e-07
1.48122e-06
-2.18641e-06
6.92387e-07
-7.45783e-06
-5.80578e-06
-4.5282e-06
1.77918e-05
-2.48946e-06
3.58581e-06
-8.55418e-06
-7.40559e-06
-8.89674e-07
-2.14202e-06
-4.97492e-06
2.58873e-06
-6.22913e-06
7.67292e-06
1.25487e-05
-2.49293e-05
5.42995e-06
4.09124e-06
5.62489e-06
1.43172e-06
-1.11479e-05
-3.28405e-07
-1.8246e-06
6.24425e-06
7.11856e-06
-1.82207e-06
1.36967e-05
-2.51004e-06
-1.30113e-05
-6.24746e-08
2.00034e-05
-1.03425e-05
1.73986e-05
-1.14209e-05
-2.58029e-06
-2.87628e-06
-4.45529e-06
9.91185e-06
-1.03803e-06
-2.99505e-06
1.45278e-06
-1.06793e-06
-2.8464e-06
-2.00349e-07
-4.61942e-06
1.82472e-06
-3.79653e-06
-8.59119e-07
-3.88327e-06
-9.81196e-07
-1.13491e-05
-1.58831e-06
2.93082e-06
-4.26632e-06
2.92382e-06
3.64043e-06
-3.78786e-06
-1.44089e-06
-2.29953e-06
8.87076e-06
3.30806e-06
3.66209e-06
-1.0758e-05
5.74978e-06
-3.88261e-06
8.75906e-07
1.91071e-06
8.75458e-07
1.91396e-06
4.71172e-06
-8.08903e-07
4.2334e-07
-3.16453e-06
-4.22951e-06
-5.58481e-07
2.47055e-06
2.31745e-06
2.36759e-06
-1.16429e-06
-5.43282e-06
-7.06185e-07
2.51529e-06
5.05334e-06
-2.83572e-06
4.56036e-07
7.11258e-06
1.35505e-06
-4.66235e-07
-3.72454e-06
-5.28248e-07
2.33934e-06
1.35106e-06
-2.98159e-06
3.29333e-06
7.23863e-07
4.81576e-07
1.09246e-07
-1.31468e-06
-4.25969e-08
5.77219e-07
1.89232e-07
-1.98774e-07
6.37748e-07
1.56105e-06
4.15336e-07
-1.86714e-06
5.72232e-08
2.08104e-06
1.9847e-06
-1.76814e-06
2.67966e-06
4.39039e-06
3.07101e-06
4.93297e-06
-1.23944e-05
-3.08257e-06
3.28464e-06
4.18831e-06
9.4408e-06
-9.45237e-06
2.12158e-06
-1.03402e-05
1.15033e-05
-5.50029e-06
1.18102e-05
-8.31753e-06
-1.37248e-05
-1.08981e-05
-4.33818e-06
1.91612e-06
1.33201e-05
3.72047e-06
-3.50431e-06
-1.11142e-05
-4.88437e-06
4.26666e-06
-1.10777e-05
-3.23167e-06
1.62255e-05
1.41615e-06
-1.59982e-05
1.29913e-05
-1.64595e-05
1.40263e-05
1.43956e-05
3.98374e-06
-1.32538e-05
-4.87708e-06
1.56836e-05
-4.34561e-06
3.45226e-06
1.20068e-05
1.11483e-05
-1.59112e-06
2.60896e-06
1.5386e-06
-2.55643e-06
8.73053e-06
-4.09587e-06
-6.22578e-06
-2.0659e-06
1.34054e-05
-4.04576e-06
2.34875e-06
3.23561e-06
-5.71822e-07
-6.03041e-06
5.28023e-06
-9.94793e-06
5.56303e-06
-4.7469e-06
-8.64569e-06
-3.74361e-07
1.37669e-05
-7.72256e-07
8.37394e-07
-4.81204e-06
-4.25901e-06
-5.15895e-06
-9.3379e-06
6.29903e-06
3.87626e-06
1.18142e-06
-1.53314e-05
9.25535e-06
-1.23329e-05
1.518e-05
-4.24955e-06
3.31724e-07
3.519e-06
3.98823e-07
3.87791e-06
3.55941e-06
-1.16869e-05
3.93373e-06
2.75903e-07
1.65784e-06
3.4055e-06
-1.50394e-06
3.48895e-06
1.68789e-06
-5.10734e-06
1.253e-05
-1.42597e-06
-2.40215e-06
-6.42105e-07
5.33954e-07
2.51029e-06
4.89954e-06
4.76471e-06
-1.20664e-05
4.62381e-06
-3.66383e-07
1.1566e-06
-1.13144e-06
5.08796e-07
-1.04642e-06
4.71333e-06
7.88754e-07
2.84447e-06
4.36613e-06
3.58695e-07
4.40898e-06
-4.33384e-06
-4.33831e-07
5.49517e-06
-3.73549e-06
-1.40099e-06
-4.35727e-06
1.42615e-05
4.51982e-06
3.55096e-06
-1.24047e-05
3.71958e-06
1.64023e-06
-1.82479e-06
1.00253e-06
-2.06067e-06
-6.8094e-06
-6.24327e-06
1.51134e-05
4.64237e-07
-1.24584e-07
-2.40034e-06
-6.95447e-06
6.09281e-07
-2.90609e-06
2.49422e-06
2.873e-07
1.63765e-06
-6.94409e-06
4.55449e-06
-9.87133e-06
5.02883e-06
2.01986e-06
-6.0521e-07
4.38666e-06
2.10451e-06
-1.34353e-05
4.43808e-06
2.35872e-07
-7.96456e-06
1.44225e-05
-6.49462e-06
-1.23408e-06
6.75709e-06
-9.5786e-07
1.42415e-06
-7.22341e-06
-3.84526e-06
-5.24191e-06
-1.0622e-06
-3.74092e-06
-7.21067e-06
7.89541e-06
-1.74693e-06
4.65394e-06
-1.56055e-05
-5.02973e-06
1.21196e-06
1.25439e-05
1.54095e-05
-6.64596e-07
6.42875e-06
3.48069e-06
4.99244e-07
-5.13223e-06
4.49115e-06
1.41845e-07
-5.12542e-06
5.25273e-06
3.7193e-07
4.33925e-06
-1.4597e-05
-6.31631e-06
-5.19943e-06
1.67685e-05
-4.70307e-06
-1.24136e-06
1.56879e-06
-1.93263e-06
8.60535e-07
-6.7475e-06
-5.76712e-06
-5.72243e-06
-2.82698e-07
-5.41435e-06
-1.05051e-06
-2.03368e-07
-5.84646e-06
-6.53576e-06
5.30777e-06
1.02463e-06
4.94166e-06
-1.73239e-05
1.60935e-06
-2.08206e-06
1.19472e-06
1.35545e-06
5.75134e-06
-1.26398e-06
-5.84281e-06
5.60644e-06
-6.20229e-06
1.95129e-06
-6.99588e-06
1.83537e-05
-4.8078e-06
5.94206e-06
-2.39818e-06
7.1973e-06
-1.7848e-05
-2.27792e-07
1.22278e-06
-1.2816e-06
-6.31863e-07
-4.33065e-06
-7.76674e-06
-1.85347e-05
-1.14939e-09
-7.03867e-06
5.45847e-06
1.58136e-06
-6.10019e-06
6.08469e-06
1.4346e-08
4.89242e-06
-1.80313e-05
-7.40904e-06
-5.62058e-06
1.91144e-05
-5.54989e-06
-1.84486e-06
1.93048e-06
-2.58796e-06
1.76841e-06
2.58704e-07
6.46193e-06
-6.65936e-06
-6.12785e-08
9.43646e-06
-1.1035e-05
-1.07438e-05
-1.35008e-05
2.47194e-06
-2.01663e-05
-9.16446e-06
-1.64058e-06
-2.01933e-05
1.36891e-05
1.09424e-05
-3.95003e-06
-2.06814e-05
-9.68901e-06
-9.99468e-06
-6.00934e-06
-3.87201e-07
5.76735e-07
-8.85904e-06
-1.71237e-06
-5.81981e-06
-1.86289e-05
-2.8143e-07
8.56941e-06
-3.51293e-06
-4.77503e-06
1.1e-05
-4.46051e-06
-6.8209e-06
-1.45196e-05
-1.16217e-05
-1.87902e-06
-1.39336e-06
-2.40559e-07
-2.21885e-07
-6.11764e-06
8.02662e-06
-2.2768e-05
-4.9884e-06
-4.36399e-06
-5.41098e-06
-1.53846e-06
1.13134e-05
-1.36869e-06
-5.0089e-06
2.01358e-06
-5.24517e-06
-1.53448e-06
-6.60835e-06
-1.10971e-05
1.6167e-05
-9.1088e-06
-2.50844e-06
8.30263e-06
-2.26566e-05
-4.32893e-06
-1.21577e-05
-5.10911e-07
7.99718e-06
4.67148e-06
4.6828e-06
3.65244e-06
-2.04931e-05
-7.46679e-07
4.91857e-06
1.44144e-05
-9.63377e-06
-5.52736e-06
-3.23936e-06
2.25723e-05
-3.22543e-06
7.88955e-06
3.33311e-06
5.16209e-06
-4.73512e-06
1.65252e-05
-2.09968e-05
2.11754e-05
1.83524e-06
-3.94514e-06
6.87739e-06
-4.76743e-06
-6.27478e-06
6.03509e-06
2.07493e-06
8.60708e-06
-1.88271e-05
-3.93434e-06
-8.89799e-06
1.88675e-05
-6.82945e-06
-2.31385e-06
4.09146e-06
-4.33445e-06
8.11773e-06
1.43899e-05
1.22747e-06
2.44369e-06
-2.4196e-06
8.09364e-06
9.19223e-06
7.6414e-06
1.37333e-05
-1.00186e-05
-1.52288e-06
2.33498e-05
1.54461e-05
2.66925e-06
-9.51433e-06
9.27198e-06
-2.4269e-06
-1.85325e-05
9.33244e-06
-2.68231e-05
-1.67843e-05
2.70603e-05
-7.67274e-06
-1.49412e-05
-2.21681e-06
9.48529e-06
8.48689e-06
5.66011e-07
-2.39941e-05
-3.33917e-06
9.60924e-06
1.86631e-05
-1.10326e-05
-1.09698e-05
-1.62535e-06
2.98977e-05
1.75233e-05
-2.79899e-05
-1.11878e-05
-9.53718e-07
9.85084e-06
2.29067e-06
1.73805e-05
1.19796e-05
2.08745e-05
-4.44786e-06
-8.11617e-06
-7.68596e-06
2.5653e-05
-1.62931e-05
1.04676e-05
-3.46597e-06
-6.17607e-06
1.95603e-06
-5.72783e-06
-1.40313e-05
4.64356e-06
1.60822e-06
1.9342e-05
-6.30682e-06
1.04975e-05
1.95203e-05
-2.3711e-05
1.04672e-05