/*--------------------------------*- C++ -*----------------------------------*\
| =========                 |                                                 |
| \\      /  F ield         | OpenFOAM: The Open Source CFD Toolbox           |
|  \\    /   O peration     | Version:  v2012                                 |
|   \\  /    A nd           | Website:  www.openfoam.com                      |
|    \\/     M anipulation  |                                                 |
\*---------------------------------------------------------------------------*/
FoamFile
{
    version     2.0;
    format      ascii;
    class       volVectorField;
    location    "0.05";
    object      U;
}
// * * * * * * * * * * * * * * * * * * * * * * * * * * * * * * * * * * * * * //

dimensions      [0 1 -1 0 0 0 0];


internalField   nonuniform List<vector> 
6576
(
(0.0514202 -2.46935 -0.0918147)
(-0.135974 -2.54905 0.113663)
(-0.0455877 -2.60622 0.0205642)
(0.0661674 -2.42108 -0.091626)
(-0.00422438 -2.50704 0.00850478)
(-0.11518 -2.6488 0.116758)
(-0.0215406 -2.56971 0.0474501)
(0.0221474 -2.49769 0.000497345)
(0.0235815 -2.08505 -0.0171932)
(0.0241351 -2.43391 -0.0014373)
(-0.0189454 -2.52803 -0.0272296)
(-0.0257003 -2.59824 -0.0231964)
(-0.00296115 -2.58234 0.00719155)
(0.0106404 -2.47985 -0.00186068)
(0.0904426 -2.43309 0.0369303)
(0.0162458 -3.03797 -0.0504608)
(0.0952215 -1.4458 0.0539799)
(0.0261295 -2.86082 -0.0254692)
(0.0818018 -2.59922 0.0952557)
(0.0247325 -2.47096 0.00468)
(0.0699747 -2.29339 0.0735687)
(0.00303872 -2.53315 0.0215129)
(0.0151581 -2.44318 0.0123035)
(-0.00829796 -2.50059 -0.0206459)
(0.00435838 -2.67229 0.0174284)
(0.0784996 -2.54586 0.0815852)
(0.0970118 -2.49458 0.098169)
(-0.00107015 -2.43129 0.023178)
(-0.0101408 -2.63512 -0.0492684)
(0.00328287 -1.61579 -0.0104109)
(-0.0759255 -2.61425 0.0911775)
(-0.0392791 -2.42476 -0.0143693)
(-0.0131477 -2.58608 -0.00198499)
(0.0141411 -2.42298 0.0448548)
(0.0209133 -2.44331 0.0515671)
(-0.0278141 -2.0901 0.0165569)
(0.00843773 -2.71548 0.0208577)
(-0.0170157 -2.60181 0.0172704)
(0.0263523 -2.47035 0.0368036)
(0.013654 -2.45755 0.0260727)
(0.000886158 -2.21576 0.0466579)
(-0.023665 -2.46025 0.0107165)
(-0.00389535 -2.34945 0.00649787)
(-0.0337813 -0.00243116 -0.0209781)
(-0.00174052 0.0347585 0.0142317)
(-0.006876 0.0317725 0.0408777)
(-0.0112426 -0.0087629 -0.0320267)
(-0.0443207 -0.0317049 -0.0352885)
(0.013127 -0.00712874 0.0100409)
(-0.0140109 -0.0377881 0.00848565)
(-0.0122951 0.0466891 -0.0100165)
(0.0223015 0.0292696 0.0291887)
(-0.010187 0.297696 -0.0303668)
(0.0119051 0.287839 0.0367218)
(0.00609916 0.281845 0.00317617)
(-0.00160589 0.293036 0.0440934)
(-0.0150212 0.28591 -0.00209619)
(-0.016003 0.270493 -0.00668779)
(0.0132617 0.283197 0.0143621)
(-0.012698 0.300261 -0.0166898)
(-0.0330064 0.293596 0.0237643)
(0.00911091 0.305367 -0.0313529)
(0.0061132 0.281634 0.00923876)
(0.0182024 0.282746 -0.00819104)
(0.00501233 0.299318 0.0288331)
(-0.0203255 0.300863 0.0512548)
(0.00898102 0.2655 0.0198907)
(0.00641603 0.270428 -0.00273494)
(0.00537096 0.259979 -0.0308741)
(0.0247975 0.302353 0.0104369)
(-0.00206495 0.288754 0.0289499)
(0.00195363 0.293803 0.00932157)
(-0.0337021 0.294243 0.0459948)
(-0.000578434 -0.104298 0.110118)
(-0.010045 -0.0991056 0.0953666)
(-7.77316e-06 -0.123178 0.0882115)
(-0.0102519 -0.125115 0.0695798)
(0.00888745 -0.117498 0.0750679)
(0.0106356 -0.135781 0.0534765)
(-0.00483922 -0.151366 0.0590972)
(0.000259948 -0.0838918 0.101981)
(-0.00138867 -0.0764445 0.089115)
(0.00491512 -0.0908014 0.108861)
(-0.00378788 -0.082617 0.107887)
(0.0062984 -0.0732973 0.0916716)
(0.0141695 -0.0799656 0.0845941)
(0.0127929 -0.078299 0.117497)
(-0.157283 -0.182692 0.168125)
(0.209795 0.0839659 -0.143333)
(0.0145143 -0.299365 -0.127236)
(-0.237626 -0.327699 -0.0449091)
(-0.0559084 -0.12148 0.241243)
(-0.217346 -0.385269 -0.187781)
(-0.197554 -0.32636 0.28378)
(-0.0113322 -0.00359054 -0.000920589)
(-0.00377693 -0.0545797 -0.0254734)
(-0.0143059 -0.0187905 0.0123285)
(-0.0231031 -0.042269 0.025847)
(0.083372 -0.0832326 -0.124122)
(0.0442687 -0.00663358 -0.0638866)
(-0.0595873 -0.0660509 0.00890031)
(-0.00218445 0.00103439 0.00743774)
(-0.000238732 -0.000795613 0.0103968)
(8.32521e-05 -0.00484589 0.00801475)
(0.000533941 -0.00256352 0.00566122)
(-0.000187623 -0.00207321 0.00288934)
(0.00111654 -0.00417551 0.0040147)
(0.00172627 -0.00275071 0.00256924)
(0.0031783 0.0041196 0.00797455)
(5.39986e-06 0.0027037 0.00187995)
(-0.00301849 -0.00020711 0.00218765)
(-0.00362666 0.0147731 0.00526558)
(-0.00891728 0.00394624 0.0041832)
(-0.00476057 -0.00267059 0.00587705)
(0.0704932 -1.09 -0.0455374)
(0.00452137 -1.20296 0.00243662)
(0.046443 -1.17063 -0.0347258)
(-0.0351779 -1.2593 0.015815)
(-0.0192933 -1.24142 0.0708118)
(0.0208175 -1.2104 -0.0176943)
(0.0315869 -1.22421 -0.044446)
(-0.0465038 -2.31004 -0.0043777)
(0.0704954 -2.49952 0.0700386)
(-0.0177935 -2.35405 -0.00034018)
(0.00454983 -2.53895 -0.0361852)
(-0.0880357 -2.47061 -0.06337)
(0.111738 -2.64568 0.109808)
(0.00549145 -2.36277 -0.00119207)
(0.0112871 -1.55238 0.0185294)
(0.0416349 -1.57067 -0.0256508)
(-0.00757088 -1.52038 -0.0508008)
(0.00819836 -1.39342 -0.377317)
(-0.0690045 -1.48748 -0.255241)
(-0.0433984 -1.39582 -0.338388)
(-0.113347 -1.48496 -0.276838)
(0.00193134 0.166209 0.182019)
(-0.00869629 0.186497 0.162527)
(0.00128922 0.18663 0.14728)
(-0.00322971 0.144639 0.190304)
(0.00291286 0.158705 0.202581)
(-0.0118305 0.166858 0.181637)
(0.000581804 0.16763 0.163909)
(0.0166077 0.244521 0.187568)
(0.000649208 0.205863 0.241727)
(-0.0086325 0.23826 0.21313)
(0.000201902 0.173487 0.232524)
(0.000630494 0.196102 0.24521)
(-0.0111725 0.205922 0.21883)
(0.015884 0.204727 0.199898)
(-0.00802089 0.279906 0.209872)
(-0.00642794 0.243977 0.137893)
(0.013913 0.274684 0.194396)
(-0.0246146 0.245712 0.172993)
(-0.00187359 0.249636 0.147738)
(0.00130033 0.286618 0.196258)
(-0.0233193 0.259695 0.201423)
(-0.00477173 0.267468 0.231365)
(-0.0121582 0.267964 0.233216)
(0.000761056 0.272934 0.251903)
(-0.0121286 0.253973 0.236668)
(-0.0256873 0.271244 0.249216)
(-0.012581 0.265128 0.263549)
(-0.00573965 0.262514 0.265423)
(-0.0219087 0.253188 0.25382)
(-0.00761054 0.24994 0.256658)
(-0.00368195 0.295329 0.155867)
(-0.00453217 0.301587 0.205652)
(-0.0185782 0.283136 0.236886)
(-0.00944541 0.268956 0.209982)
(0.0109415 0.302699 0.17481)
(-0.00989801 0.302446 0.219315)
(-0.0162574 0.250124 0.226874)
(-0.0151737 0.359753 0.249511)
(0.0482295 0.36589 0.20891)
(-5.26098e-07 0.352106 0.334014)
(-0.0144559 0.382228 0.19663)
(0.0739272 0.405557 0.121429)
(0.0101169 0.31872 0.298928)
(-0.0295747 0.277684 0.257124)
(0.0391836 0.361221 0.177815)
(-0.00845501 0.337088 0.27755)
(0.0208638 0.470471 0.184227)
(0.00121626 0.45932 0.142079)
(-0.00675826 0.450451 0.166906)
(-0.00299707 0.505311 0.172862)
(-0.00228376 0.494897 0.130364)
(0.0182105 0.497323 0.163746)
(-0.0515569 0.48758 0.200382)
(-0.0242693 0.502302 0.186507)
(0.0288893 0.514689 0.137358)
(0.0148503 0.43752 0.132895)
(0.00480488 0.466351 0.14399)
(-0.00248769 0.43036 0.112296)
(-0.0113873 0.428754 0.169727)
(0.00264875 0.415318 0.175255)
(-0.0320533 0.397834 0.120839)
(0.0234894 0.395538 0.107231)
(-0.000685469 0.414788 0.174721)
(0.00159471 0.536409 0.15073)
(0.0348374 0.603306 0.146478)
(0.0146154 0.533624 0.190932)
(0.0167686 0.462689 0.146815)
(0.0431355 0.582859 0.141383)
(0.0581293 0.702549 0.156067)
(0.0189264 0.754045 0.00987465)
(-0.0544333 0.621368 0.0847705)
(-0.0661814 0.505463 0.153555)
(0.0513502 0.619156 0.129048)
(0.0484171 0.598157 0.0848865)
(0.0567598 0.628809 0.135908)
(0.0424241 0.620916 0.198827)
(-0.12083 -1.32773 -0.450748)
(-0.125427 -1.25014 -0.477933)
(-0.0139111 -1.19502 -0.43842)
(0.112157 -1.29901 -0.372549)
(0.138334 -1.20124 -0.304941)
(-0.00470283 -1.5537 -0.374423)
(-0.0575996 -1.40579 -0.454205)
(-0.00422595 0.443864 0.0782117)
(0.00013678 0.420869 0.0683826)
(0.0161356 0.432311 0.0829343)
(-0.0046746 0.424609 0.102408)
(0.00213855 0.419713 0.0850643)
(0.0043353 0.395904 0.0736389)
(0.0127249 0.410867 0.0909597)
(-0.0058828 0.447931 0.145375)
(0.00105955 0.432225 0.115029)
(0.00257179 0.416101 0.160049)
(0.0154907 0.439773 0.0937714)
(0.0207557 0.452701 0.127458)
(0.00939212 0.443134 0.139995)
(-0.0033169 0.434781 0.141792)
(0.000390792 0.458524 0.116792)
(0.0177745 0.434893 0.192242)
(-0.00835022 0.455933 0.14783)
(-0.0163506 0.438506 0.121552)
(0.00893327 0.448854 0.166813)
(0.0313637 0.446129 0.199303)
(-0.0123221 0.43412 0.152312)
(-0.0140516 0.425276 0.198525)
(-0.000339935 0.390513 0.135306)
(-0.00756914 0.386946 0.22998)
(0.0248015 0.330918 0.125944)
(0.00290439 0.359694 0.127427)
(0.0272293 0.312263 0.142373)
(-0.0138591 0.382596 0.161047)
(0.00132783 0.327086 0.155096)
(0.0123871 0.299537 0.199623)
(0.0182246 0.309117 0.17447)
(-0.0123338 0.348664 0.185705)
(-0.0230725 0.350742 0.211872)
(0.000854372 0.322997 0.190993)
(-0.0157508 0.314363 0.203408)
(0.0118552 0.294346 0.194718)
(0.0127485 0.299978 0.175682)
(-0.00386194 0.249017 0.124825)
(-0.000449972 0.280831 0.171814)
(0.0113427 0.264453 0.140817)
(-0.0202238 0.292272 0.169406)
(0.000105098 0.290877 0.176618)
(-0.038674 0.278707 0.17769)
(-0.0196791 0.281618 0.174026)
(0.00197142 0.168572 0.0345454)
(-0.0115785 0.199665 0.0811421)
(-0.0343438 0.192691 0.0817381)
(-0.0143843 0.199705 0.0570571)
(0.0212587 0.186563 0.0416757)
(-0.0158002 0.204322 0.0845578)
(-0.0514277 0.192434 0.0856699)
(0.00154628 -0.000724176 0.000181936)
(-0.00136329 0.00224532 -0.00367399)
(0.000268701 0.0012741 0.000337172)
(0.00119521 0.000279041 0.00112676)
(-3.32966e-05 0.00478157 -0.000750311)
(-0.00118152 0.00896195 0.00515182)
(-0.000979111 0.00274444 0.00553281)
(-0.00676252 0.00486734 0.00295283)
(-0.00169528 0.00413232 0.00413676)
(-0.0183502 -0.0122551 -0.00541465)
(-0.0286794 -0.0564709 -0.0203758)
(0.0273375 -0.146933 -0.00522455)
(0.0024142 0.00958222 0.0424348)
(0.0278514 0.0212202 0.0385309)
(0.0658311 -0.016427 0.0682786)
(-0.0505329 0.0464523 -0.00461708)
(-0.112555 -0.0634473 0.0392388)
(-0.292781 -0.183362 0.256624)
(-0.106508 -0.565047 -0.725916)
(0.0848365 -0.60039 -0.565546)
(0.149986 -0.485168 -0.334419)
(-0.552356 -0.570259 0.383928)
(-0.276523 -0.0309895 -0.0797741)
(0.0847054 -0.172458 0.030658)
(0.0105392 0.144544 0.119899)
(-0.015642 -0.0153045 -0.0241557)
(0.0406366 0.0998271 -0.004274)
(0.0204442 0.0360912 9.52511e-07)
(-0.771733 0.8558 0.105607)
(1.35567 -1.39919 0.0482863)
(1.28836 0.662364 -0.0105774)
(-2.25961 1.20707 0.00611434)
(1.07503 -0.850868 -0.203748)
(0.0302059 -0.340057 -0.320182)
(-1.1095 1.12734 0.0212877)
(-0.0162032 0.0379063 -0.108386)
(0.0104742 0.042384 -0.112641)
(0.00076877 0.0257988 -0.095365)
(0.0388626 0.0913047 -0.146737)
(-0.0119009 0.0697472 -0.129537)
(-0.00372923 0.0544697 -0.109392)
(0.0225218 0.0718256 -0.122678)
(0.0180673 -0.733548 -0.294778)
(-0.0972853 -0.604658 -0.36202)
(-0.00568703 -0.681317 -0.443324)
(0.0776181 -0.796453 -0.286988)
(-0.0131098 -0.684749 -0.353458)
(0.214219 -0.985848 -0.8587)
(0.0257575 -0.965567 -0.775904)
(-0.0772387 -0.881437 -0.58023)
(-0.0661964 -0.849517 -0.434303)
(-0.000152265 0.0191477 -0.143074)
(0.00335531 -0.0171226 -0.176065)
(-0.0110472 -0.00254468 -0.173016)
(0.0349469 -0.00161644 -0.150031)
(-0.00377389 0.0147839 -0.147315)
(0.0282858 -0.0286517 -0.182904)
(-0.00459038 -0.0131579 -0.177717)
(-0.0118788 -0.270391 0.150782)
(-0.00634552 -0.151906 -0.0985431)
(-0.181454 -0.652746 0.260643)
(-0.00382778 -0.233845 -0.00582918)
(-0.0934821 -0.281912 0.318501)
(-0.474792 -0.639524 0.500448)
(-0.227911 -0.180729 0.193789)
(-0.216883 0.327548 -0.114844)
(-0.041674 0.126694 -0.0619216)
(-0.269938 -0.0305213 0.280166)
(0.100371 0.0425178 0.0394569)
(0.364699 0.245485 -0.149411)
(0.396553 0.157645 -0.48426)
(-0.0317087 0.363966 -0.0256845)
(-0.54099 0.805574 0.24823)
(0.210164 0.594366 -0.249063)
(0.262865 -0.204367 0.38735)
(0.315659 -0.0241545 0.505648)
(-0.0928573 -0.28476 -0.309703)
(-0.0124298 -0.415122 0.727618)
(0.559174 -0.0205043 0.540133)
(-0.336739 -0.567161 0.0615936)
(0.286931 -0.254036 0.298701)
(0.46356 -0.0920753 0.427206)
(-0.411816 -0.683245 0.549703)
(0.000123642 0.000184358 -0.00327852)
(1.05158e-05 0.000512008 -0.00264286)
(0.000285285 5.69439e-05 -0.00331492)
(-2.48379e-05 0.000545406 -0.00262938)
(0.000385323 0.000377073 -0.00342819)
(0.000365422 -0.00064327 -0.00281776)
(0.000472364 0.000280282 -0.00332653)
(-0.000567869 0.00090923 0.00416234)
(-0.00241366 -0.000546504 0.00139788)
(-0.000783541 2.67431e-05 0.00105965)
(-0.00068446 0.00165149 -0.00292291)
(-0.00116346 0.00234422 -0.00174609)
(-0.00381671 0.0149077 0.000399796)
(0.00323526 0.00832278 -0.00740893)
(-1.91389e-05 0.00530949 0.0017037)
(-8.42688e-05 0.00145967 0.00444713)
(0.0104373 -0.0286864 0.0309724)
(-0.0222806 0.021875 0.0342313)
(0.000523826 -0.0393286 0.00454035)
(0.00353379 0.000677524 0.00835677)
(0.00202972 -0.0156609 0.015451)
(0.00532124 -0.0161072 -0.0326919)
(-0.0276156 -0.0443653 -0.0175115)
(0.0548264 -0.131281 0.372616)
(-0.170818 0.172354 0.115191)
(-0.0533851 0.273353 1.10755)
(0.16647 -0.612178 0.55226)
(-0.424928 -0.0585305 0.861724)
(-0.70155 0.385771 0.574304)
(-0.132991 -0.00802561 0.457853)
(0.00485456 0.0187581 -0.112674)
(-0.000984497 0.0344618 -0.103012)
(0.00111095 0.0203827 -0.113211)
(-0.0036264 0.0247119 -0.0950951)
(-0.0015192 0.0338999 -0.103298)
(-0.00412875 0.0247325 -0.095353)
(-0.00133802 0.0323112 -0.102715)
(-0.000133702 0.0251611 -0.108769)
(-0.00124536 0.0166337 -0.102368)
(-0.0109392 -0.033801 -0.111747)
(0.0407822 -0.0559177 -0.113634)
(-0.000721831 -0.0169873 -0.0927961)
(0.00659771 -0.0428102 -0.121709)
(-0.00868863 -0.0242577 -0.121979)
(0.0497251 -0.0867938 -0.153856)
(0.000384021 -0.0483143 -0.138284)
(0.0357803 -0.102237 -0.134599)
(-0.00247242 -0.0693632 -0.0948173)
(-0.010445 -0.102437 -0.125509)
(0.0132231 -0.0923911 -0.0979897)
(-0.0145689 -0.0756975 -0.108604)
(0.0103372 -0.0825696 -0.0928543)
(-0.00654177 -0.0737656 -0.10353)
(-0.00769638 -0.0877026 -0.112369)
(0.00881943 -0.0922267 -0.0976324)
(0.00373126 -0.323472 0.0829396)
(0.00326591 -0.320804 0.162931)
(0.0526569 -0.371775 0.184502)
(0.0453858 -0.411673 0.187866)
(-0.0470855 -0.385578 0.1576)
(-0.00852536 -0.414031 0.232895)
(0.116422 -0.489963 0.287294)
(-0.00175598 -0.36057 0.067219)
(-0.0549758 -0.448065 -0.0577287)
(0.036493 -0.457679 0.0452191)
(0.0643744 -0.391982 0.0626091)
(0.0181595 -0.325327 0.0268876)
(0.0039155 -0.381336 -0.0345529)
(0.116814 -0.505234 0.0373893)
(5.07193e-05 0.318142 0.0894741)
(0.0278428 0.340037 0.140179)
(0.0292742 0.333098 0.122978)
(-0.00533121 0.335057 0.126359)
(-0.0136407 0.353577 0.109555)
(0.0132989 0.340793 0.150405)
(0.0175369 0.355202 0.13552)
(0.00188842 0.321213 0.0931155)
(-0.0178857 0.339759 0.0961202)
(-0.00597312 0.299151 0.122794)
(-0.0137633 0.33877 0.0662805)
(0.0165771 0.320492 0.074332)
(0.035199 0.31968 0.0876163)
(0.00188597 0.329162 0.0861491)
(-0.00193214 0.287526 0.0546197)
(0.0304773 0.323606 0.0775234)
(0.0204996 0.317617 0.071983)
(-0.0149735 0.319009 0.0568031)
(-0.00994036 0.308925 0.0551497)
(0.0044688 0.318573 0.0795572)
(-0.00387283 0.331424 0.0797653)
(0.0288649 0.274699 0.0430079)
(0.0104062 0.270518 0.0407416)
(-0.00369718 0.260612 0.0199864)
(0.018512 0.263847 0.0318198)
(0.00580366 0.267497 0.0340207)
(-0.019612 0.277043 0.0474399)
(-0.0046246 0.271271 0.0542955)
(-0.0146763 0.270222 0.0429661)
(-0.00953389 0.267969 0.0437099)
(0.0537565 0.293718 0.0522439)
(0.0305351 0.291725 0.0276141)
(-0.00949084 0.263254 -0.0171338)
(-0.0142006 0.301044 0.00223151)
(0.000162161 0.285949 0.0296071)
(0.00444972 0.301657 0.0293401)
(0.0171352 0.283269 0.0475007)
(0.0138691 0.197526 0.00533134)
(-0.0009087 0.295183 -0.00195671)
(-0.0274916 0.299366 0.0276289)
(0.01335 0.29964 -0.0216364)
(0.0117311 0.278865 0.00528774)
(0.00891379 0.311447 -0.00418592)
(-0.0243119 0.310174 0.0349087)
(0.00151862 0.283152 -0.0503252)
(0.0331579 0.327083 -0.0118234)
(-0.0285883 0.318176 0.0130473)
(-0.0232567 0.312157 0.0211346)
(0.0187634 0.313789 -0.0233519)
(0.0219929 0.337753 0.00825924)
(-0.0646032 0.340014 0.0736672)
(0.00348741 0.373251 0.0489127)
(0.0169904 0.330287 -0.00560919)
(0.00235387 0.321014 0.0056325)
(-0.0152749 0.336686 0.0205126)
(0.0013242 0.366959 0.0349149)
(0.0165801 0.325377 -0.0197323)
(-0.0088916 0.306886 -0.00507267)
(-0.0061647 0.322567 -0.00160687)
(0.0118234 0.315588 -0.0195103)
(0.00220949 0.346281 -0.0347873)
(-0.00673112 0.323034 0.0275303)
(0.0276823 0.29609 0.00418444)
(0.00484065 0.320676 0.00836634)
(-0.0227343 0.324501 0.0346426)
(-0.00124728 0.329088 0.00638448)
(-0.032673 0.227457 -0.00129802)
(0.0251 0.311934 -0.0386022)
(-0.0117229 0.302873 0.0248633)
(0.0246728 0.202021 0.0044827)
(-0.011832 0.295222 0.00737509)
(0.028503 0.350368 -0.0180757)
(0.0784371 0.372039 -0.0664618)
(-0.0183411 0.329584 0.0511065)
(0.0707458 0.374939 -0.0572994)
(0.0144568 0.360266 -0.0315049)
(-0.0396166 0.327918 0.0285343)
(0.00946925 0.354517 -0.00639801)
(0.00036714 0.3442 0.0630493)
(-0.0104812 0.36268 0.0242234)
(0.00871371 0.342413 0.0443402)
(-0.00147256 0.325677 -0.000746369)
(-2.78883e-05 0.322273 0.0140225)
(-0.00129985 0.337437 -0.0125323)
(0.0244267 0.326745 -0.0126894)
(-0.0302721 0.376187 0.00940831)
(0.0116798 0.352767 -0.00416661)
(0.0108398 0.358836 -0.0231776)
(0.00327458 0.353331 -0.0154204)
(0.00668546 0.343352 0.0155738)
(0.0128698 0.346982 0.00846139)
(-0.00579705 0.342304 -0.0196995)
(-0.00824102 0.338142 -0.00277883)
(0.000605189 0.331287 0.011756)
(-0.00249805 0.328847 0.0149555)
(0.000732755 0.337863 0.0155492)
(0.00770275 0.342251 0.0140208)
(-0.00144751 0.339156 0.00766207)
(0.0115473 0.333342 0.013521)
(0.00651859 0.337773 0.0314736)
(-0.0210693 0.347611 0.00856379)
(-0.00337632 0.34066 0.0106172)
(-0.000533971 0.344435 0.0348421)
(-0.00621198 0.342601 0.0152519)
(-0.00283225 0.348894 0.0156576)
(0.00258894 0.340774 0.0145801)
(-0.014129 0.379245 -0.0174529)
(0.00933047 0.356419 0.036576)
(-0.00898421 0.360288 0.0257145)
(-0.0379095 0.360511 0.0384086)
(-0.0209605 0.354955 0.0590981)
(-0.0065511 0.344477 0.0361016)
(-0.0347827 0.361087 0.0378939)
(-0.00263022 0.329782 0.0397793)
(-0.00779738 0.340531 0.0487734)
(0.00976119 0.338598 0.0532533)
(0.0123864 0.367957 0.0551201)
(0.00418708 0.351286 0.0546936)
(0.0122392 0.357213 0.0504041)
(0.00237887 0.34932 0.0520143)
(-0.00990499 0.340133 0.0498968)
(-1.72546e-06 0.339382 0.0506158)
(-0.027128 0.3478 0.0749909)
(-0.00392301 0.354989 0.0790986)
(-0.00387268 0.345639 0.0226113)
(0.0289344 0.41581 0.0734272)
(0.0170866 0.390962 0.0688042)
(0.0236658 0.411707 0.106192)
(-0.00893878 0.396492 0.112193)
(-0.0031917 0.33113 0.0725667)
(-0.0176753 0.375679 0.0553931)
(-0.0032295 0.398322 0.0631441)
(0.0114277 0.356735 0.0722663)
(0.0214077 0.343832 0.0870807)
(-0.000373868 0.386467 0.0764566)
(0.00643405 0.405469 0.0870834)
(-0.0127611 0.360459 0.118956)
(-0.00082023 0.368725 0.0806298)
(-0.0127204 0.38741 0.101432)
(0.0207209 0.38007 0.143251)
(0.0237168 0.387378 0.118326)
(0.00451339 0.387789 0.126162)
(0.000544873 0.369561 0.149319)
(-0.00316849 0.31314 0.21146)
(0.00326122 0.303281 0.207498)
(-0.0222373 0.328454 0.207095)
(0.0125734 0.321856 0.192246)
(0.0134923 0.316527 0.181126)
(0.00332532 0.379996 0.208489)
(0.0199056 0.395584 0.226035)
(0.00292002 0.382763 0.143176)
(-0.021724 0.414476 0.198375)
(-0.00134492 0.38578 0.189499)
(0.0159098 0.430012 0.247179)
(0.0214375 0.391071 0.228943)
(-0.0126597 0.412185 0.27299)
(-0.0116782 0.383715 0.287264)
(0.0042277 0.357454 0.248506)
(0.038121 0.376576 0.31615)
(0.0887159 0.414681 0.354005)
(0.0780399 0.392285 0.342555)
(0.0716932 0.419832 0.322535)
(-0.0684819 0.682092 0.381453)
(-0.0706375 0.662739 0.394898)
(-0.00605162 0.657203 0.293117)
(0.0702761 0.785296 0.350472)
(0.0413805 0.840156 0.330613)
(-0.0798346 0.666943 0.346868)
(-0.0180224 0.683842 0.401074)
(0.068489 0.115606 -0.439257)
(-0.00123933 0.109847 -0.318103)
(-0.0256821 0.124879 -0.400439)
(0.0349774 0.0657708 -0.438928)
(-0.031434 0.1328 -0.428575)
(-0.0316168 0.158448 -0.489253)
(0.0648737 0.0739407 -0.456089)
(0.000541556 0.0796757 -0.256611)
(-0.0102486 0.104724 -0.295115)
(0.0272786 0.100036 -0.280997)
(0.00530254 0.0806318 -0.270532)
(-0.00494729 0.0915469 -0.255441)
(0.0114026 0.0820845 -0.283329)
(0.00183411 0.0951483 -0.267708)
(-0.0138868 0.102639 -0.288739)
(0.000704282 0.0872854 -0.28446)
(0.0147022 -0.00281306 -0.296171)
(-0.0232843 0.0338403 -0.291517)
(-0.00120011 0.0926728 -0.26341)
(-0.0147187 0.035931 -0.281496)
(0.0411446 -0.00070171 -0.294329)
(-0.00551864 0.0801948 -0.240875)
(0.0280148 0.0588956 -0.242606)
(0.0149562 0.0531605 -0.0806643)
(-0.00570062 0.0435385 -0.077773)
(0.00156184 0.0415903 -0.0761889)
(0.0111631 0.0702877 -0.116355)
(-0.00748605 0.0637804 -0.103723)
(-0.00499855 0.0765017 -0.113088)
(0.0298091 0.0805071 -0.124738)
(0.0012588 0.0741486 -0.0790511)
(0.00502317 0.062826 -0.074554)
(5.72488e-05 0.0622474 -0.08313)
(-0.00389521 0.056279 -0.0856863)
(-0.00350533 0.0458421 -0.0813564)
(-0.00212851 0.0499658 -0.0889654)
(-0.00767825 0.0459559 -0.0811339)
(0.00797314 0.0628405 -0.0530006)
(-0.00758555 0.0606769 -0.04687)
(0.00148684 0.0594157 -0.0485924)
(-0.00735236 0.0839761 -0.0745898)
(0.0150342 0.0881492 -0.0930189)
(0.0248208 0.0900722 -0.0930231)
(-0.0106888 0.095111 -0.0798292)
(0.0046372 0.0524214 -0.0367364)
(0.00277549 0.045801 -0.0327115)
(0.000144852 0.0432889 -0.0454762)
(0.00665542 0.048569 -0.0406245)
(-0.0025468 0.0434127 -0.0326691)
(-0.000277774 0.037547 -0.0507438)
(-0.0045757 0.0402479 -0.0438173)
(-0.000460735 0.0214059 -0.0549223)
(-0.000801134 0.0265482 -0.061112)
(0.000686784 0.0279186 -0.0545982)
(0.00436602 0.0264363 -0.0292403)
(0.00235143 0.0277405 -0.0318037)
(0.02721 0.00191316 -0.0472452)
(0.00898081 0.0158799 -0.0424468)
(-0.000784405 0.0031759 -0.0358703)
(-0.00115401 0.0206543 -0.033225)
(-0.0101679 0.0250123 -0.0131632)
(0.0119302 0.0197787 -0.0286011)
(0.000206925 0.00822808 -0.00687542)
(-0.00251053 0.00291039 0.00102038)
(0.00398454 0.010995 0.0017531)
(0.00749489 0.0165947 -0.0103502)
(0.00264878 0.0223044 0.00209174)
(0.0319927 0.046073 -0.0436256)
(-0.00208923 0.0269966 -0.00882891)
(0.0119181 -0.0437135 -0.037249)
(-0.00785817 -0.0549164 -0.0315055)
(-0.000223596 -0.0356257 -0.0125394)
(-0.000447372 -0.0149071 0.00353392)
(-0.00232746 -0.0159585 -0.00541002)
(-0.000707658 -0.0222091 -0.0463892)
(-0.0275084 -0.0603774 -0.0625455)
(0.0156397 -0.00984761 -0.0308911)
(0.0246223 0.000206705 0.00132639)
(-0.00713326 -0.00442021 -0.00329326)
(-0.0015574 0.00545251 -0.000982955)
(-0.000684684 -0.031781 -0.0135212)
(0.00158646 -0.0148892 0.00633686)
(0.00105723 -0.025343 -0.02057)
(0.00518841 -0.010873 -0.00756636)
(0.00659176 -0.00756434 -0.0257434)
(-0.0376717 -0.0196419 -0.0506005)
(0.0168014 -0.197442 -0.00221009)
(-0.0131471 -0.00943041 -0.00668722)
(0.0105121 -0.0377492 -0.017038)
(0.0106778 -0.0551614 -0.0090439)
(0.00883127 -0.0829816 -0.0148276)
(0.342372 0.0537913 -0.0428186)
(0.0275325 0.383803 -0.0160853)
(0.30082 0.0343206 0.0464373)
(-0.048779 0.276461 0.202134)
(0.0518069 -0.327535 -0.58639)
(-0.333429 -0.22351 0.0461456)
(0.255901 0.16132 -0.509739)
(-0.0349393 -0.426223 0.182053)
(-0.38611 -0.664894 -0.283134)
(-0.24742 -0.0316801 -0.811866)
(0.0651111 -1.08831 -0.437997)
(-0.0568064 -0.424796 -0.369525)
(0.435138 -0.577541 -0.463163)
(0.38051 0.387658 -0.527912)
(-0.604907 -0.372227 0.336562)
(-0.456612 -0.656865 0.200701)
(-0.372011 -0.267843 -0.104449)
(0.236417 -1.90633 0.581402)
(-1.11651 -0.0737289 -0.0739464)
(0.0714669 0.189633 -0.232738)
(0.308987 0.852444 0.117939)
(0.249599 0.770178 0.421345)
(0.412325 -0.700643 0.154027)
(0.169419 0.624671 0.072584)
(0.465963 0.120613 0.491282)
(-0.640642 -0.0703451 0.156588)
(-0.366046 0.096818 0.218182)
(0.087739 0.0136091 0.256331)
(0.267175 -0.0341899 0.529837)
(0.0928534 0.526419 0.636347)
(-0.0402763 0.352538 0.707956)
(-0.314266 0.0142587 0.612904)
(-0.0325935 -0.00302009 0.00347895)
(-0.0212251 0.0160762 -0.00431911)
(0.000388153 -0.0605662 -0.00363817)
(0.0423609 -0.012255 -0.0156497)
(0.0528145 -0.00315477 0.0680886)
(-0.067088 -0.0370122 -0.0933162)
(0.0039263 -0.0446857 -0.0534712)
(-0.000100544 0.00193958 -0.00391038)
(-0.000112359 -0.000675278 -0.00260684)
(-0.000744391 0.00049336 -0.00263122)
(-0.00207735 -0.0015748 0.000216073)
(0.000807975 -0.00176804 -0.000441937)
(0.000141748 -0.000805733 0.000567454)
(-0.000206113 0.000509356 0.00120951)
(0.000764734 2.95182e-05 0.0020269)
(2.90971e-05 0.000560015 0.00100234)
(-0.00093649 -0.0027565 0.00063355)
(0.00261874 -0.00162014 -0.00422224)
(0.000187977 0.000565045 -0.000742321)
(-1.323e-05 0.00134615 0.000339044)
(0.00363641 0.00269913 -0.00133591)
(0.000786953 0.000141699 -0.000224647)
(-0.000535809 0.00277013 -0.00129697)
(0.00255431 0.00680361 0.00186784)
(0.00262619 -0.000679314 0.00050277)
(0.00814692 0.00492775 -0.00248254)
(0.00148134 -0.000669082 -0.00314996)
(0.00162243 5.08101e-05 -0.000567357)
(0.00445408 0.000330439 -0.0017971)
(-0.000224602 -0.000245402 0.00277228)
(-0.000262773 -0.000303152 0.00273541)
(-0.000372154 2.32649e-05 0.00333117)
(-0.000478355 -0.000576644 0.00321012)
(-0.000182759 -7.18044e-05 0.00308995)
(0.00152991 0.00104176 0.00307858)
(0.00134483 -0.000740434 0.00455974)
(0.00180892 -0.000853761 0.00529479)
(0.00753214 0.00741322 0.0110427)
(0.000150717 -0.000189801 0.000705882)
(3.72901e-05 -0.000232306 0.000851445)
(0.000557918 -2.12735e-05 0.000940665)
(0.000280882 -8.73787e-05 0.000505898)
(0.000341828 -0.000254906 0.000657156)
(0.000908882 -0.000495982 0.00204199)
(-5.69354e-05 -0.00209979 0.000690456)
(1.16547e-05 -0.000261675 0.000733215)
(1.97539e-05 -0.000158381 0.0010435)
(-0.000213461 -0.000594698 0.000597949)
(-0.000450555 -0.000149111 0.00364161)
(-0.000211311 0.000244047 0.00420587)
(-4.86151e-05 0.00084127 0.00386731)
(-0.000239502 0.0004931 0.003261)
(0.000345517 -0.000129199 0.00280827)
(0.0010653 0.000401778 0.00320062)
(-0.00012672 0.000589485 0.00301552)
(-0.00274803 -0.00967432 0.000639606)
(0.00733117 -0.0102379 0.00267682)
(-0.000375729 -0.00707439 0.00550908)
(0.000207695 -0.000603059 0.0041578)
(-0.00263363 0.00449884 0.00413069)
(0.0108592 0.00566392 0.0128762)
(0.00938794 0.00917842 0.0117767)
(-0.0365668 -0.023369 0.0635246)
(0.00671153 -0.0580089 0.00464854)
(-0.0392102 -0.01797 -0.0142012)
(0.0158743 -0.0193612 -0.0327251)
(-0.000158352 0.00120933 -0.00637368)
(0.00892029 -0.0326115 0.0340281)
(-0.0646258 -0.0118746 0.0891883)
(-0.00878451 0.00375093 -0.0323692)
(-0.0460139 0.0152329 0.0188502)
(-0.0042228 -0.0410515 0.0110182)
(0.00954632 0.00847191 0.00712595)
(0.00566573 -0.00918257 0.0234663)
(0.00636367 -0.00682159 -0.0446762)
(-0.0422438 -0.0297659 -0.0182552)
(0.103478 -0.401467 -0.0216318)
(0.208089 -0.175067 0.14432)
(-0.0342786 -0.124947 -0.319295)
(0.0809153 -0.296617 -0.0436045)
(0.372007 -0.0884132 -0.0935395)
(0.0288388 0.058179 -0.510232)
(0.0199792 0.0656762 -0.421279)
(0.0043433 0.0203379 -0.212042)
(-0.0182161 0.075049 -0.254337)
(-0.0178193 -0.0470566 -0.218363)
(0.0875204 0.209317 -0.357777)
(0.0345702 0.177534 -0.364969)
(0.044973 0.0829419 -0.326639)
(0.133138 0.179691 -0.352029)
(-0.0268 0.0207683 -0.188086)
(0.0271357 0.0323504 -0.185119)
(-0.00300321 0.0657882 -0.188852)
(0.0571263 0.0319067 -0.211545)
(-0.0135985 0.00197549 -0.21022)
(-0.0150179 0.013025 -0.228271)
(0.0564268 0.0272189 -0.202419)
(0.0159247 0.0575904 -0.158257)
(0.00585063 0.0627709 -0.162119)
(0.0145419 0.0472973 -0.163705)
(-0.00672151 0.133191 -0.21734)
(-0.0097069 0.0843407 -0.240562)
(-0.00519582 0.0950559 -0.179226)
(-0.0153521 0.068728 -0.210797)
(-0.000280965 0.0478775 -0.171984)
(0.0108884 0.0682465 -0.154917)
(-0.0127809 0.0434147 -0.109846)
(-0.0106034 0.0607649 -0.105206)
(-0.0017089 0.0341175 -0.111461)
(0.0148644 0.0522314 -0.141494)
(0.00195009 0.050187 -0.130481)
(0.00792188 0.0565618 -0.126453)
(-0.0034442 0.0503331 -0.123401)
(-0.000163064 0.0697908 -0.11855)
(-0.00825688 0.0496692 -0.11439)
(-0.00068103 -0.00400774 -0.0249839)
(-0.00286193 -0.00289944 -0.0244742)
(-0.000532916 -0.00780608 -0.0297198)
(0.0160454 -0.0311745 -0.0356626)
(-0.00910179 -0.0245106 -0.048056)
(0.0129162 -0.0330875 -0.0392079)
(-0.0101947 -0.0341171 -0.0603429)
(-0.0224826 0.16961 0.204565)
(-0.00346799 0.185596 0.233512)
(0.00557587 0.174333 0.232742)
(-0.0163734 0.208766 0.212771)
(0.0133205 0.21121 0.223244)
(-0.00344197 0.195325 0.226626)
(-0.0351104 0.210761 0.215481)
(-0.00154942 0.233497 0.249204)
(0.0165803 0.218868 0.273082)
(0.00452794 0.227798 0.242901)
(-0.0158994 0.279406 0.306323)
(0.0153195 0.233722 0.311874)
(0.0149671 0.263318 0.32166)
(-0.0101216 0.264184 0.297122)
(0.00078213 0.294927 0.244684)
(-0.00291094 0.295575 0.237919)
(0.00114612 0.257403 0.195129)
(-0.00710524 0.225306 0.227042)
(-0.00907924 0.241945 0.211752)
(-0.000518675 0.184284 0.0953913)
(-0.00911563 0.254191 0.117487)
(-0.0190398 0.248817 0.111376)
(-0.00186735 0.270563 0.133432)
(0.0139611 0.226551 0.126181)
(-0.012937 0.241386 0.118795)
(-0.00718999 0.276869 0.113382)
(0.0234464 0.258299 0.0846833)
(0.00157551 0.25263 0.0478163)
(0.0404696 0.27113 0.100691)
(-0.0187072 0.297483 0.0720595)
(0.00238077 0.288293 0.0829651)
(0.0436797 0.275097 0.0903923)
(0.0267175 0.286004 0.0872743)
(-0.0229336 0.223088 0.00627295)
(0.0029381 0.225587 0.0176231)
(-0.00158126 0.210429 -0.0154894)
(0.0247356 0.241988 0.0546117)
(-0.0318161 0.251897 0.0339498)
(-0.00187675 0.238629 0.0331755)
(0.042356 0.242784 0.070587)
(0.0248411 0.159295 0.00530463)
(-0.00323521 0.226274 -0.000973327)
(-0.0230111 0.234277 0.0303302)
(0.0118006 0.237312 -0.0247901)
(0.0205661 0.227926 0.00437525)
(0.008446 0.237261 -0.0120167)
(-0.012102 0.23646 0.0283739)
(-0.00357774 0.232757 -0.019853)
(0.0444348 0.262269 0.0233131)
(-0.0050809 0.270382 0.0334118)
(-0.0114239 0.235767 0.0232449)
(-0.0279098 0.243294 0.0377329)
(0.0134429 0.251459 0.0336384)
(-0.0561941 0.28482 0.0819741)
(0.0289626 0.280564 0.0195054)
(-0.017857 0.205639 -0.00139354)
(-0.021388 0.27222 -0.0340989)