/*--------------------------------*- C++ -*----------------------------------*\
| =========                 |                                                 |
| \\      /  F ield         | OpenFOAM: The Open Source CFD Toolbox           |
|  \\    /   O peration     | Version:  v2012                                 |
|   \\  /    A nd           | Website:  www.openfoam.com                      |
|    \\/     M anipulation  |                                                 |
\*---------------------------------------------------------------------------*/
FoamFile
{
    version     2.0;
    format      ascii;
    class       surfaceScalarField;
    location    "0.45";
    object      alphaPhi0.water;
}
// * * * * * * * * * * * * * * * * * * * * * * * * * * * * * * * * * * * * * //

dimensions      [0 3 -1 0 0 0 0];
oriented        oriented;


internalField   nonuniform List<scalar> 
13152
(
9.68873e-07
2.02717e-05
-1.59919e-06
-1.96414e-05
1.86913e-05
-1.71231e-05
-5.9927e-07
-3.47838e-06
4.24413e-05
-3.46537e-05
3.54224e-05
-2.36781e-06
2.12136e-05
-7.55087e-05
2.85251e-05
-2.44346e-05
6.0469e-05
-1.61092e-05
-2.95539e-05
-2.84114e-05
7.40746e-05
3.88697e-07
-1.67991e-05
3.01155e-07
-2.99051e-05
7.39891e-07
7.85295e-06
5.16146e-06
-2.98135e-05
7.8246e-06
3.29504e-07
-5.076e-06
-1.55108e-05
-2.98197e-05
-8.64555e-06
-1.46185e-05
-5.13234e-06
2.83963e-05
-7.02534e-08
-8.66465e-06
8.93558e-08
-1.41487e-05
-5.39956e-07
5.65916e-06
-3.05631e-05
1.62393e-05
-2.93404e-05
2.98672e-05
2.93628e-05
-5.17562e-07
3.83173e-08
-1.52196e-05
-2.99022e-05
1.20871e-07
-7.49353e-05
3.31406e-07
1.59972e-05
3.01952e-05
3.36881e-09
7.45888e-05
3.58131e-05
1.26727e-05
2.53833e-05
-7.38692e-05
3.45974e-07
-6.92947e-07
3.61601e-05
1.24194e-05
2.55855e-07
-1.87737e-05
7.36345e-05
7.78555e-05
2.9167e-05
-7.26662e-07
-2.93907e-05
9.50305e-07
-1.64023e-05
-2.691e-05
7.24793e-05
1.80497e-07
-1.73095e-05
-8.0736e-06
8.00757e-06
2.4653e-07
5.29395e-06
-3.0677e-05
-4.96624e-06
-1.39361e-05
-2.9063e-05
-1.3812e-05
1.22371e-07
2.91455e-05
2.04865e-07
2.9982e-05
-5.14938e-07
-1.42119e-05
-1.28524e-05
-2.62767e-05
3.6223e-06
5.45437e-05
-1.52195e-05
-1.07672e-05
-3.67845e-05
-2.22655e-05
6.2957e-05
-2.85037e-06
-4.79095e-05
5.75915e-06
-4.63742e-06
-1.63982e-05
1.74457e-06
-6.56181e-06
-1.22506e-05
-8.07182e-06
-1.8928e-05
-7.58786e-10
-5.88959e-09
4.08226e-09
6.84657e-10
1.31386e-08
-1.0679e-08
-3.20779e-09
9.93795e-09
-1.8871e-08
9.5489e-09
1.80232e-08
-3.80061e-08
2.03746e-08
-8.96563e-09
-4.24175e-08
6.78037e-08
-4.62278e-08
-2.1173e-08
-4.45327e-08
-1.06691e-09
6.31029e-08
-2.76623e-09
-1.05235e-08
-8.27715e-09
-5.17849e-08
-1.09251e-08
8.82092e-08
3.4712e-08
-2.49238e-07
9.52288e-08
-1.06603e-08
-2.65932e-08
9.93585e-08
-5.5233e-09
1.32678e-08
8.72375e-09
1.6776e-08
-4.07707e-08
2.008e-09
1.05413e-08
-2.22144e-09
7.78517e-09
1.74703e-09
1.44119e-09
1.69464e-08
-1.3465e-08
7.20002e-09
4.94996e-09
-5.75189e-09
2.95838e-08
1.07981e-08
-1.65397e-10
-6.24771e-10
-3.10628e-10
7.93821e-10
-3.01834e-10
-1.43018e-09
9.46714e-10
2.213e-11
-1.67833e-09
8.4205e-10
-1.55615e-09
-1.12704e-09
-2.18564e-09
2.26932e-09
-4.65501e-09
6.18838e-10
-9.16266e-09
1.29325e-11
3.09109e-11
-3.97763e-11
-1.84507e-11
1.08845e-11
-8.75903e-11
7.64171e-11
-6.93548e-11
1.01854e-10
1.59215e-11
8.86681e-11
-1.99604e-10
2.07373e-10
-2.70164e-10
-8.92604e-11
1.76036e-10
-9.43737e-11
-1.42697e-06
-1.37185e-06
-2.97459e-07
2.77065e-06
-4.11998e-08
-1.87784e-06
2.10534e-07
-1.93647e-06
5.4332e-08
2.36685e-06
1.32685e-06
-6.53631e-06
7.94141e-07
1.03206e-06
1.54554e-06
-2.76107e-06
1.77539e-06
-6.50869e-07
-9.24873e-07
-2.51432e-07
1.84599e-06
1.6605e-08
7.84728e-09
-6.17255e-07
-1.34636e-06
6.50727e-07
-2.8373e-07
2.37615e-07
3.48027e-08
5.27457e-07
-1.50411e-06
9.94458e-07
-2.26705e-06
9.75226e-07
7.18846e-06
-4.17903e-07
-7.10498e-06
5.9602e-07
-1.112e-05
-3.50926e-06
2.12756e-05
1.86622e-07
-1.28427e-05
-4.67592e-06
-2.35219e-05
2.65242e-05
-2.81393e-05
1.3217e-05
-2.57629e-05
1.46925e-06
-6.77832e-05
1.44976e-05
1.2049e-05
2.67878e-05
-5.32836e-05
-6.25831e-07
6.83563e-06
8.35539e-06
4.57114e-06
5.32558e-06
1.02904e-05
2.3405e-05
-5.83446e-06
1.99686e-05
6.81916e-06
-2.252e-147
4.37546e-12
4.89812e-13
-4.86589e-12
0
0
0
1.77935e-13
4.20605e-12
2.32576e-16
1.09061e-15
-1.26895e-15
6.90032e-17
1.68257e-16
-4.21966e-13
6.10728e-13
7.62362e-14
1.85472e-05
7.48303e-07
-2.24555e-05
-6.37118e-08
-2.37651e-05
-2.72835e-05
6.78622e-05
7.65632e-07
-2.42837e-05
-2.71176e-05
2.72519e-05
4.90069e-07
2.45191e-05
-7.56258e-05
-1.71547e-06
1.6214e-06
2.75121e-07
-2.11979e-79
-6.42681e-320
0
0
-4.12742e-320
0
-1.09341e-82
0
0
6.01163e-56
4.64059e-57
-4.75745e-56
-1.11386e-39
1.2097e-39
3.73936e-55
1.49943e-56
6.45857e-40
-7.81817e-08
7.26012e-08
2.31443e-08
-1.46884e-07
3.74202e-08
4.16325e-07
-4.68025e-07
3.92821e-08
7.67754e-08
-2.57741e-07
-7.03301e-08
1.99389e-07
-4.16899e-07
-1.08884e-07
-9.81904e-08
2.20744e-07
-8.1612e-08
-3.40932e-08
-1.11208e-08
-4.38183e-08
7.97498e-08
3.4803e-08
-3.064e-08
-5.48196e-08
-1.14407e-07
1.18963e-07
-2.30366e-08
1.68001e-08
-3.77595e-08
5.93365e-08
-1.52526e-07
1.07356e-07
-1.85865e-07
7.23961e-08
2.52223e-09
6.20306e-09
-2.57743e-09
-6.52284e-09
2.26807e-09
-9.82318e-09
7.23908e-09
1.60906e-09
5.18957e-09
2.81728e-08
-1.50558e-09
-4.06646e-08
3.05326e-09
3.09815e-08
-1.41297e-08
1.7738e-08
-1.92238e-08
1.10017e-11
-5.8602e-11
-4.66869e-10
4.05299e-10
-3.96472e-11
-6.78182e-11
7.91193e-11
-1.12267e-11
-1.85897e-10
9.66824e-12
-1.79805e-10
-4.08664e-10
-8.99536e-12
-6.04969e-11
-2.66292e-11
8.64767e-12
-1.51702e-11
5.57874e-10
-1.18754e-09
-1.22015e-11
5.06179e-12
2.26959e-10
9.99405e-11
-1.02859e-10
-3.06509e-11
1.37972e-10
-2.45855e-10
6.45715e-11
3.59737e-10
-6.20304e-11
-2.65032e-10
1.14129e-10
-4.75822e-11
2.63968e-11
2.28084e-10
-1.69536e-10
2.62089e-10
-3.29148e-10
-5.54642e-12
-1.83938e-12
-2.12047e-11
3.65348e-11
-8.97817e-13
-2.67026e-11
3.52156e-11
-3.45322e-13
-5.48558e-13
-2.42142e-11
-1.53111e-11
2.13573e-11
-9.11952e-12
-3.44133e-11
-1.58445e-12
6.33862e-12
-2.68468e-12
3.959e-12
-3.78699e-12
-9.39201e-12
7.5777e-12
-1.32234e-11
-1.66125e-13
-5.23241e-14
7.41526e-14
2.09101e-13
6.99181e-14
-4.88467e-15
-2.05312e-13
-3.35684e-15
5.86911e-14
-1.0488e-14
1.30128e-14
8.43813e-14
4.73483e-15
-1.78139e-14
1.36621e-14
-1.40618e-14
-5.65628e-17
7.28991e-15
7.79955e-14
-6.07019e-15
2.99014e-14
-1.43864e-14
5.2828e-15
-1.57621e-14
4.41827e-14
-8.6065e-15
-3.83274e-14
2.84207e-14
1.05721e-13
9.08303e-14
-9.83791e-14
1.30085e-14
-7.88998e-14
1.73515e-13
-4.29893e-14
-2.91375e-14
8.45656e-14
-1.50838e-14
3.86018e-18
-2.58756e-17
-1.50224e-18
4.25476e-17
-3.12822e-17
3.12346e-17
1.47683e-17
2.21631e-17
-6.69926e-17
4.51947e-17
-3.11255e-17
-5.59719e-18
-3.20146e-17
1.35834e-16
-2.9509e-18
1.48481e-17
-2.37593e-18
-1.05032e-18
4.3223e-19
3.95128e-18
-1.11038e-18
1.65829e-18
5.85528e-19
-2.89797e-18
2.18602e-18
7.60724e-19
-4.48872e-17
-1.06774e-17
-4.15082e-17
1.22898e-17
4.46383e-17
-7.73454e-17
4.17619e-17
5.91998e-26
5.67846e-26
5.68312e-26
-1.64291e-25
-3.24121e-24
3.23044e-24
3.14292e-25
1.10576e-22
-9.66933e-23
-3.62378e-21
-2.97182e-23
3.9158e-21
-4.18583e-22
-3.0433e-21
2.75522e-23
-4.15031e-22
3.40966e-24
-4.54507e-14
-4.05262e-15
1.65577e-13
3.95099e-14
8.7762e-14
9.85348e-14
-1.46418e-13
1.78125e-13
-5.30349e-15
-2.00303e-12
-6.12321e-13
5.7111e-12
-1.34873e-12
5.61882e-12
1.15884e-12
-1.83711e-12
1.2929e-12
-4.63453e-12
-1.58375e-12
9.47004e-13
7.14939e-12
7.11124e-13
1.01183e-12
6.96062e-13
-1.16957e-12
1.33749e-12
5.4144e-13
-5.59039e-13
-2.45658e-12
5.2496e-12
-2.62216e-12
1.41861e-12
-2.79463e-12
2.6125e-13
2.49169e-13
-3.32292e-13
-1.6018e-13
9.16948e-14
-1.83268e-13
3.60662e-13
-6.39388e-13
1.49831e-12
2.1028e-13
6.34843e-13
-1.0811e-12
2.34388e-13
-1.93133e-13
2.69902e-13
-3.40576e-13
-1.24913e-11
-3.06964e-11
2.2457e-12
4.74049e-11
-6.01559e-12
-2.91655e-12
1.26963e-11
-4.84029e-12
-2.33652e-11
1.30927e-11
-4.37289e-13
-1.20288e-11
6.36111e-12
3.60879e-11
1.38785e-11
-1.73029e-11
2.68692e-11
-1.27562e-10
1.17838e-10
1.55643e-10
-1.89864e-11
3.50224e-10
-4.4727e-11
7.53979e-11
4.89453e-10
-4.93101e-11
7.26999e-11
1.69566e-10
-1.38656e-11
-4.29723e-11
-1.39392e-11
-1.77714e-12
9.67138e-11
2.65741e-13
-2.75846e-11
2.33987e-11
-6.63733e-11
1.27477e-10
-1.52993e-09
7.57586e-10
-2.53767e-10
4.11642e-10
3.36319e-09
-3.40944e-10
2.33507e-10
3.48747e-09
2.24842e-10
-3.7148e-10
8.80083e-11
4.65139e-10
7.22638e-10
-1.64198e-09
8.11666e-10
1.28631e-06
1.68402e-06
-2.88559e-06
-1.72841e-06
1.79833e-06
-1.77412e-06
4.16536e-06
-8.17002e-06
1.04158e-05
1.62815e-06
5.36181e-06
-1.00155e-05
1.35272e-06
-5.82559e-06
-2.9123e-06
1.84085e-06
-6.21016e-06
-9.45139e-06
3.50667e-06
7.87657e-06
-2.00129e-06
1.49203e-05
1.47764e-06
-2.58571e-05
5.70477e-06
1.24656e-05
-5.78599e-06
1.19334e-05
1.7239e-06
1.36323e-05
-1.79442e-05
1.35794e-05
-3.27942e-05
2.49218e-05
-2.08599e-05
4.67175e-05
7.04915e-06
-2.62204e-05
-1.96667e-06
-3.6957e-06
-2.80702e-07
4.83724e-06
-7.60922e-07
1.06771e-05
-6.39395e-08
-1.48332e-05
-6.68245e-07
1.15347e-05
3.28785e-06
1.19251e-05
-1.55577e-05
1.86401e-05
-1.12933e-05
2.02075e-05
-9.37078e-06
4.99026e-05
-3.21309e-05
-1.04672e-05
-2.33343e-05
6.4477e-05
-5.56117e-07
-3.58537e-05
1.85532e-06
-1.20519e-05
-1.86972e-07
1.14205e-05
7.74566e-06
-3.05335e-05
1.16993e-05
-6.74334e-07
6.77718e-05
-2.03727e-05
-5.19701e-05
-2.88678e-05
7.51799e-05
3.85405e-06
-2.10651e-05
-1.35172e-05
8.78969e-06
7.46768e-06
-3.14727e-05
-3.6467e-06
-1.4199e-05
-7.99686e-07
2.19391e-05
-2.05814e-05
-6.42505e-07
1.40823e-05
-1.20156e-05
-3.39786e-07
-2.46994e-05
6.30142e-05
5.62954e-06
3.40829e-06
-2.03561e-05
6.43375e-06
-6.02599e-07
-3.8746e-06
-1.36719e-05
-2.1087e-05
6.72237e-06
-2.66225e-06
-1.1347e-05
5.03665e-06
-1.48351e-05
-1.56255e-05
3.79673e-05
-1.50861e-05
-2.6628e-06
3.42846e-06
-1.6713e-05
-6.50081e-06
-1.60588e-05
4.29996e-06
1.22093e-05
-4.35534e-05
-7.29169e-06
6.00509e-06
1.66647e-07
-5.6625e-06
-7.80122e-07
-1.35012e-06
-9.71237e-07
8.20832e-06
-1.15097e-06
7.84036e-09
7.40462e-07
-8.40803e-07
-5.57674e-06
-6.5013e-07
3.85821e-07
1.40271e-06
6.66502e-07
-3.19089e-06
1.43375e-06
-3.96846e-10
-1.71077e-07
9.26783e-07
-3.69627e-07
4.2324e-06
3.4573e-07
-7.05053e-07
-1.21648e-06
-3.15136e-06
-1.12467e-06
1.7421e-05
-2.46028e-06
-1.20752e-07
-2.55057e-06
3.43566e-06
1.0339e-07
5.21532e-07
-4.45212e-06
-1.4661e-06
4.31336e-06
-2.56319e-06
-2.77364e-08
-1.44897e-07
-4.01502e-08
2.09611e-07
-1.66183e-08
2.46729e-09
-1.9931e-08
-2.7707e-08
-1.38214e-07
-5.7621e-09
-3.51437e-08
3.4945e-08
-9.74268e-09
-3.29574e-08
4.43107e-08
-8.49544e-08
-3.07989e-08
9.10512e-08
6.74142e-08
3.61617e-07
-5.21845e-07
-1.73971e-07
1.00357e-07
1.63174e-07
2.45265e-07
1.86879e-06
-1.86507e-06
3.61401e-07
-7.90533e-07
2.85094e-06
2.4537e-08
-2.26032e-06
9.60898e-07
-6.87594e-07
-2.64618e-08
-8.85882e-07
5.8106e-07
-2.2959e-06
-6.69658e-07
1.77557e-07
1.6725e-06
-1.18996e-06
2.18939e-06
3.69452e-06
-6.60298e-06
2.13249e-06
2.2225e-07
-2.20284e-07
5.82991e-07
1.26199e-06
2.67845e-06
8.67924e-07
-1.18875e-05
-2.29933e-06
4.36149e-05
-2.14214e-05
7.95496e-06
2.00688e-06
-2.10342e-05
7.56436e-08
7.78063e-06
4.09909e-08
-9.26729e-06
1.05827e-06
-1.29151e-05
-4.27422e-06
2.48412e-05
1.21898e-06
-1.27353e-05
-6.43057e-06
-2.61865e-05
2.83077e-05
-3.22617e-05
1.65509e-05
-2.83223e-05
3.31814e-06
-7.3304e-05
-5.74102e-06
-4.68023e-06
1.2122e-05
-1.82336e-06
-8.74163e-06
4.81038e-06
-8.54642e-06
2.21757e-05
-5.66185e-05
-4.5267e-06
-4.12555e-05
-1.26633e-05
2.76758e-05
1.66647e-05
-6.24779e-05
8.77052e-06
1.86834e-05
-1.75803e-06
-5.52985e-06
-1.93753e-06
9.79003e-06
-8.3095e-07
-1.21603e-06
4.12853e-07
-8.92056e-07
-5.87442e-07
2.69435e-06
4.72422e-07
-4.35552e-06
7.76308e-06
-2.01399e-06
1.69702e-06
-2.43317e-06
8.08488e-06
-1.53994e-07
-2.19952e-07
-1.08521e-07
4.7241e-07
-4.75675e-08
-1.16481e-07
2.24076e-09
-1.89694e-07
-8.26396e-08
3.09943e-07
3.86501e-08
-5.48233e-07
3.60244e-07
-1.36059e-07
2.2135e-07
-3.00953e-07
4.72066e-07
3.08175e-08
-1.74338e-07
2.60783e-07
-3.06947e-08
-2.14483e-07
2.7084e-07
5.54485e-08
4.86045e-08
-3.06691e-07
-3.17187e-07
-1.95908e-07
6.95616e-07
-3.34363e-07
2.78038e-07
-4.47897e-08
-9.10068e-08
1.30301e-08
-7.37355e-08
-2.73858e-07
3.30618e-08
-2.88278e-08
2.2941e-07
1.60813e-06
7.81197e-07
4.48291e-07
-2.77839e-06
1.31364e-06
6.5628e-06
-5.22068e-06
1.50946e-06
3.50912e-07
-8.61173e-07
-9.34815e-07
2.60921e-06
-1.333e-06
5.72775e-07
-1.5454e-06
6.74929e-06
-2.37716e-06
1.05216e-06
-1.61193e-06
6.47647e-06
-1.62041e-06
-2.6759e-06
5.37166e-06
2.87218e-06
6.72313e-06
-1.09282e-05
-7.11353e-06
-4.73997e-06
1.78019e-05
-1.134e-05
7.87811e-06
-1.83053e-06
-3.50723e-06
-1.48596e-07
-4.34188e-06
-8.79157e-06
1.55808e-06
8.4489e-07
4.61559e-06
1.03741e-06
9.13228e-08
-1.07499e-06
-4.32387e-08
-1.44985e-06
-7.82259e-07
3.36019e-06
-2.76131e-06
1.52649e-06
9.35236e-07
3.76524e-06
-5.88995e-06
8.9198e-07
-1.1807e-15
1.30628e-07
-1.09121e-15
1.24488e-06
1.33447e-06
-3.65612e-05
-1.27862e-06
3.65141e-05
-3.80097e-05
3.55476e-05
3.80068e-06
3.35409e-05
-0.000108105
3.67173e-05
-3.2859e-05
-4.85252e-06
-3.53297e-05
0.00010862
-3.3233e-06
3.39059e-06
-2.6372e-06
-3.25263e-11
5.74609e-11
-1.31204e-10
6.73627e-11
4.22257e-11
-3.09621e-11
-7.00716e-11
-2.62998e-12
8.85116e-11
2.60637e-10
1.83509e-11
-4.54575e-10
1.35508e-11
2.8592e-10
1.13841e-10
-1.51584e-10
1.12329e-10
4.62596e-10
5.22412e-10
9.58111e-10
-2.10909e-09
1.82845e-10
1.61152e-10
-7.24003e-11
3.55256e-10
1.01975e-10
-2.02295e-09
6.72399e-10
1.35547e-09
3.48632e-09
-4.8971e-09
3.87912e-10
3.19909e-09
1.02443e-09
-5.69008e-09
2.42696e-08
1.50828e-08
-3.86103e-08
3.48504e-08
-3.4395e-08
-9.76366e-09
3.45004e-09
5.23791e-08
-7.19668e-08
4.98519e-09
7.55546e-08
-1.05567e-09
-1.17619e-07
5.14136e-08
-9.43286e-08
5.59662e-08
2.28232e-07
-7.52089e-08
-2.1441e-07
-4.0143e-08
-3.24462e-07
-4.37625e-08
4.20443e-07
-2.8867e-07
-5.08755e-07
5.2369e-08
-1.58717e-07
-1.74722e-07
-7.91378e-08
1.52143e-08
1.18531e-07
2.25579e-07
-1.32824e-06
6.2621e-07
-2.08215e-06
4.55859e-09
5.16444e-08
2.82564e-07
7.73602e-08
2.90925e-08
-2.38937e-07
1.16457e-08
-6.83333e-08
-3.71841e-08
1.37145e-07
2.36361e-08
-1.54017e-07
-4.87109e-08
1.73673e-07
-6.12029e-07
7.33876e-08
-4.81731e-07
-1.198e-07
1.45252e-07
-4.73223e-07
-7.53623e-07
5.81568e-08
-1.27142e-07
1.31167e-06
6.68605e-07
3.67193e-07
-3.62063e-06
3.92673e-07
3.90382e-08
5.74331e-07
-1.54584e-07
-4.40213e-07
-4.87147e-08
1.90697e-06
3.05295e-07
5.14894e-08
4.02757e-07
-3.42235e-09
4.43294e-07
-5.1613e-08
-5.14234e-07
1.62882e-07
-1.09675e-07
-4.90341e-08
1.98069e-08
6.45792e-07
-5.11404e-07
3.91403e-07
1.09645e-07
-1.6484e-06
-1.19953e-07
8.06184e-08
3.62643e-07
-2.73276e-07
-7.46449e-07
2.7347e-07
7.46265e-07
-4.3788e-07
5.10416e-07
-3.63752e-07
6.36348e-07
-2.4788e-06
2.67919e-07
-2.60592e-07
2.6679e-07
-1.94054e-07
1.20835e-06
-1.92463e-07
3.8435e-07
1.84153e-07
4.16078e-07
1.04422e-06
1.82411e-07
-1.63845e-06
-4.9125e-09
3.04043e-07
-7.44213e-08
1.73417e-07
-4.42777e-08
2.88653e-07
1.27739e-06
-1.37941e-06
1.69813e-06
-8.60532e-07
-1.59123e-06
-2.68108e-07
-3.97615e-07
-6.2516e-07
2.15165e-06
5.59099e-08
-1.5947e-07
1.49301e-07
-1.41327e-06
-1.89884e-07
-8.65291e-07
-3.90435e-06
-3.51757e-09
-6.55982e-09
-3.27121e-09
1.29741e-08
-2.67673e-09
-7.9854e-09
6.4892e-09
-3.14293e-09
-7.77885e-09
8.33071e-09
-1.35726e-08
-2.90153e-09
-2.37679e-08
2.84476e-08
-1.03882e-08
-3.09123e-08
-3.29567e-08
1.0597e-08
2.08065e-08
-2.64798e-08
-6.91258e-09
1.28429e-09
-9.7047e-09
1.8717e-08
-1.90388e-08
4.00176e-08
1.85274e-08
4.61686e-08
-9.29579e-08
3.73979e-08
-2.82172e-08
-1.45244e-08
4.95576e-08
1.29045e-09
-1.92637e-08
3.62233e-08
3.61853e-08
-2.37362e-08
6.61984e-09
1.88193e-08
-4.88913e-09
5.32144e-08
9.03065e-09
-8.32099e-08
3.36275e-08
2.8229e-08
-8.79209e-09
2.58887e-09
2.3971e-08
-1.03474e-08
-4.51181e-09
-9.33791e-09
-7.22097e-09
1.9342e-08
-1.67565e-08
-2.54041e-09
2.7146e-08
-3.40163e-08
5.43423e-08
-4.32993e-08
-3.07084e-08
-1.13035e-08
1.28483e-09
-2.55326e-08
-1.43508e-08
-2.00184e-08
-1.13504e-08
-5.49229e-09
-2.53082e-08
-2.86413e-08
-6.62681e-09
6.72697e-09
1.6601e-08
-7.39999e-08
-1.20633e-08
-4.41409e-11
1.26506e-09
-5.46028e-10
-6.63257e-10
1.82612e-09
-1.12437e-09
-7.41598e-10
-2.37663e-09
-1.03317e-09
-4.40277e-10
-3.87556e-10
2.67826e-10
-2.35946e-10
-1.22601e-09
9.1952e-10
-3.36733e-09
-4.74992e-10
3.51209e-10
-8.80671e-11
-7.4631e-10
2.93018e-10
-3.94631e-10
1.90951e-10
4.66485e-10
-9.17742e-11
-4.02236e-10
1.36818e-09
-1.86744e-10
-1.83497e-09
2.88962e-10
1.11233e-09
2.2936e-10
3.22988e-11
-4.66568e-10
4.68806e-11
4.11814e-10
-9.80583e-11
3.05789e-10
-1.77997e-10
-6.44955e-11
-1.20125e-10
3.62553e-11
1.75765e-10
1.52762e-11
-1.20704e-11
-6.67364e-11
-6.70605e-11
7.13676e-11
1.23928e-10
-3.62658e-11
-1.8019e-10
2.3172e-11
3.06852e-10
2.04983e-11
-4.57931e-11
9.86279e-11
1.11528e-10
8.53652e-11
-8.20312e-11
-8.31644e-11
-2.75756e-11
-1.76644e-10
3.72418e-10
-1.31829e-10
5.77566e-11
9.08085e-11
-1.48237e-10
3.16217e-10
-3.18173e-10
-1.14002e-10
2.77977e-10
-1.32801e-10
2.01442e-11
3.09806e-11
-4.34112e-12
-5.64275e-11
1.08801e-11
-4.03747e-12
1.122e-11
6.05414e-12
2.73631e-11
2.59302e-11
-1.29842e-11
-1.84832e-11
2.69916e-12
3.33374e-11
-2.60033e-11
1.03607e-11
-5.91373e-11
-1.4888e-11
-9.92488e-12
1.18411e-11
1.17054e-11
1.66972e-13
-7.64588e-11
-3.81202e-11
-4.32842e-12
2.08433e-10
2.38095e-10
-9.79239e-12
-7.68138e-12
9.41075e-13
1.34526e-11
3.65529e-12
-1.35379e-12
-8.06736e-12
-1.07635e-12
4.91979e-12
3.44059e-12
3.65845e-13
-3.83109e-12
4.44451e-12
4.87327e-12
2.27648e-12
-2.87893e-12
8.18517e-12
-1.93688e-12
-1.30342e-12
-5.39452e-13
4.59186e-12
-4.16659e-13
-3.7793e-13
6.21689e-15
-1.80364e-13
-1.88533e-13
-9.81297e-14
3.69264e-13
-3.02859e-13
2.86816e-13
-3.6472e-13
9.51421e-15
7.19181e-14
7.08498e-14
-1.77764e-15
1.79246e-16
-3.22465e-16
1.06141e-15
2.94245e-17
-3.47792e-16
-4.52235e-15
-3.48967e-17
1.70195e-15
3.19941e-16
1.76734e-17
-2.89991e-16
1.4485e-15
6.16835e-16
-2.65994e-16
1.44254e-15
-4.90907e-16
1.13421e-08
2.70001e-08
-5.26435e-09
-5.21433e-08
1.01927e-08
-1.06843e-08
6.17744e-09
3.96228e-09
2.72175e-08
3.75935e-08
-1.25743e-08
-3.75459e-08
3.66471e-09
3.93071e-08
-2.03281e-08
2.71521e-08
-3.76664e-08
6.92675e-09
-1.79487e-08
-3.65326e-09
5.43393e-09
-3.92877e-08
7.53771e-09
2.35063e-08
-1.19701e-08
-6.77427e-08
1.82139e-09
-4.15203e-09
-5.89085e-09
4.5399e-10
3.71697e-09
2.59438e-09
8.13412e-10
-8.99393e-09
-1.0367e-10
1.63423e-09
-4.87286e-09
9.39161e-09
-2.07499e-08
-1.9243e-08
-2.01944e-08
-9.28749e-09
3.04108e-08
-3.02454e-09
-6.27417e-08
2.1308e-08
-4.86069e-08
1.09649e-09
-4.05465e-09
-1.33989e-07
4.41728e-08
-1.71294e-08
3.97803e-09
2.61091e-08
-2.71511e-07
-4.22975e-10
-2.1383e-05
1.32932e-06
2.2793e-05
-3.20379e-06
1.41664e-05
6.95566e-06
-4.24857e-05
1.41537e-05
7.14602e-07
-2.30361e-05
-7.09789e-06
4.39705e-05
-2.13321e-05
-9.59564e-07
3.00211e-05
-4.43783e-05
4.58151e-05
1.70827e-05
1.27391e-05
7.13976e-06
-3.64834e-05
2.00543e-06
2.20312e-05
-6.92317e-06
9.381e-07
1.45196e-05
2.60238e-05
1.7963e-05
-3.63844e-05
7.83579e-06
4.02403e-05
1.82158e-05
1.07395e-06
4.06106e-05
-1.42812e-06
-1.34002e-06
2.12709e-06
1.79342e-07
1.81745e-06
3.35329e-07
-3.86331e-06
1.3457e-07
8.74208e-06
1.32481e-05
-8.99897e-06
8.01574e-07
-2.5009e-06
2.99432e-05
-6.22755e-06
1.37411e-05
-1.35913e-05
9.79064e-07
6.06497e-08
-9.32306e-07
-2.16988e-07
-9.82353e-07
-4.3263e-07
2.53492e-06
-6.47027e-07
1.42819e-07
8.66645e-08
-9.5873e-07
-5.82891e-08
-3.84923e-07
4.55995e-08
2.89637e-07
-1.83502e-06
8.96652e-08
-8.36149e-06
-6.0169e-08
4.34327e-06
-5.01302e-09
3.26525e-06
7.14506e-08
-1.22838e-05
8.47294e-08
2.3841e-06
4.17878e-06
-4.89323e-06
-7.14215e-08
-1.76945e-06
7.98995e-06
2.19462e-06
4.88354e-06
-8.58345e-06
1.91663e-06
3.93811e-06
1.10768e-07
-3.37872e-07
1.57867e-08
-4.05392e-05
-2.43988e-05
-7.46635e-06
7.22489e-05
2.8627e-07
-4.19556e-05
-2.57841e-05
7.6222e-07
8.70531e-06
-3.84782e-06
-3.16278e-05
8.97313e-06
3.43294e-07
8.54389e-06
1.53096e-05
-2.85751e-05
2.86575e-05
-1.13446e-05
4.78824e-05
-7.42861e-05
6.76344e-05
-1.67212e-05
-6.02709e-07
2.64376e-05
7.77237e-07
7.21736e-06
1.46303e-05
-3.66674e-05
-7.93693e-07
1.00705e-05
1.71331e-05
-1.71767e-05
-7.58895e-07
-7.40924e-06
3.81124e-05
-2.92037e-07
2.81689e-05
1.02433e-07
2.90954e-05
-6.3096e-07
-3.90204e-05
5.99792e-05
-2.70985e-05
-1.16455e-05
-2.25061e-05
7.21483e-05
-1.26025e-05
1.65425e-07
1.20434e-05
5.52939e-06
-3.02082e-05
1.19971e-05
1.75751e-07
9.3916e-06
-3.08965e-05
3.71767e-05
-1.5875e-05
7.44981e-05
-2.6386e-05
-2.51625e-07
1.73647e-05
1.9183e-06
2.14182e-05
2.76756e-05
6.11433e-07
2.09551e-05
2.72996e-05
1.38745e-06
-1.99016e-05
7.78265e-05
3.06695e-08
1.09884e-05
1.42034e-05
3.39554e-06
-2.87244e-05
5.34575e-07
1.24169e-05
-9.71929e-08
-1.96189e-05
1.17329e-05
-4.59316e-05
7.63987e-06
8.81289e-06
6.61676e-06
-1.34452e-05
1.79226e-06
1.33248e-05
8.22875e-07
7.18755e-06
3.06402e-05
2.16914e-05
8.26776e-06
3.42749e-05
2.03144e-05
-3.29666e-07
1.94221e-05
2.02497e-05
1.17059e-05
1.60387e-05
2.93008e-07
-2.60548e-05
-2.89571e-05
-6.18771e-05
-1.06802e-05
-1.39932e-06
1.8779e-05
-3.82535e-06
-4.83559e-07
-1.01857e-06
-8.14802e-07
-6.09912e-07
-1.08896e-06
1.1141e-06
-8.32054e-07
-5.03559e-07
2.51838e-07
-7.06492e-07
-3.54199e-07
-2.0367e-06
-5.99159e-07
-1.98653e-06
-1.76283e-06
-2.95058e-05
-2.28939e-06
1.10722e-05
1.57165e-05
-4.37173e-05
-1.79579e-07
1.402e-05
2.03044e-06
-1.45488e-05
1.11725e-05
2.83099e-05
1.63662e-05
1.89976e-05
-4.99108e-05
1.23178e-05
1.52302e-05
2.80048e-06
-1.55537e-05
2.50738e-05
-2.56825e-05
1.23363e-05
-1.89333e-05
2.04942e-05
3.33733e-06
1.4226e-05
1.99444e-05
1.16655e-05
2.61249e-05
-1.08558e-08
-2.88472e-05
1.34593e-07
-9.53018e-06
-1.05767e-05
4.70014e-05
2.20101e-07
-1.30395e-05
-1.1312e-05
9.42059e-06
6.17863e-07
2.00125e-06
-2.70041e-05
-2.54312e-05
2.35219e-05
-5.22929e-05
-4.81292e-06
-4.25703e-06
2.23632e-06
1.40902e-05
1.13405e-06
-8.85129e-06
5.95783e-08
-5.41361e-06
6.91979e-07
-1.04763e-05
-9.78868e-06
2.4919e-05
-3.33305e-05
1.42539e-05
7.33688e-06
5.57183e-06
-2.0269e-05
5.18541e-06
7.8071e-07
2.27492e-05
-6.84113e-05
1.14816e-05
-1.34101e-05
-3.03754e-05
1.40539e-06
1.54229e-06
8.60985e-06
1.19062e-06
-9.1053e-06
-6.26399e-07
-1.81275e-05
-8.98916e-07
2.42382e-05
8.60229e-07
-1.73767e-05
1.02177e-05
-3.01143e-05
1.43609e-05
-2.30262e-05
3.16112e-05
-1.7525e-05
1.89795e-05
7.48563e-07
7.17817e-07
-3.60055e-05
2.77771e-05
-5.69991e-05
2.38515e-05
-1.21581e-05
-1.10989e-05
-5.3802e-06
2.87355e-05
-2.04102e-07
-1.16622e-05
-1.92111e-07
-1.04707e-05
8.74572e-06
-3.59667e-05
1.56856e-05
2.69857e-05
2.46327e-05
-4.90267e-05
-6.34042e-05
-1.58272e-05
-2.35949e-05
-7.99279e-08
8.05185e-08
7.28825e-06
1.47342e-07
-7.41141e-06
-2.33948e-07
-1.63914e-05
-5.26955e-06
2.8567e-05
-4.48982e-07
-1.71061e-05
4.82869e-06
-2.69006e-05
1.47433e-05
-3.01365e-05
2.96968e-05
-2.86024e-05
-1.9779e-06
-7.26557e-05
-3.13313e-05
-1.28186e-05
-2.45231e-05
-4.59614e-07
-3.09659e-05
-1.13974e-07
-1.2437e-05
1.92663e-05
-6.75475e-05
3.17307e-05
-6.91169e-05
1.35868e-06
-5.46202e-08
1.11164e-06
8.20077e-07
1.12175e-06
5.66229e-07
-2.42468e-06
-8.0174e-10
7.61127e-09
6.39837e-07
9.77726e-07
7.70354e-09
1.21926e-06
-1.0653e-06
-5.03765e-07
2.43468e-06
-1.43312e-06
1.81665e-06
-1.9785e-06
-9.19237e-07
-9.24954e-07
-5.00162e-08
2.22888e-06
3.74073e-09
-6.7664e-07
1.04886e-08
-5.05409e-07
3.52128e-08
1.59142e-06
2.84054e-07
-2.64584e-06
1.47737e-06
3.39401e-07
9.18948e-07
-1.15473e-06
2.30742e-06
1.45309e-08
4.13973e-09
-3.29254e-08
-5.24418e-11
-4.1453e-09
-7.91855e-09
2.68528e-08
-1.51687e-08
2.23272e-09
4.38086e-08
-4.66777e-09
-7.31545e-08
-2.96144e-08
6.58709e-08
2.80396e-08
-4.88808e-08
7.56112e-09
2.35737e-08
3.8907e-08
-1.12911e-08
-4.60229e-08
2.06368e-08
-3.22492e-09
3.10513e-08
1.2538e-08
5.48897e-08
3.40451e-08
-9.7262e-09
-2.53125e-08
1.02427e-08
7.19448e-08
-7.89206e-09
3.69747e-08
-2.10735e-08
1.26771e-09
-1.04205e-08
-1.16176e-08
2.28922e-08
-7.03714e-09
-5.91196e-09
1.63235e-08
-2.94504e-09
-6.02778e-09
-5.69042e-09
-5.53188e-09
5.04091e-09
-7.634e-09
-1.53369e-08
-3.14986e-09
-7.36287e-09
-1.76007e-08
6.12151e-10
3.76844e-09
-1.71247e-09
-3.03632e-09
3.85249e-09
-4.86048e-09
1.05951e-09
-9.78984e-10
8.22718e-09
1.11174e-08
-3.99702e-09
-1.13402e-08
5.43009e-09
7.37512e-09
2.44267e-09
2.96124e-11
-5.61683e-09
1.35507e-09
6.69344e-09
-6.31991e-10
8.02276e-10
-8.04517e-10
2.74776e-08
1.1701e-08
5.42917e-10
-8.27358e-08
4.76125e-10
5.18857e-09
4.57244e-09
1.70366e-09
2.60442e-09
-4.35933e-11
-5.44054e-09
-8.61226e-09
7.85217e-09
-2.43113e-09
-3.41638e-09
-1.27911e-09
-8.33221e-09
-4.8938e-09
-6.60008e-09
5.17981e-09
-1.91365e-08
5.04244e-08
-1.83787e-07
-2.16128e-07
2.12597e-07
-2.32687e-07
-3.35885e-07
4.20658e-07
-3.84938e-07
-2.9593e-07
-1.01605e-07
-6.80948e-07
3.30708e-07
-2.05967e-07
-4.85935e-07
-3.67913e-07
-1.2671e-06
-1.25744e-06
8.23473e-09
-1.37962e-09
7.34535e-09
-1.73579e-08
-1.58908e-08
5.84601e-09
1.03037e-08
5.14412e-08
-7.53014e-08
1.57894e-09
-5.62261e-09
6.75104e-09
-1.61539e-08
2.58303e-08
-5.26684e-09
-4.589e-09
-2.74964e-10
-1.24616e-11
2.94127e-11
1.39747e-10
7.41175e-11
5.29216e-11
-7.19765e-10
-1.67293e-12
1.61563e-11
-2.79183e-11
-8.56826e-13
3.6938e-11
6.26322e-12
-1.18986e-11
9.86534e-12
-8.31781e-12
1.56783e-11
4.35268e-11
-2.16197e-12
-2.80013e-11
-1.9384e-10
1.0597e-10
-1.23345e-09
4.66784e-10
4.14174e-09
3.49917e-09
9.37919e-09
1.39882e-07
-1.81603e-08
-2.13376e-07
1.20819e-07
-8.37938e-08
-4.37319e-08
-9.58027e-08
2.93532e-07
-6.53378e-08
1.94723e-07
-2.12381e-07
5.5327e-08
-5.42414e-07
8.23325e-08
-1.48571e-07
6.36485e-08
-6.7612e-07
-3.47036e-07
-6.49567e-07
1.08065e-06
6.56905e-07
-2.69762e-06
-4.37407e-07
-8.76616e-07
3.80531e-07
1.89587e-07
3.13815e-06
-1.75237e-05
1.05186e-06
-2.61737e-06
4.00566e-07
-1.26567e-06
1.18872e-06
-8.16451e-06
2.22323e-06
1.5028e-05
-1.17164e-05
8.90416e-06
1.02447e-05
-3.95672e-05
6.95648e-06
2.12168e-06
-7.50619e-06
6.5688e-06
2.9587e-06
1.7208e-05
-9.62014e-06
-2.29212e-06
2.56953e-05
5.3356e-06
-8.34334e-06
8.17114e-07
-6.21054e-07
6.51406e-06
1.69527e-05
1.1165e-05
-3.74054e-05
8.29515e-06
4.22773e-06
3.04165e-06
-3.66745e-06
-1.98764e-07
-1.8852e-06
1.09949e-05
2.99874e-06
4.59663e-06
1.05493e-05
3.33369e-06
8.90582e-06
-1.40748e-05
-2.59738e-06
3.7122e-06
-1.12546e-05
9.93452e-06
-9.39025e-06
2.34513e-05
1.05496e-05
1.60281e-05
-4.05533e-05
9.42406e-06
-3.80014e-06
8.47152e-06
-3.30709e-06
-2.14686e-06
-7.57256e-06
-3.20401e-06
1.81599e-05
5.89835e-07
-6.88994e-07
-2.05792e-06
-9.05709e-06
2.01379e-06
-2.84525e-06
3.04317e-06
-8.55696e-07
2.14754e-06
-7.05599e-06
7.18809e-06
-1.3307e-05
3.51922e-06
5.04822e-06
5.71259e-06
4.25975e-06
5.07018e-06
-1.64058e-05
3.94212e-06
1.02417e-06
-4.84022e-06
1.32441e-05
-1.79311e-05
1.24363e-05
1.13337e-06
6.38286e-08
1.63737e-07
-3.88099e-06
-2.20012e-06
-1.73495e-06
2.51295e-07
-1.64635e-06
-3.38158e-06
4.78669e-06
6.02046e-08
7.61392e-07
-1.03207e-05
-2.80998e-06
4.75372e-08
1.05033e-05
9.64585e-06
5.62789e-07
1.38011e-06
6.04482e-07
-1.77928e-08
-6.20754e-08
2.64942e-08
4.71854e-08
-3.25327e-08
4.43095e-08
-4.19503e-08
8.58464e-09
-1.12478e-07
-4.3209e-08
-2.89137e-08
1.06954e-07
-6.10306e-08
-3.26346e-08
1.91413e-08
-8.04761e-08
1.1539e-08
-3.91648e-08
-2.55718e-08
-1.67192e-08
1.1503e-08
-2.43172e-08
-1.2933e-08
8.91914e-09
-1.97013e-08
-4.64707e-08
1.36476e-08
4.25225e-08
1.35177e-08
-7.82138e-08
7.38432e-09
-1.94358e-08
2.68053e-09
2.16264e-09
5.5492e-09
-2.56618e-09
-3.84914e-09
7.5986e-10
-7.53851e-09
9.5771e-09
-5.39539e-09
1.27529e-08
-8.11859e-10
4.05275e-09
-5.24918e-09
1.63125e-08
-2.07712e-08
-2.78209e-09
1.19283e-08
-3.59552e-09
7.55426e-10
-1.10673e-09
-5.60379e-09
-7.28165e-09
-1.71068e-10
-9.71178e-10
2.27944e-10
1.09908e-09
-2.06019e-10
3.21087e-10
-1.78864e-10
2.83726e-11
-1.01872e-09
-5.40714e-10
-4.60752e-11
9.5164e-10
-1.47904e-10
-3.30043e-10
2.47755e-10
-3.99909e-10
3.98705e-10
9.55386e-11
3.21718e-10
-4.06242e-10
-7.84584e-11
8.08032e-11
-5.10839e-10
-4.42849e-10
-8.21375e-10
1.30389e-10
-1.07892e-09
-4.74775e-10
-1.18136e-10
-1.10435e-09
1.13525e-10
1.22974e-10
-8.85088e-11
-1.55077e-10
-4.33607e-11
-2.68735e-11
-4.83029e-11
-2.81946e-11
1.43418e-11
-4.00477e-12
-4.80247e-12
-3.99767e-11
-9.33712e-11
3.17002e-16
-3.12746e-16
6.0869e-16
9.76721e-16
-5.56749e-16
3.79565e-16
1.54138e-15
4.48364e-16
1.9004e-16
6.4305e-13
-1.32856e-13
3.96092e-13
-1.30057e-13
8.79447e-13
-4.33509e-13
3.68799e-13
9.11488e-14
1.0308e-13
1.14733e-13
1.05994e-14
-8.77828e-14
-4.85901e-14
3.95344e-13
2.10277e-13
3.92033e-13
1.58223e-13
1.41552e-13
1.02435e-13
-6.71117e-14
5.36917e-13
3.20318e-13
-2.11901e-12
3.10644e-12
-9.39942e-13
-3.66567e-12
-3.41171e-12
-9.17386e-11
3.08466e-10
-1.89825e-11
3.22813e-11
-2.11694e-12
4.27822e-14
2.68656e-12
-1.13702e-11
1.83392e-12
1.24291e-11
-1.32287e-13
-2.15801e-12
-2.87358e-11
-1.095e-11
2.6744e-11
-6.87303e-12
2.12678e-11
-8.23946e-12
1.53854e-11
-5.45886e-12
1.23665e-11
4.05676e-14
9.43797e-12
-1.34797e-11
-1.00062e-11
6.36675e-11
9.76742e-11
2.01163e-11
-2.13215e-11
1.249e-10
-7.71878e-11
2.25659e-10
-4.03403e-11
-7.94731e-11
8.60261e-11
-1.20993e-10
-7.94094e-13
1.54908e-12
-1.2011e-12
5.30469e-13
-3.06322e-13
-8.97617e-13
-1.60614e-12
2.95874e-12
-8.12544e-13
6.60893e-13
1.04746e-12
-2.68392e-12
-1.2311e-12
6.63998e-15
9.2105e-15
-9.27364e-15
-3.66871e-15
1.24144e-14
1.21342e-13
7.00668e-14
1.48264e-14
-3.75363e-14
-3.87067e-17
4.77375e-17
1.42871e-17
-8.31059e-17
-3.13581e-17
-2.5366e-17
1.15631e-16
2.79762e-17
-2.29204e-17
-3.9062e-17
4.68554e-17
2.94897e-17
1.66563e-17
-7.09465e-17
-7.9698e-17
1.1033e-16
1.84349e-16
-1.31227e-17
-6.32252e-17
3.53956e-17
4.53476e-17
-2.45328e-17
-1.14059e-16
2.48031e-16
1.03756e-16
8.57195e-18
-1.48786e-16
9.4665e-17
9.17941e-17
4.25749e-17
2.13619e-17
-4.41724e-17
2.07564e-17
1.29948e-16
-3.22297e-17
4.61055e-17
-1.08107e-16
-8.30826e-09
2.05804e-10
3.6926e-09
1.5385e-09
9.42828e-09
9.72761e-09
-2.95427e-08
6.79592e-09
2.93124e-09
-4.34951e-09
2.10923e-09