/*--------------------------------*- C++ -*----------------------------------*\
| =========                 |                                                 |
| \\      /  F ield         | OpenFOAM: The Open Source CFD Toolbox           |
|  \\    /   O peration     | Version:  v2012                                 |
|   \\  /    A nd           | Website:  www.openfoam.com                      |
|    \\/     M anipulation  |                                                 |
\*---------------------------------------------------------------------------*/
FoamFile
{
    version     2.0;
    format      ascii;
    class       surfaceScalarField;
    location    "0.45";
    object      phi;
}
// * * * * * * * * * * * * * * * * * * * * * * * * * * * * * * * * * * * * * //

dimensions      [0 3 -1 0 0 0 0];
oriented        oriented;


internalField   nonuniform List<scalar> 
13152
(
9.68863e-07
2.02717e-05
-1.59917e-06
-1.96414e-05
1.86912e-05
-1.71231e-05
-5.99271e-07
-3.47837e-06
4.24413e-05
-3.46538e-05
3.54223e-05
-2.3677e-06
2.12136e-05
-7.55087e-05
2.8525e-05
-2.44345e-05
6.04689e-05
-1.61092e-05
-2.9554e-05
-2.84114e-05
7.40746e-05
3.88694e-07
-1.67991e-05
3.01153e-07
-2.99051e-05
7.39859e-07
7.85296e-06
5.16146e-06
-2.98135e-05
7.82462e-06
3.29495e-07
-5.07601e-06
-1.55108e-05
-2.98197e-05
-8.64555e-06
-1.46185e-05
-5.13235e-06
2.83964e-05
-7.02765e-08
-8.66463e-06
8.93582e-08
-1.41488e-05
-5.40001e-07
5.65917e-06
-3.05631e-05
1.62393e-05
-2.93404e-05
2.98672e-05
2.93628e-05
-5.17644e-07
3.83045e-08
-1.52196e-05
-2.99022e-05
1.20837e-07
-7.49353e-05
3.31399e-07
1.59972e-05
3.01954e-05
3.29506e-09
7.4589e-05
3.58131e-05
1.26727e-05
2.53834e-05
-7.38692e-05
3.45976e-07
-6.92941e-07
3.61601e-05
1.24194e-05
2.55908e-07
-1.87736e-05
7.36343e-05
7.78554e-05
2.91668e-05
-7.26692e-07
-2.93906e-05
9.50472e-07
-1.64022e-05
-2.69098e-05
7.24789e-05
1.80507e-07
-1.73094e-05
-8.0736e-06
8.00753e-06
2.46576e-07
5.29394e-06
-3.0677e-05
-4.96621e-06
-1.39361e-05
-2.90629e-05
-1.38119e-05
1.22433e-07
2.91454e-05
2.04993e-07
9.07022e-05
-9.1001e-07
-3.08459e-05
-5.89463e-05
-4.07398e-05
5.82689e-06
0.000125615
-2.51477e-05
-1.65021e-05
-7.43703e-05
-3.41058e-05
0.000114303
-4.80181e-06
-0.000100414
9.3451e-06
-7.047e-06
-2.74458e-05
2.65261e-06
-9.80962e-06
-1.95099e-05
-1.19432e-05
-3.13587e-05
-1.67307e-06
-1.46372e-05
9.46288e-06
6.84734e-06
2.56433e-05
-1.63336e-05
-1.09827e-05
2.07164e-05
-3.00996e-05
1.01398e-05
1.87025e-05
-4.51759e-05
3.32963e-05
-1.36936e-05
-4.21619e-05
9.61746e-05
-5.3559e-05
-1.97604e-05
-3.26484e-05
-1.10488e-06
5.35136e-05
-2.08138e-06
-1.03732e-05
-7.30583e-06
-2.96973e-05
-5.03248e-06
4.55681e-05
3.25106e-05
-0.000107776
4.65153e-05
-5.97968e-06
-2.53692e-05
7.07796e-05
-3.23171e-06
2.29414e-05
2.84467e-05
3.55908e-05
-8.69789e-05
4.59948e-06
2.75627e-05
-9.22082e-06
2.69532e-05
6.09301e-06
9.20482e-06
3.2888e-05
-1.45301e-05
2.97026e-05
1.50931e-05
-1.88274e-05
7.86686e-05
1.69682e-05
-1.03723e-05
-1.7957e-05
-2.16714e-05
5.00007e-05
-6.96868e-06
-5.47428e-05
5.13392e-05
4.88928e-07
-2.54146e-05
4.20275e-05
-2.06768e-05
-7.60935e-05
-3.26259e-05
5.2982e-05
-3.62774e-05
4.14044e-06
-8.23688e-05
5.5306e-06
1.6845e-05
-1.27818e-05
-9.59377e-06
1.88429e-05
-3.64576e-05
2.31453e-05
-6.19779e-05
9.76658e-05
5.65923e-06
2.98774e-05
-4.83185e-05
4.09821e-05
-4.49166e-05
-3.00188e-05
3.45433e-05
-6.21193e-05
-2.83971e-05
-2.02807e-05
-1.29198e-05
6.15976e-05
-5.93399e-07
-3.54591e-05
7.65542e-06
-2.149e-05
6.15906e-07
3.58525e-05
9.96373e-06
-6.73062e-05
3.13335e-05
5.13485e-06
4.34429e-05
-6.89383e-05
6.18566e-05
-3.05637e-05
-4.5832e-05
-2.07645e-05
9.71602e-05
9.67685e-07
3.42846e-07
-3.18742e-05
-5.75735e-05
1.27092e-05
-4.38417e-05
4.13852e-05
2.79935e-06
1.91227e-05
-9.48386e-05
6.26033e-05
-0.000101054
8.3224e-05
1.81438e-05
-1.26336e-06
-1.82473e-05
1.36685e-06
-3.37083e-05
-1.06794e-05
6.25315e-05
5.84833e-07
-3.55565e-05
-1.41052e-05
-6.43612e-05
6.7787e-05
-6.60794e-05
3.37269e-05
-7.04712e-05
6.69488e-06
-0.000172107
3.03424e-05
2.57995e-05
5.68823e-05
-0.000113024
-1.62494e-06
1.43905e-05
1.75769e-05
1.04991e-05
1.36755e-05
2.18448e-05
4.94281e-05
-1.41885e-05
4.65323e-05
1.70639e-05
-3.6836e-05
3.58737e-05
4.07918e-06
-3.11691e-06
5.96537e-05
3.78826e-05
6.11878e-05
1.02864e-05
8.52411e-05
4.20146e-06
1.34911e-05
2.019e-05
2.05202e-05
4.48691e-05
-1.36946e-05
4.45011e-05
3.87569e-06
2.7504e-05
1.4482e-06
-2.46136e-05
-4.33863e-06
-2.54805e-05
-2.80611e-05
8.10456e-05
7.6307e-07
-2.47954e-05
-2.76366e-05
2.79652e-05
4.3449e-07
2.67082e-05
-7.91402e-05
-1.76783e-06
1.6719e-06
3.26776e-07
-1.10488e-05
-0.000192581
6.91486e-05
0.000134481
-0.000123681
4.527e-05
6.73621e-05
0.000142967
0.00021264
4.49713e-05
2.78911e-06
-2.4904e-06
-1.93995e-05
0.000133519
0.000139862
5.89357e-06
0.000333103
-3.53521e-06
9.15802e-06
2.56986e-06
-8.19267e-06
1.39833e-05
1.65905e-05
-3.4109e-05
3.83392e-06
1.93074e-05
-1.81939e-05
-6.19722e-06
2.6961e-05
-1.65782e-05
-9.8083e-06
-7.56028e-06
7.57252e-06
-9.92358e-06
-4.6518e-05
-3.23881e-05
-4.38306e-05
0.000122737
3.30251e-05
-3.68623e-05
-4.26808e-05
-7.13402e-05
7.19772e-05
-2.83472e-05
8.7284e-05
-9.57991e-05
4.50717e-05
-0.0001161
6.32706e-05
-8.95391e-05
0.000106724
3.2662e-05
8.21397e-05
-2.61618e-05
-8.86399e-05
3.40932e-05
-3.75034e-05
3.60721e-05
8.32324e-06
0.00010791
9.44972e-05
-7.744e-06
-0.000124257
2.54658e-05
0.000105104
-6.74163e-05
0.000101205
-0.000101322
2.96725e-06
-1.99618e-05
-5.19397e-05
6.89343e-05
-2.07188e-05
-3.13199e-05
5.50059e-05
-1.89462e-05
-2.17344e-05
9.57098e-07
-1.68449e-05
-3.60519e-05
-1.32955e-05
-1.70672e-05
-3.23309e-06
2.58977e-05
-4.16109e-05
3.0562e-05
-5.55294e-05
-1.39234e-06
1.39945e-05
1.23247e-05
1.39283e-05
-1.35004e-05
-1.698e-05
1.6552e-05
-3.27839e-05
8.69856e-06
3.80137e-05
-4.60144e-06
-4.16829e-05
4.41728e-05
-6.14688e-06
6.42723e-06
5.42976e-05
-2.84896e-05
4.36154e-05
-3.92379e-05
-5.23508e-06
-1.12365e-05
-2.53273e-05
4.17989e-05
-5.01703e-06
-3.20975e-05
3.18794e-05
-4.56539e-06
-1.16881e-05
-2.77228e-05
-3.1828e-05
3.42235e-05
-2.04842e-05
-3.93361e-05
-1.20182e-05
2.52981e-05
-1.78453e-05
1.94394e-05
-4.31457e-05
-1.92768e-05
1.8232e-05
-2.58068e-05
-2.11648e-05
-5.5744e-06
1.20808e-05
1.46584e-05
1.01973e-05
-2.29073e-06
-2.90714e-05
-4.36834e-06
8.99128e-06
-5.75783e-06
2.62605e-06
1.52126e-05
3.54961e-06
-1.15982e-05
2.16055e-05
-1.69999e-05
-8.97389e-06
2.3278e-06
2.82689e-05
-6.88192e-06
1.18358e-05
-2.03322e-05
1.48872e-06
-8.00362e-06
1.26515e-05
-6.13663e-06
-1.14125e-05
2.01914e-06
1.08821e-05
1.50632e-05
-3.44793e-05
3.92993e-06
-1.32398e-05
1.1329e-05
-1.42594e-05
-7.84905e-06
9.67247e-06
-9.45686e-06
1.85089e-06
-2.22446e-05
-6.97909e-07
2.10916e-05
-2.56216e-05
1.9663e-05
7.80943e-06
1.90053e-05
-6.68714e-05
2.07329e-05
-1.8782e-05
-2.64889e-06
-1.51751e-05
5.69997e-05
-1.74288e-06
6.2308e-06
-1.51956e-06
-2.29552e-05
2.34468e-06
2.13766e-05
-7.66086e-07
3.62335e-05
1.28057e-05
-7.19943e-05
2.85922e-05
9.9859e-06
-3.09086e-05
-1.45863e-05
-3.98804e-05
8.20576e-06
4.29271e-05
-7.00018e-05
5.69331e-05
0.00011462
0.000109938
0.00011003
-0.000334587
-3.22555e-06
0.000107388
1.0457e-05
0.000109892
-3.18015e-06
-0.000119026
-0.000102893
0.000331811
-0.000111181
-1.1025e-05
7.32677e-06
-8.47847e-06
1.1822e-05
-5.01554e-06
-1.15696e-06
5.02723e-06
1.14527e-06
4.50714e-06
3.01214e-06
-1.25348e-05
7.47077e-06
-4.1206e-06
-3.32442e-06
-3.17651e-06
1.15282e-05
-5.47848e-06
3.29933e-06
4.31925e-06
-6.78559e-06
8.61351e-06
-5.5381e-06
-3.02279e-06
2.17113e-06
6.38976e-06
2.18124e-06
3.80882e-06
1.83707e-06
-2.67862e-06
2.9516e-06
2.19593e-06
-1.33871e-06
-3.73136e-06
8.85409e-06
-6.85944e-06
4.96516e-06
-7.34213e-06
3.61728e-06
3.55398e-06
-3.31369e-06
-3.85757e-06
1.78865e-06
-3.52296e-06
5.35159e-06
-6.81144e-06
1.21541e-05
2.65842e-06
4.80575e-06
-1.07779e-05
1.01299e-05
-2.19489e-06
8.80181e-06
-4.20058e-06
-6.75099e-06
-2.27429e-05
3.48552e-06
2.60084e-05
-7.71046e-06
-5.89137e-06
6.85084e-06
-6.27035e-06
-2.4183e-05
1.35673e-05
-8.96496e-07
-1.85622e-05
2.87945e-06
1.75387e-05
1.68587e-05
-2.40256e-05
2.32237e-05
-1.52758e-05
1.17527e-05
1.51072e-05
-1.15841e-05
3.75638e-05
-1.48258e-05
1.23052e-05
3.70113e-05
-3.15216e-05
1.15535e-05
3.50753e-05
-1.01349e-05
-3.29708e-05
-8.51908e-06
-2.92857e-07
2.03654e-05
1.63372e-07
-1.88173e-05
9.74787e-06
-2.44103e-05
2.17602e-05
-3.51295e-05
2.82629e-05
-2.11474e-05
2.8014e-05
8.16772e-05
-8.89696e-06
2.3652e-05
8.6288e-05
5.43171e-05
-2.11668e-05
8.79317e-06
7.35379e-05
6.61559e-05
-9.62197e-05
9.86011e-05
6.56254e-06
8.57738e-06
-8.24723e-06
-6.89269e-06
5.58185e-06
-1.08803e-05
1.1861e-05
-1.56331e-05
2.97923e-05
8.09361e-06
1.13855e-05
-2.77263e-05
1.94499e-05
-1.8249e-05
-9.21605e-06
1.77857e-05
-1.34636e-05
-1.66877e-05
6.25343e-06
1.3916e-05
-3.48176e-06
2.61537e-05
2.46716e-06
-4.53085e-05
1.01652e-05
2.22418e-05
-1.00018e-05
2.09482e-05
2.96968e-06
2.35508e-05
-3.10855e-05
1.89252e-05
-5.67643e-05
4.80044e-05
-3.6684e-05
7.78509e-05
1.2224e-05
-4.54376e-05
-3.51176e-06
-8.13549e-06
-6.42658e-07
1.06092e-05
-1.83104e-06
2.36345e-05
-1.6863e-07
-3.16013e-05
-1.69244e-06
2.46843e-05
7.89814e-06
2.88021e-05
-3.68688e-05
4.60453e-05
-2.75379e-05
4.89864e-05
-2.18768e-05
0.000119716
-6.00822e-05
-2.12857e-05
-4.09042e-05
0.000122272
-1.06721e-06
-6.61076e-05
7.09266e-06
-2.18928e-05
-4.60102e-07
2.07497e-05
1.32623e-05
-5.59048e-05
2.19054e-05
-1.61585e-06
0.000103324
-4.42699e-05
-0.000125161
-6.19243e-05
0.000124344
7.85756e-06
-3.88651e-05
-3.21613e-05
2.07592e-05
1.64489e-05
-6.88094e-05
-8.60981e-06
-2.90297e-05
-1.507e-06
5.2913e-05
-5.01901e-05
-1.21591e-06
2.73147e-05
-2.81888e-05
-6.32924e-07
-4.97596e-05
0.000129987
1.22173e-05
8.09362e-06
-4.84997e-05
1.27855e-05
-1.20111e-06
-9.25082e-06
-2.77233e-05
-5.13473e-05
1.19252e-05
-2.84345e-06
-1.78551e-05
8.77332e-06
-1.62947e-05
-2.18513e-05
5.00712e-05
-1.63086e-05
-2.82958e-06
5.25804e-06
-1.82859e-05
-8.82339e-06
-1.93047e-05
6.70765e-06
1.33406e-05
-4.89539e-05
-7.7749e-06
5.67102e-05
8.85258e-07
-5.41297e-05
-3.46576e-06
-4.1381e-05
-1.20614e-05
0.000110153
-4.07471e-05
2.51327e-07
1.57314e-05
-1.45725e-05
-5.52885e-05
-1.47971e-05
1.8467e-05
5.08929e-05
1.19085e-05
-0.000103548
5.17943e-05
-6.50084e-07
-1.49448e-05
5.1942e-05
-1.76088e-05
1.69638e-05
1.26674e-06
-2.13232e-06
-1.60982e-05
-2.88682e-05
-8.42704e-06
5.4259e-05
-2.45537e-05
-3.04772e-06
-2.61704e-05
2.37518e-05
2.86262e-07
8.09757e-06
-5.03662e-05
-3.55798e-05
5.09046e-05
-5.2036e-05
-1.44613e-05
-4.03519e-05
-7.83357e-06
6.26468e-05
-7.86036e-06
1.13418e-06
-7.73511e-06
-1.18266e-05
-3.63857e-05
-1.17292e-05
-1.52613e-05
2.81246e-05
-4.94785e-06
-1.45164e-05
1.72014e-05
-3.39759e-05
-5.89343e-06
2.02823e-05
1.09758e-05
3.72436e-05
-6.85017e-05
-1.48744e-05
1.30232e-05
2.21335e-05
5.87482e-05
5.18921e-05
-4.19371e-05
3.06822e-06
-3.98876e-05
0.000113913
1.26279e-06
-5.63725e-05
1.31726e-05
-3.6951e-05
-1.67376e-06
-9.24691e-05
0.000114266
-0.000111598
-2.44004e-05
5.74704e-06
5.33204e-05
-3.4667e-05
3.77648e-05
3.22563e-05
-9.44216e-05
4.04754e-05
3.03651e-06
-5.42615e-06
1.66806e-05
4.2066e-05
2.00569e-05
6.7732e-06
-4.45929e-05
-2.00916e-05
0.00010516
-5.54858e-05
1.39295e-05
1.0977e-05
-4.64059e-05
7.56595e-06
1.4224e-05
1.02854e-07
-1.61835e-05
1.85667e-06
-1.72179e-05
-7.5849e-06
3.90268e-05
2.16265e-06
-1.92777e-05
-1.10436e-05
-4.5539e-05
4.89977e-05
-5.58942e-05
2.86671e-05
-4.93556e-05
5.97926e-06
-0.000124528
-9.95466e-06
-8.11974e-06
2.10441e-05
-3.15373e-06
-1.51062e-05
8.3053e-06
-1.47552e-05
3.83031e-05
-9.83668e-05
-7.88861e-06
-7.15197e-05
-2.19233e-05
4.80054e-05
2.87906e-05
-0.000108199
1.51726e-05
3.27049e-05
-5.18748e-05
-4.43545e-05
-3.01152e-05
0.000126344
-6.59967e-06
-7.67208e-05
3.14457e-05
-4.63708e-05
-4.58345e-06
5.94823e-05
3.04867e-05
-0.00013634
7.32957e-05
-1.83968e-05
8.39914e-05
-0.000130225
0.000127172
-2.72681e-05
-2.53781e-05
-1.35269e-05
6.61731e-05
-5.24427e-06
-2.35149e-05
1.491e-06
-2.4243e-05
-6.37937e-06
3.10134e-05
9.63203e-06
-6.48884e-05
4.15543e-05
-1.69202e-05
3.94641e-05
-5.3347e-05
6.74915e-05
3.70571e-06
-2.49962e-05
3.17916e-05
-1.05012e-05
-2.32101e-05
2.18045e-05
5.11125e-06
1.43066e-05
-6.25128e-05
-2.0964e-05
-1.51187e-05
5.78872e-05
-3.2999e-05
1.71463e-05
-5.94432e-06
-1.08417e-05
1.66725e-06
-1.15027e-05
-2.74406e-05
6.63238e-06
-3.82851e-06
2.75824e-05
2.15075e-05
1.80531e-05
1.55316e-05
-5.50922e-05
6.22923e-06
3.30613e-05
-1.7783e-05
1.88159e-05
5.46638e-06
-2.51115e-05
-1.52342e-05
5.91617e-05
-3.58758e-05
1.62306e-05
-3.94554e-05
5.72825e-05
-5.97996e-05
6.48766e-06
-8.32449e-06
2.13223e-05
-1.94855e-05
-1.68842e-05
1.78056e-05
5.56627e-06
1.53302e-05
-4.05389e-05
-1.63269e-05
-1.29955e-05
4.71281e-05
-2.84824e-05
1.77218e-05
-4.1727e-06
-8.46791e-06
-3.54915e-07
-9.93132e-06
-2.27238e-05
3.62463e-06
1.77424e-06
1.6479e-05
4.44118e-05
2.90537e-06
-4.42534e-05
-3.0638e-06
-4.2885e-05
-5.13814e-05
0.000138678
-4.79008e-05
7.9211e-06
4.14223e-05
5.04913e-05
-0.000136167
4.86012e-05
-1.02427e-05
6.7767e-06
-9.55687e-06
9.36725e-06
1.44456e-06
-3.91667e-05
-1.70396e-06
3.94261e-05
-4.11312e-05
3.84466e-05
4.12919e-06
3.63032e-05
-0.000116601
4.17821e-05
-3.81221e-05
-5.36398e-06
-3.73028e-05
0.000118511
-3.32002e-06
4.46385e-06
-5.13893e-06
-1.03212e-05
2.14864e-05
-2.79582e-05
1.6793e-05
3.39206e-05
-2.25909e-05
-2.16508e-05
-1.54211e-06
5.69491e-05
6.20242e-05
2.91296e-06
-9.28953e-05
2.6746e-05
5.20711e-05
4.38352e-05
-6.35131e-05
6.90391e-05
3.83606e-05
3.66911e-05
4.9675e-05
-0.000124727
1.40603e-05
6.60296e-05
-4.17293e-05
2.06758e-05
3.00757e-05
-0.00010329
4.63361e-05
0.000122984
0.000112783
-0.000166398
4.15282e-05
9.19303e-05
0.00011794
-3.43122e-05
5.9424e-05
2.95884e-05
-5.47002e-05
0.00012751
-5.27066e-05
-0.000109116
5.36947e-06
0.000181565
-0.000112166
6.05977e-05
8.11564e-05
-1.10082e-06
-0.000165765
0.000118164
-0.000171971
0.000184131
2.30553e-05
-2.90585e-06
-1.56234e-05
-4.52607e-06
-1.19474e-05
-6.69891e-06
4.17016e-05
-7.74365e-06
-7.1096e-06
3.11909e-06
-4.59611e-06
-1.41464e-05
-4.10291e-06
5.23092e-07
1.56197e-06
9.55611e-06
-1.88617e-05
1.36534e-05
-1.9201e-05
1.27242e-07
5.32596e-06
9.18453e-06
1.16356e-05
4.33783e-06
-1.85674e-05
2.59401e-06
-6.88943e-06
-5.43862e-06
2.39636e-05
1.84738e-06
-4.39898e-06
-2.53143e-06
9.15437e-06
-4.77556e-06
2.10282e-06
-9.03323e-06
-1.24736e-05
1.61893e-05
-2.89382e-05
-5.85651e-06
6.40737e-07
-1.31682e-06
6.53259e-06
8.33995e-06
6.2722e-06
-2.04687e-05
8.1601e-06
8.20587e-07
2.72923e-06
-2.15341e-06
-1.89264e-06
-9.71482e-07
1.02333e-05
1.48106e-06
2.63773e-06
8.66968e-06
-5.97538e-07
1.28802e-05
-7.27119e-07
-1.15555e-05
1.39963e-05
-3.38778e-06
-1.12061e-05
2.78546e-07
2.65979e-05
-3.57517e-06
3.66863e-06
3.63204e-06
-1.87627e-05
-2.22415e-06
2.4684e-06
1.72303e-06
-4.33474e-06
-1.05424e-05
3.77293e-06
1.11042e-05
-1.11185e-05
1.12853e-05
-4.50152e-06
7.39349e-06
-2.90544e-05
3.33712e-06
-2.3673e-06
2.80312e-06
-2.82142e-06
1.72627e-05
-3.07224e-06
1.15361e-05
1.95395e-06
2.28184e-06
5.71298e-06
9.36977e-07
-8.9318e-06
-1.40178e-07
2.84352e-06
-4.21497e-07
5.8823e-06
-3.09502e-07
2.49302e-06
9.21886e-06
-1.07749e-05
1.09304e-05
-5.59381e-06
-1.22417e-05
-3.33238e-06
-4.17874e-06
-1.6409e-05
3.78504e-05
5.7833e-07
-4.29454e-06
1.31444e-06
-7.73844e-06
-4.3509e-06
-4.70087e-06
-2.13711e-05
-2.31601e-05
-4.54342e-05
-2.04187e-05
8.9013e-05
-1.85203e-05
-4.51761e-05
4.05364e-05
-1.79393e-05
-4.60152e-05
5.34616e-05
-8.31646e-05
-1.54732e-05
-0.00011752
0.000150563
-5.90892e-05
-7.637e-05
-0.000188269
1.44764e-05
3.09014e-05
-2.94858e-05
-1.5892e-05
2.15067e-06
-1.63101e-05
2.86359e-05
-3.08964e-05
6.39484e-05
2.57994e-05
7.09751e-05
-0.00012626
7.04097e-05
-6.05023e-05
-2.40401e-05
7.87051e-05
1.43654e-05
-5.00515e-05
6.43219e-05
6.919e-05
-6.30404e-05
2.20755e-05
6.29504e-05
-2.19856e-05
0.000125719
2.09171e-05
-0.000209676
7.50986e-05
7.26958e-05
-3.87557e-05
7.40847e-06
9.42977e-05
-2.99797e-05
-3.07617e-05
-1.74573e-05
-1.585e-05
4.07158e-05
-3.89222e-05
-8.51476e-06
6.02982e-05
-7.83033e-05
0.000119547
-0.000107626
-0.000121712
-0.000104843
3.09699e-06
-7.00073e-05
-4.45565e-05
-7.40587e-05
-6.84252e-05
-6.71793e-05
-0.000121496
-7.57232e-05
-2.51661e-05
2.68306e-05
7.39073e-05
-0.000227934
-7.27551e-05
-1.82652e-06
5.92299e-05
-2.47286e-05
-3.26747e-05
9.39753e-05
-4.26364e-05
-5.31654e-05
-9.66475e-05
-6.50165e-05
-2.18293e-05
-1.27306e-05
9.83129e-06
-5.58214e-06
-5.88836e-05
4.74635e-05
-0.000149693
-3.02835e-05
3.23412e-05
-2.43443e-05
-2.5354e-05
1.73571e-05
-7.98238e-05
2.40161e-05
8.81489e-05
-2.98227e-05
-7.43453e-05
4.62459e-05
-8.85243e-06
-6.27475e-05
3.02427e-05
3.33603e-05
1.58102e-05
3.95128e-06
-2.86139e-05
4.11619e-06
4.19367e-05
-2.02091e-05
4.83414e-05
-4.60806e-05
-4.07402e-05
-1.56637e-05
8.22615e-06
4.81778e-05
1.29159e-05
-4.82235e-06
-4.88337e-05
-1.22253e-05
9.47738e-06
2.74979e-05
-6.38837e-06
-3.33348e-05
8.64829e-06
2.8327e-05
2.80639e-05
-3.92746e-05
4.49384e-05
6.37798e-06
9.41672e-06
-8.05078e-06
-7.74391e-06
-1.92857e-06
-1.51963e-05
2.35028e-05
-2.58466e-05
4.14165e-06
1.34594e-05
-2.56518e-05
1.93554e-05
-2.29577e-05
-2.08152e-05
2.49743e-05
-3.32024e-05
1.40008e-05
3.41985e-05
-2.50579e-06
-4.56935e-05
1.19146e-05
-9.11975e-06
1.1206e-05
1.09342e-05
3.51788e-05
2.52044e-05
-9.99354e-06
-2.43306e-05
3.82897e-06
3.25814e-05
-2.87332e-05
4.34964e-05
-4.12325e-05
-1.11131e-05
-1.13016e-05
1.13097e-05
1.11049e-05
4.26092e-07
-3.59494e-05
-2.96928e-05
-1.55579e-06
3.32309e-05
3.13093e-05
-2.03994e-05
-7.27331e-06
1.31599e-06
2.63567e-05
5.04016e-06
-1.08795e-05
-1.456e-05
-6.92232e-06
4.68917e-06
1.40341e-05
2.1434e-06
-2.30998e-05
7.57173e-06
1.11515e-05
1.97228e-05
-2.84589e-05
2.86105e-05
-1.50905e-05
-1.07301e-05
-9.84351e-06
3.56641e-05
-3.36871e-06
-1.16887e-05
-3.30323e-08
-4.30965e-06
-9.78914e-06
-5.11644e-06
1.09619e-05
-1.01551e-05
1.8082e-05
-3.29875e-05
4.50979e-07
5.94225e-06
1.56938e-06
-5.70553e-06
2.14131e-06
-7.51135e-06
1.10756e-05
1.8904e-07
-3.00814e-06
-2.88642e-06
-8.77911e-07
3.20827e-06
8.44614e-06
4.19318e-07
-9.74337e-06
8.10515e-06
3.54927e-06
-6.17759e-06
1.12746e-05
-1.32696e-05
1.73492e-05
4.15223e-05
-6.51588e-06
-5.23557e-05
1.67379e-05
-1.68384e-05
1.74498e-05
8.49545e-06
4.97648e-05
4.77695e-05
-1.64293e-05
-4.81787e-05
7.50845e-06
5.77108e-05
-4.23626e-05
5.83666e-05
-6.53078e-05
7.35671e-06
-9.06846e-06
-3.97925e-06
5.691e-06
-2.63067e-05
1.08929e-05
2.27706e-05
-4.05661e-06
-3.13186e-05
2.62602e-06
-3.76273e-06
-2.84254e-06
2.06746e-06
6.24956e-06
2.58558e-06
7.15964e-07
-7.06428e-06
-1.18056e-07
4.7711e-06
-3.9589e-06
1.47337e-05
-7.29955e-06
-6.50138e-06
-6.69547e-06
-2.21702e-06
1.54139e-05
-6.23849e-07
-8.02779e-06
2.15026e-06
-8.02388e-06
7.04556e-07
-8.72273e-07
-1.08125e-05
3.65702e-06
-5.9981e-06
2.90881e-06
5.17001e-06
-2.40064e-05
-1.23532e-07
-2.30148e-05
1.52837e-06
2.49626e-05
-3.47616e-06
1.52316e-05
7.32565e-06
-4.5572e-05
1.59528e-05
8.07161e-07
-2.45982e-05
-8.27413e-06
4.88252e-05
-2.26056e-05
-1.18549e-06
3.1951e-05
-4.72309e-05
4.86395e-05
1.86662e-05
1.39434e-05
7.7309e-06
-4.03405e-05
2.18872e-06
2.38088e-05
-7.33135e-06
1.18379e-06
1.49484e-05
2.72859e-05
2.09302e-05
-4.04851e-05
8.46533e-06
4.26293e-05
2.02447e-05
1.86928e-06
4.36584e-05
-3.09117e-05
-3.59088e-06
2.15584e-05
1.29442e-05
1.72178e-05
5.13566e-06
-5.32651e-05
1.52479e-07
1.34744e-05
1.8428e-05
-1.93118e-05
1.03631e-06
-6.28194e-06
3.81843e-05
-2.67296e-05
4.20061e-05
-4.09058e-05
4.85639e-05
4.02722e-06
-3.81108e-05
-1.44803e-05
-3.83571e-05
-2.65575e-05
0.000113479
-3.99123e-05
5.58244e-06
1.35728e-05
-3.5961e-05
-1.57227e-05
-3.61376e-05
2.31529e-05
5.043e-05
-0.000126303
1.98748e-05
-6.62804e-05
-6.43954e-07
6.73594e-05
-4.35079e-07
2.40441e-05
3.23546e-05
-0.000122679
4.77319e-07
2.29229e-05
5.3831e-05
-5.30985e-05
-2.55158e-07
-3.74184e-05
0.000114172
9.85931e-05
5.49026e-05
-0.000121141
3.95671e-05
0.000126385
4.86979e-06
-3.06562e-06
7.01848e-06
-6.27465e-05
-4.09694e-05
-1.2212e-05
0.000115928
3.69531e-07
-6.33712e-05
-4.18738e-05
1.27393e-06
1.41983e-05
-6.66522e-06
-4.9407e-05
1.49109e-05
5.61403e-07
1.60653e-05
2.21322e-05
-4.48627e-05
4.86579e-05
-1.76817e-05
7.45487e-05
-0.000115788
0.000110995
-5.22514e-05
-1.35487e-06
5.15537e-05
2.05263e-06
2.04846e-05
4.20556e-05
-0.000114792
-9.60232e-07
2.009e-05
2.94166e-05
-2.91698e-05
-1.20709e-06
-9.54388e-06
5.90505e-05
-1.3462e-06
5.14272e-05
1.4727e-06
4.19883e-05
-1.27889e-06
-5.39851e-05
9.58683e-05
-4.11666e-05
-1.77709e-05
-3.49258e-05
0.000111747
-1.92125e-05
2.34454e-07
1.84282e-05
8.73298e-06
-4.63737e-05
1.84012e-05
2.61521e-07
1.42483e-05
-4.66819e-05
5.75535e-05
-2.49041e-05
0.000118496
-4.57058e-05
-4.32965e-07
4.10163e-05
5.12243e-06
3.43452e-05
4.42929e-05
9.76127e-07
3.29361e-05
4.30267e-05
2.24227e-06
-4.30142e-05
0.000118977
2.44411e-07
2.5853e-05
3.26728e-05
7.35127e-06
-6.58771e-05
1.10443e-06
2.50095e-05
-2.60883e-07
-3.56052e-05
2.17496e-05
-8.41587e-05
4.87613e-05
3.53752e-05
2.27803e-05
-0.000106917
5.44323e-06
5.64906e-05
3.01622e-06
3.78022e-05
7.24651e-05
5.54749e-05
1.91437e-05
0.000109812
5.9873e-05
-1.38186e-06
0.000116819
4.28227e-05
2.12876e-05
4.18107e-05
7.51062e-07
-6.16012e-05
-6.22319e-05
-0.000125103
-2.55204e-05
-3.40403e-06
4.56958e-05
-9.05551e-06
-2.54923e-05
-2.82773e-05
-5.78283e-05
-1.69539e-05
-3.82099e-05
2.96714e-05
-2.33077e-05
-2.19235e-05
1.68915e-05
-3.47412e-05
-3.99786e-05
-5.59853e-05
-1.31879e-05
-6.61052e-05
-6.98526e-05
-6.54188e-05
-5.42541e-06
2.44384e-05
3.30389e-05
-9.16845e-05
-5.09777e-06
3.27112e-05
6.66396e-05
-2.46381e-05
1.97619e-05
5.28805e-05
2.8417e-05
3.73087e-05
-9.03637e-05
2.1571e-05
2.66079e-05
4.94187e-06
-3.4043e-05
5.06722e-05
-6.01348e-05
3.6657e-05
-5.94831e-05
5.54946e-05
5.79292e-06
2.47309e-05
3.46091e-05
2.01815e-05
7.13348e-05
-2.25186e-08
-7.18072e-05
4.9494e-07
-3.9003e-05
-4.24809e-05
0.000152819
8.79693e-07
-3.99053e-05
-3.7308e-05
3.60163e-05
2.17143e-06
5.648e-06
-8.28613e-05
-6.07199e-05
5.42553e-05
-0.000126879
-1.57717e-05
-4.31598e-05
7.90543e-06
5.10261e-05
3.68229e-06
-1.96252e-05
1.71201e-07
-4.92508e-05
9.77338e-06
-2.22327e-05
-2.7556e-05
5.76941e-05
-6.7806e-05
2.59481e-05
8.41107e-05
1.53893e-05
-0.000148751
7.41524e-05
1.97316e-05
9.48642e-05
-0.000147281
0.000141461
-2.36236e-05
-4.98778e-05
2.49563e-06
1.0312e-05
1.73243e-05
2.15018e-06
-1.79911e-05
-1.48339e-06
-4.00202e-05
-1.77923e-06
5.91237e-05
1.87107e-06
-3.97411e-05
1.64049e-05
-6.43014e-05
2.99055e-05
-4.49442e-05
5.95699e-05
-3.77318e-05
3.72436e-05
2.35921e-06
1.53665e-06
-7.90096e-05
5.56638e-05
-0.000118429
4.79632e-05
-2.34327e-05
-2.24008e-05
-1.05525e-05
5.6386e-05
-3.90333e-07
-2.26596e-05
-3.82789e-07
-2.06197e-05
1.7727e-05
-7.0931e-05
3.05444e-05
6.14299e-05
4.57044e-05
-0.000149185
-0.000152106
-3.04371e-05
-6.0458e-05
-2.75508e-07
6.96398e-07
1.49313e-05
3.03485e-07
-1.47501e-05
-4.84693e-07
-3.41846e-05
-1.0145e-05
5.92609e-05
-8.66709e-07
-3.30144e-05
9.28246e-06
-5.24086e-05
2.8376e-05
-5.78797e-05
5.70172e-05
-5.49522e-05
-3.79427e-06
-0.000140375
-7.09919e-05
-3.25907e-05
-4.85231e-05
-1.42839e-06
-6.82851e-05
-1.27846e-06
-3.16599e-05
3.6359e-05
-0.000147028
6.69289e-05
-0.000148998
2.62956e-06
-3.98574e-06
2.06969e-06
4.83e-05
7.0716e-05
2.39845e-05
-0.000143001
-8.55253e-08
5.48427e-07
4.78371e-05
6.88127e-05
1.81779e-06
7.25244e-05
-7.32544e-05
-2.28772e-05
0.000143239
-9.61243e-05
0.00014206
-0.000145394
-6.94881e-05
-4.88274e-05
-2.46011e-05
0.000142917
7.81634e-07
-7.45101e-05
4.24039e-06
-5.02119e-05
2.16614e-06
7.64403e-05
2.61521e-05
-0.000152804
7.44187e-05
4.1877e-06
0.000100377
-0.000148735
0.000150195
2.24872e-05
2.75415e-06
-2.51942e-05
-4.71734e-08
-1.17519e-05
-5.06683e-06
3.93059e-05
-1.56241e-05
6.62635e-06
3.44254e-05
-6.69819e-06
-5.29214e-05
-1.96758e-05
4.90344e-05
3.10439e-05
-5.33661e-05
1.79944e-05
1.02471e-05
2.27261e-05
-3.68076e-06
-2.92925e-05
7.00963e-06
-7.77461e-06
1.10121e-05
1.05015e-05
1.92343e-05
2.27244e-05
-5.32558e-06
-2.51734e-05
2.53653e-06
3.12e-05
-2.22443e-05
3.52823e-05
-3.12506e-05
4.90228e-06
-1.07636e-05
-2.26379e-05
2.84992e-05
-7.53103e-06
-1.251e-05
2.49433e-05
-6.00552e-06
-1.22891e-05
-1.28242e-05
-1.4252e-05
1.45662e-05
-1.55131e-05
-1.9949e-05
-7.70649e-06
-1.38121e-05
-3.42476e-05
2.15692e-06
1.01956e-05
-5.04798e-06
-7.30451e-06
8.45136e-06
-8.95541e-06
2.66097e-06
-1.96312e-06
2.06101e-05
1.72978e-05
-4.21914e-06
-2.2034e-05
8.57505e-06
1.13837e-05
3.96985e-06
6.57548e-07
-8.84653e-06
2.09605e-06
1.04489e-05
-2.58836e-06
2.7213e-06
-6.97878e-06
9.62119e-06
3.16857e-06
-3.19087e-09
-1.27866e-05
2.48867e-07
6.04458e-06
3.32775e-06
1.62838e-06
1.78906e-06
-1.03857e-07
-5.57226e-06
-5.74344e-06
7.42865e-06
-1.29937e-06
-2.83123e-06
-1.44166e-06
-2.39959e-06
-4.64322e-06
-2.24026e-06
5.45362e-06
-4.64304e-06
4.69653e-06
-1.53359e-05
-2.40162e-05
3.46555e-05
-1.86577e-05
-4.15575e-05
6.49117e-05
-1.43034e-05
-1.96902e-05
-2.3763e-05
-3.94945e-05
3.92414e-05
-2.46408e-05
-4.06797e-05
-1.3779e-05
-4.00189e-05
-5.81101e-05
2.93989e-05
-6.90127e-06
5.43386e-05
-7.68363e-05
-6.17036e-05
5.29769e-05
3.81256e-05
0.000100092
-0.000168697
8.33248e-06
-7.16208e-05
0.000116265
-6.42363e-05
0.000110694
-5.99432e-05
-7.72254e-05
-2.92096e-05
-8.07873e-06
1.1142e-05
2.61463e-05
1.54669e-05
1.14418e-05
-5.61183e-05
-7.67025e-06
1.50585e-05
-1.97076e-05
-9.74633e-07
3.18242e-05
9.50382e-06
-1.77696e-05
2.62042e-05
-2.43706e-05
4.0288e-05
4.1028e-05
1.65419e-05
-4.35753e-05
-1.6887e-05
4.08478e-05
-2.88667e-05
2.85215e-05
9.97232e-05
9.21928e-05
-6.37254e-06
1.88992e-05
-1.88637e-06
-1.06403e-05
6.2149e-05
-3.06787e-05
-3.78429e-05
-1.9937e-05
0.000100985
-1.78955e-06
8.55253e-06
-8.64935e-06
2.60716e-06
-1.5037e-05
1.50697e-05
-4.31412e-05
3.68516e-06
-8.24199e-06
-7.57567e-06
-1.07578e-05
2.65755e-05
7.91279e-06
-1.00107e-05
-6.14409e-06
-1.71659e-05
1.7503e-05
6.00618e-07
1.82936e-05
-2.89049e-05
9.91439e-06
-1.54579e-05
1.404e-05
-2.12915e-05
2.15758e-05
-9.14906e-06
3.52805e-06
1.83683e-05
-1.27473e-05
1.49055e-05
2.36733e-05
-4.77278e-05
1.3824e-05
4.60955e-06
-8.9316e-06
1.5827e-05
1.67779e-05
1.98971e-05
-1.04604e-05
-5.8347e-06
3.95557e-05
1.46018e-05
-1.00678e-05
1.06963e-06
-1.15534e-06
1.01535e-05
2.03694e-05
1.81548e-05
-4.8592e-05
1.66843e-05
4.75468e-06
5.65148e-06
-6.40288e-06
-4.03941e-07
-2.5893e-06
1.83943e-05
3.99808e-06
7.75384e-06
1.80931e-05
3.81088e-06
1.4307e-05
-1.53938e-05
-2.72404e-06
6.03138e-06
-1.32486e-05
1.10281e-05
-1.42762e-05
3.46145e-05
1.1535e-05
1.71072e-05
-4.4036e-05
1.35656e-05
-5.16551e-06
9.02416e-06
-5.87607e-06
-5.88893e-06
-1.28123e-05
-8.00129e-06
2.67025e-05
1.61146e-06
-1.87023e-06
-5.63015e-06
-1.4593e-05
3.39214e-06
-7.76504e-06
8.09251e-06
-2.1977e-06
5.53417e-06
-1.89294e-05
1.29779e-05
-2.20367e-05
1.30295e-05
8.041e-06
8.42029e-06
1.0665e-05
8.36685e-06
-3.79612e-05
6.97073e-06
1.49658e-06
-7.28061e-06
2.22923e-05
-2.09446e-05
1.51606e-05
7.55377e-06
6.0505e-07
6.70009e-07
-8.82883e-06
-6.63177e-06
-6.28313e-06
9.50911e-07
-6.97763e-06
-1.03829e-05
1.02114e-05
1.12249e-06
1.06635e-06
-1.84269e-05
-6.33551e-06
7.22388e-07
1.894e-05
2.28159e-05
2.77659e-06
7.61612e-06
3.52168e-06
-1.37984e-05
-3.71058e-05
1.89388e-05
3.19653e-05
-2.70937e-05
3.51554e-05
-2.186e-05
3.98513e-06
-6.81846e-05
-7.29637e-05
-1.23259e-05
0.000120445
-2.98014e-05
-6.50223e-05
2.52509e-05
-5.10671e-05
3.18638e-05
-0.00011209
-6.61524e-05
-3.14337e-05
2.74861e-05
-5.77511e-05
-8.18252e-05
2.3192e-05
-6.18583e-05
-9.70262e-05
5.22023e-05
6.8016e-05
2.3702e-05
-0.000182587
5.0995e-05
-8.50441e-05
7.17635e-05
3.08828e-05
7.62567e-05
-3.05254e-05
-7.66141e-05
3.13358e-05
-8.7401e-05
8.6948e-05
-0.00010848
0.000216072
-2.41256e-05
8.5351e-05
-9.17508e-05
0.000122091
-0.000222831
-5.67191e-05
9.14092e-05
-7.9848e-05
1.39983e-05
-3.68417e-05
-0.000106346
-0.000202072
-2.4972e-05
-9.38797e-05
3.52446e-05
8.36071e-05
-5.00012e-05
4.45856e-05
-1.95564e-05
3.6957e-06
-0.000147577
-6.33435e-05
-1.50242e-05
0.000122953
-2.93583e-05
-5.35416e-05
4.69559e-05
-7.26185e-05
6.71763e-05
8.40345e-06
2.92459e-05
-3.37429e-05
-3.90649e-06
3.90349e-05
-6.0915e-05
-2.76363e-05
-3.88241e-05
1.01705e-05
-0.000104828
-2.26338e-05
-8.90898e-06
-5.12875e-05
1.68051e-05
1.80575e-05
-8.93961e-06
-2.59231e-05
-1.26369e-05
-7.59278e-06
-1.01134e-05
-3.48833e-06
4.22e-06
-4.34267e-07
-1.13785e-05
-9.38178e-06
-1.87557e-05
2.41642e-06
-1.27418e-05
3.87244e-06
6.4529e-06
-2.24476e-05
6.59055e-06
1.82734e-05
2.15955e-05
1.45543e-05
3.57701e-06
-1.71142e-06
2.00685e-06
-4.56495e-06
1.47325e-05
-1.10601e-05
2.80906e-05
1.78286e-06
2.39399e-06
2.53215e-06
2.83912e-07
-5.21006e-06
-4.72158e-07
1.34281e-06
1.52334e-06
1.58897e-06
4.71028e-07
2.51685e-06
1.66384e-06
-3.89678e-06
1.65913e-06
2.20053e-06
-3.87977e-06
7.12787e-06
-1.74491e-06
-2.51612e-07
-5.70487e-07
-4.88484e-06
5.70694e-06
-3.22836e-06
3.40832e-06
-4.31575e-07
-1.04639e-06
-2.75245e-06
-4.46268e-06
3.49086e-07
3.0672e-06
-6.64721e-07
-6.55041e-06
-1.77362e-06
-5.90338e-06
2.79216e-06
-1.40583e-06
3.04053e-06
-4.49593e-06
3.43919e-06
-1.1064e-05
5.62975e-06
-5.41401e-07
7.78753e-06
-1.28759e-05
-7.27239e-06
4.37854e-06
8.5236e-06
1.85107e-05
-2.63245e-05
6.90801e-06
-9.6329e-06
7.10343e-06
-7.52607e-06
-1.10664e-05
2.2051e-05
-1.29118e-05
-2.88934e-06
3.84193e-06
-5.15317e-06
1.94214e-06
-1.70584e-06
-3.12564e-06
-4.88671e-06
1.06708e-05
-4.27596e-06
1.22426e-05
3.60999e-06
-1.10116e-05
-3.68843e-06
5.55582e-06
9.82837e-06
-9.58042e-06
-5.80377e-06
4.84318e-06
1.59252e-05
2.65073e-05
1.46103e-05
-3.57888e-05
-1.15257e-05
1.59191e-05
4.90266e-06
-3.23475e-05
-7.61733e-06
-8.58949e-06
3.21259e-05
6.89349e-06
-9.60816e-06
-1.63792e-05
1.42203e-05
9.05234e-06
7.00457e-06
-3.29919e-05
-3.16567e-05
3.72876e-05
9.92774e-06
-5.39339e-07
-1.1186e-05
1.79758e-06
1.80599e-06
-1.62162e-06
-8.76568e-06
1.00323e-05
1.71159e-05
1.48286e-06
-2.97847e-05
1.04101e-05
8.50339e-06
4.84408e-06
2.40682e-06
-5.76803e-06
2.10259e-06
1.31516e-05
-2.48196e-06
2.96293e-06
-8.84082e-06
-1.12669e-05
1.4335e-07
7.86705e-06
3.25649e-06
6.12577e-06
5.2786e-06