/*--------------------------------*- C++ -*----------------------------------*\
| =========                 |                                                 |
| \\      /  F ield         | OpenFOAM: The Open Source CFD Toolbox           |
|  \\    /   O peration     | Version:  v2012                                 |
|   \\  /    A nd           | Website:  www.openfoam.com                      |
|    \\/     M anipulation  |                                                 |
\*---------------------------------------------------------------------------*/
FoamFile
{
    version     2.0;
    format      ascii;
    class       surfaceScalarField;
    location    "0.45";
    object      alphaPhi0.water;
}
// * * * * * * * * * * * * * * * * * * * * * * * * * * * * * * * * * * * * * //

dimensions      [0 3 -1 0 0 0 0];
oriented        oriented;


internalField   nonuniform List<scalar> 
49400
(
-5.66171e-06
7.0811e-09
5.61615e-06
3.84692e-08
1.30567e-05
3.59795e-06
-2.23163e-05
1.28611e-05
2.02699e-07
-3.42077e-06
1.73123e-05
-8.27542e-06
2.02232e-05
-2.00461e-05
-2.07655e-05
5.09389e-05
-3.39562e-07
8.08098e-06
1.95871e-05
-4.99844e-05
-1.55965e-07
-6.1491e-07
-1.22893e-05
2.36495e-07
1.21433e-05
-9.04745e-08
2.62929e-05
1.15564e-05
-5.01386e-05
2.59145e-05
-1.31232e-05
1.50682e-06
2.37597e-05
-1.3263e-05
4.93591e-08
2.9464e-05
-3.11707e-05
5.68853e-05
-2.68262e-05
4.51308e-07
2.64189e-05
-4.40301e-08
9.20201e-06
1.5622e-05
-5.16502e-05
4.98783e-07
9.15454e-06
4.11778e-05
2.27378e-05
-4.82936e-05
1.73348e-05
5.02619e-05
7.68196e-06
-7.39787e-06
2.14688e-07
-3.71116e-06
2.05477e-05
6.23457e-06
9.10541e-06
1.98582e-05
8.8554e-06
4.64702e-07
-2.00524e-05
4.94555e-05
2.70516e-07
-3.53833e-09
1.09142e-08
-9.21996e-11
-7.09544e-09
2.10086e-08
-1.85701e-09
-2.24771e-08
4.90058e-09
-2.36641e-08
-7.12957e-09
1.70978e-08
-1.08591e-08
1.59129e-08
-2.51885e-08
-7.21318e-08
9.96533e-08
-6.91517e-08
-1.58041e-13
-4.00298e-13
-1.76588e-12
2.02439e-12
-2.74275e-14
-2.32992e-13
3.52036e-14
-2.57871e-13
-4.17201e-13
4.83808e-13
4.0691e-13
-1.54661e-12
3.5552e-12
-5.75429e-12
1.01202e-13
-2.03729e-14
1.08311e-12
-5.77208e-12
1.2318e-12
7.58032e-12
-3.01256e-12
1.20547e-11
-2.50653e-12
-1.53133e-11
4.40017e-12
1.23991e-11
-1.42682e-11
-9.79439e-13
2.28407e-11
-2.25809e-12
-1.50182e-11
1.06784e-11
-1.54457e-11
1.4107e-11
-3.71183e-09
-1.14807e-08
-2.62018e-09
1.5284e-08
-3.17111e-09
8.7489e-10
-2.94274e-09
-5.90195e-09
-1.38784e-08
-5.22154e-09
3.40456e-09
1.78153e-09
5.13403e-10
-1.00611e-08
-7.2765e-09
6.51728e-09
-1.54717e-08
5.21057e-09
4.9555e-09
9.07443e-09
-2.047e-08
-2.56761e-08
-1.10866e-08
3.98275e-08
-4.13365e-08
2.11653e-08
-5.21544e-08
6.46658e-08
-5.31729e-09
6.83981e-08
2.36992e-08
-2.50069e-08
4.87915e-08
1.32062e-07
2.36049e-09
6.54434e-09
-6.98919e-10
-4.49727e-09
6.72843e-09
-5.57453e-09
1.31194e-09
-4.11459e-09
2.17016e-08
-2.91023e-09
3.31683e-09
-1.46568e-09
3.10078e-09
-1.02639e-08
3.49523e-09
-3.59518e-09
4.97799e-09
-6.38999e-13
-5.96373e-13
2.95356e-13
8.22396e-13
-4.71737e-13
1.08181e-12
-3.15023e-13
6.85913e-14
-1.06212e-12
-1.07049e-12
2.42315e-13
2.80758e-12
-2.33045e-13
-6.07097e-13
1.97635e-13
-3.686e-13
8.19129e-13
-2.09494e-06
-1.04441e-05
-5.28814e-06
1.7821e-05
1.12023e-07
-2.18482e-06
-3.85457e-08
-1.29074e-05
2.55845e-06
2.78458e-06
2.73864e-06
-7.75237e-06
2.73837e-06
-9.10904e-14
-1.01561e-05
7.42697e-06
-2.03342e-05
3.26999e-15
-1.58728e-17
-1.01242e-17
7.40623e-16
-2.80254e-16
-4.34976e-16
4.854e-15
-1.18959e-16
7.72772e-18
2.61957e-17
1.25593e-17
-5.38481e-17
9.37656e-16
4.48914e-16
-8.66598e-17
8.14428e-16
-2.19154e-16
-8.16871e-11
3.95223e-10
1.29804e-09
-1.62556e-09
1.1209e-09
1.59881e-09
-3.1062e-09
5.33085e-10
9.48204e-10
5.5563e-10
-2.39496e-09
2.14688e-09
-8.60938e-10
2.50106e-09
5.75625e-10
-1.8172e-09
5.64358e-10
-3.74032e-09
4.88878e-08
1.72199e-08
-8.10716e-08
3.5502e-08
-5.57123e-08
-1.2351e-08
-3.81522e-08
1.09948e-07
-1.73861e-07
1.15858e-07
8.04837e-08
9.78144e-08
-4.34375e-07
6.57961e-08
-5.42635e-08
1.37525e-07
-9.62002e-08
-8.97469e-08
-3.45202e-07
7.03367e-07
-2.13522e-07
-8.9453e-08
3.67066e-07
-8.36728e-08
-4.01903e-08
-8.71522e-08
3.80698e-07
-2.85618e-07
1.4006e-07
-1.50808e-07
2.70179e-07
-1.75358e-07
3.57182e-08
2.59805e-06
1.40846e-07
-2.15544e-06
-5.83521e-07
-6.63771e-06
-1.76419e-06
1.09944e-05
-5.64195e-07
-5.96409e-06
-8.41262e-06
9.87211e-06
-2.00188e-06
7.57814e-06
-2.19082e-05
1.31023e-06
4.11237e-06
9.41419e-06
-9.14707e-07
4.44614e-06
1.16748e-05
-3.17238e-06
2.71179e-05
-1.94465e-08
-7.81827e-08
-4.90682e-08
1.37529e-07
-3.15734e-08
-8.6372e-08
8.24972e-08
-6.71312e-08
-6.39477e-08
-3.50355e-09
7.16581e-08
-1.4856e-07
7.37148e-08
-1.56767e-07
2.96108e-08
-4.50432e-08
4.7954e-08
-1.22699e-07
6.42783e-08
1.07565e-07
-6.89185e-08
9.35743e-08
-2.62827e-07
1.07225e-07
-6.88646e-08
3.12166e-07
8.41436e-08
1.28343e-09
2.25203e-09
1.84502e-09
-6.39899e-09
-5.72683e-12
1.10718e-09
1.16902e-10
1.48967e-09
2.84709e-10
-1.12499e-09
-7.68466e-10
2.9717e-09
-1.94351e-09
3.65517e-10
1.39331e-09
-2.32498e-09
1.59651e-09
2.30632e-09
-4.47695e-09
-4.60502e-09
9.71383e-09
-1.00407e-08
5.83992e-09
8.19723e-09
-1.81585e-09
-9.46047e-09
1.72957e-08
4.31635e-09
-2.50568e-08
2.08905e-09
2.67546e-08
-3.8984e-09
1.44149e-08
-1.43435e-09
-8.4918e-12
-1.58448e-12
3.3835e-12
6.69296e-12
5.19039e-12
-2.55763e-12
-1.11242e-11
-3.12148e-12
6.73015e-12
1.23807e-11
-1.46617e-12
-1.40356e-11
-8.08241e-13
1.99192e-11
6.06928e-12
-1.0093e-11
8.64457e-12
1.56711e-07
-2.54589e-07
-1.2345e-07
1.14597e-06
-3.5739e-07
-1.79125e-06
2.85199e-06
-1.13188e-07
-2.66236e-07
1.58473e-07
2.29615e-07
-3.66031e-07
2.01761e-06
-1.80395e-06
-2.34556e-07
2.28303e-06
-1.48141e-07
-2.51367e-07
9.54955e-08
2.26434e-07
-1.12967e-07
5.74195e-07
-1.50505e-07
-7.87564e-07
6.71897e-08
5.72793e-07
-4.84306e-07
2.77357e-08
6.60973e-07
-1.58835e-07
-4.62301e-07
4.8906e-07
-9.48686e-07
5.6679e-07
1.03963e-06
4.39808e-07
-1.02888e-06
-1.47915e-06
1.2412e-07
-2.70263e-06
3.5731e-06
-1.51315e-06
1.96755e-06
-3.00789e-07
1.48221e-06
-1.36396e-06
2.33653e-06
-1.21721e-06
8.801e-08
-2.28302e-08
7.87843e-09
-2.66781e-10
2.09203e-09
6.34843e-09
-8.20089e-09
4.52733e-09
6.83318e-09
-1.16209e-08
1.3916e-09
5.5724e-09
3.53428e-09
-7.95656e-09
5.77952e-09
-5.44826e-09
1.45113e-08
3.29592e-10
-1.50013e-09
1.20411e-09
-2.67784e-08
5.63818e-09
2.65462e-08
-1.09929e-08
4.33404e-08
7.58107e-08
-1.53883e-07
8.92205e-09
2.96878e-08
1.10371e-08
-8.03512e-08
7.1807e-08
-3.69421e-08
6.68044e-08
2.09796e-08
-3.50057e-08
6.95952e-09
1.08359e-09
-3.24191e-08
-7.95875e-08
1.19164e-07
-2.8342e-08
-4.8809e-08
8.65024e-08
-1.95692e-08
-3.10793e-08
2.48695e-09
2.27558e-08
-3.17287e-08
7.69652e-08
-1.00441e-07
2.51659e-08
-3.6955e-08
2.82044e-08
4.64902e-11
-9.15415e-12
6.93195e-11
-1.36731e-10
-7.13569e-11
8.02549e-11
3.95822e-11
2.66604e-10
-4.35801e-10
-1.69135e-11
-1.27479e-10
2.3341e-10
-7.93132e-11
1.02439e-10
6.94071e-12
-1.36417e-11
1.55375e-10
-1.11431e-05
-1.44423e-05
-9.04035e-06
3.51757e-05
5.12159e-08
-1.56263e-07
-9.88827e-06
-1.40351e-05
-2.13633e-07
-1.17036e-05
1.22776e-05
-5.1472e-08
8.65655e-06
-3.0037e-05
9.87191e-06
-1.50129e-05
1.33598e-05
9.16663e-11
1.38915e-11
-3.87023e-11
-8.93186e-11
-1.68017e-11
-1.25421e-10
2.11458e-10
-5.94209e-11
4.41222e-11
5.33719e-11
2.90149e-11
-1.26363e-10
4.33114e-10
-5.86058e-10
-3.53847e-11
3.01206e-10
-6.95119e-11
7.60268e-11
-2.21998e-09
6.5796e-10
1.74473e-09
-1.33696e-09
3.24566e-11
1.06924e-09
1.09042e-10
-3.36647e-09
6.70586e-10
-3.96549e-11
-6.22547e-10
-4.03699e-12
1.54167e-09
1.83859e-09
-1.06149e-09
1.93592e-09
3.16622e-08
1.44091e-08
-3.28218e-08
-4.33201e-08
-3.95999e-08
-9.27641e-09
5.40722e-08
3.2175e-08
-9.9016e-08
-1.4578e-07
3.07172e-08
1.01555e-07
3.52098e-08
-3.89634e-07
-5.42178e-08
4.97965e-08
-9.21667e-08
9.74517e-07
-1.76623e-07
-1.60537e-06
9.7342e-07
-2.03886e-06
1.31207e-06
1.64065e-06
-1.023e-07
-2.07436e-06
3.67554e-06
-1.16531e-06
-3.15926e-06
-2.18415e-08
6.4726e-06
-1.97618e-06
4.65814e-06
-1.06262e-06
3.25787e-07
-7.84186e-07
-1.78618e-06
1.39515e-06
-1.60609e-06
8.09385e-07
6.1637e-07
1.10382e-06
-3.8785e-06
8.92272e-06
-5.02154e-06
-4.43168e-06
-1.18813e-06
1.29308e-05
-2.93698e-06
4.76307e-06
-4.18083e-06
1.30867e-05
1.75002e-05
1.23336e-05
-4.5088e-05
1.13591e-06
-1.04046e-06
1.19147e-05
1.713e-05
9.51673e-07
1.32103e-05
-2.99378e-06
-1.64932e-05
4.98311e-05
-3.01198e-06
2.76773e-05
3.12353e-07
-7.01638e-07
-2.69779e-05
-3.05962e-05
-3.37436e-05
9.23926e-05
-2.52459e-05
-1.69863e-06
-3.34375e-05
-6.9766e-07
2.76334e-05
-8.78163e-05
-7.58087e-07
1.26858e-07
-1.18341e-08
-2.85183e-07
1.8915e-07
-1.34667e-07
-1.74513e-07
4.22943e-07
-1.44666e-07
-1.92316e-08
1.00802e-07
4.09999e-07
-7.15359e-07
1.75369e-07
-1.02067e-07
-1.10487e-07
8.30421e-08
-9.16878e-08
-4.35325e-07
-1.308e-07
-9.52695e-08
4.88672e-07
8.58987e-08
-1.88671e-07
-4.46205e-07
-2.70921e-07
6.02683e-08
2.00484e-07
3.01883e-08
-5.9074e-07
1.06261e-07
1.84677e-07
-5.44333e-07
1.81466e-07
8.20249e-08
3.69212e-08
2.19786e-07
-3.59046e-07
-2.17276e-08
4.00957e-08
5.44794e-08
5.36175e-08
-4.28657e-08
2.52758e-08
-3.14685e-07
2.84253e-07
-1.09902e-07
1.30523e-07
-7.87912e-08
1.17573e-08
-2.31067e-07
5.91669e-08
3.11221e-07
-1.11534e-07
-2.7003e-07
3.56512e-07
-3.94714e-07
9.07191e-08
-2.47988e-07
9.09019e-07
-3.48045e-07
6.54499e-07
-4.0842e-07
3.58903e-07
-9.83858e-07
4.40779e-07
-4.742e-07
8.19108e-07
-1.56445e-07
-2.9719e-07
-5.93982e-07
1.26159e-06
-1.99928e-07
-9.0914e-08
1.85313e-07
-7.3623e-08
-9.03257e-08
-5.19624e-08
3.55779e-07
-2.003e-07
7.58458e-08
-2.16229e-07
8.70814e-09
-2.39425e-08
-3.30216e-08
1.29242e-06
-8.78934e-09
-8.11932e-07
1.51999e-07
-2.18263e-07
-3.12293e-07
2.19231e-06
-2.246e-07
-5.36392e-09
1.30444e-06
4.44332e-07
-2.90202e-06
1.32507e-06
4.94538e-07
-3.49115e-07
1.18243e-06
-2.03398e-07
-7.07863e-07
-3.37905e-06
6.11957e-07
4.45383e-06
-2.3334e-06
8.71271e-07
-2.89002e-07
7.04735e-08
-5.66045e-06
-5.56437e-07
-2.15791e-07
1.62011e-06
-2.78282e-07
-5.22894e-07
5.33484e-07
-7.13469e-07
1.21967e-06
-3.79848e-10
-1.54587e-09
2.66992e-10
1.91385e-09
-2.37587e-09
2.54794e-09
-3.39415e-10
3.76633e-09
-7.40479e-09
2.71556e-08
-2.41578e-08
-6.74245e-10
-5.65955e-09
3.5166e-08
-1.70951e-08
1.47377e-08
-3.48209e-08
-3.62929e-11
-3.13029e-11
-4.81185e-11
1.13642e-10
8.50059e-12
-7.92034e-11
1.22915e-11
-3.03787e-11
3.82295e-12
7.09089e-11
4.23099e-11
-1.55827e-10
7.0253e-11
-4.11887e-13
1.64015e-11
-9.66399e-11
6.47671e-11
3.56624e-09
1.9731e-09
1.39445e-09
-7.38245e-09
6.58911e-09
9.98191e-09
-1.08741e-08
7.55757e-09
4.59991e-09
-3.67211e-09
-1.19069e-08
1.43647e-08
-2.631e-09
3.02371e-09
-1.98958e-09
1.80153e-09
-2.8515e-09
-3.78941e-09
-2.88828e-09
1.74304e-09
7.34001e-09
3.24234e-09
4.84021e-09
-1.355e-08
-6.94399e-10
1.03292e-09
2.22672e-09
-3.6685e-09
7.38478e-10
2.13493e-09
1.11483e-09
3.66383e-09
-2.49929e-09
7.53522e-09
4.94805e-06
-3.79501e-06
2.83069e-06
-6.77661e-06
-1.35188e-05
-7.02955e-07
1.90881e-05
-5.7076e-06
-1.15898e-05
-1.20146e-05
4.94291e-06
1.02987e-05
2.3941e-07
-1.88412e-05
-9.6627e-06
1.38993e-05
-1.51304e-05
2.15624e-06
7.81128e-06
-6.1054e-06
-4.26299e-06
4.41273e-06
2.0002e-06
-7.08931e-06
-2.2689e-06
1.38944e-05
-1.25162e-05
5.95429e-06
6.87576e-06
3.63158e-06
-2.32167e-05
-6.49112e-06
1.00062e-05
-8.96886e-06
2.11021e-06
2.39091e-06
2.55107e-06
-1.35527e-05
1.58902e-07
1.53111e-06
-1.41477e-06
1.06158e-06
3.63576e-07
-3.79964e-07
-6.2182e-07
1.70928e-06
-8.41196e-07
4.79404e-07
-6.19465e-07
1.24721e-06
-5.29517e-07
2.93855e-07
3.54355e-07
-8.03743e-07
-1.32909e-07
-2.88794e-07
-8.12074e-08
5.41508e-07
1.82422e-07
-2.62879e-07
-4.66049e-07
4.39637e-07
1.01727e-07
8.74468e-07
-1.80644e-06
-6.45864e-07
6.89039e-07
-3.00738e-06
1.70032e-08
1.01789e-07
-1.4747e-07
-1.32771e-08
1.04306e-07
-1.70411e-07
2.02466e-08
-8.99333e-08
2.2906e-07
2.00276e-07
1.18287e-07
3.5574e-07
-3.52739e-07
-2.08856e-08
1.19369e-07
-8.17332e-08
-9.49132e-09
-1.58508e-08
1.23242e-08
1.31635e-08
-1.49754e-08
-7.33234e-09
1.30802e-08
2.09884e-08
-5.16276e-08
1.96679e-08
-2.05462e-08
-9.88543e-09
1.78852e-09
3.11174e-08
-6.22254e-09
2.04462e-08
-6.06714e-09
-4.47416e-09
9.37478e-11
-4.23339e-10
2.19697e-09
2.80358e-09
1.82122e-09
-1.00366e-08
1.11313e-09
7.04487e-11
3.43175e-09
-4.95408e-09
-9.65697e-10
-1.73334e-09
3.54878e-09
3.78431e-09
-7.58764e-09
1.60221e-09
-3.1214e-09
4.39204e-09
5.35345e-09
-1.1861e-08
4.41191e-09
-2.72837e-09
-9.12445e-09
1.48623e-09
3.75976e-09
-1.75295e-08
7.69978e-10
1.34123e-08
-4.48384e-09
-2.47492e-08
4.93884e-09
-1.4727e-08
4.56645e-09
-4.85768e-09
4.16777e-09
5.54508e-09
-9.44204e-09
9.52552e-09
-1.41999e-08
-2.19602e-11
-3.01342e-09
1.10975e-08
-1.68779e-08
9.53955e-09
1.31151e-08
5.7066e-09
-3.16997e-08
1.15087e-08
-1.99007e-08
1.81842e-08
1.9332e-11
-2.60005e-12
-1.15067e-11
1.5354e-12
-8.49653e-11
-3.07982e-11
1.54242e-10
-1.07651e-10
3.0928e-11
1.28516e-11
3.45906e-11
-4.81483e-11
1.79014e-11
-4.91394e-14
-2.46782e-11
1.45396e-11
-8.45423e-11
1.13925e-05
-1.53745e-07
-1.11993e-05
-3.43105e-08
-1.12841e-05
-8.86154e-06
3.08127e-05
-1.1725e-05
-7.88974e-07
1.2951e-05
8.77601e-06
-3.29103e-05
1.31257e-05
-2.0688e-07
-7.63815e-06
1.18615e-05
-1.08429e-05
-1.59759e-09
-8.64431e-10
1.03365e-09
1.26865e-09
1.16541e-09
1.84602e-10
-4.04021e-09
2.87459e-09
-2.87764e-09
-1.20913e-08
6.55166e-10
1.38938e-08
7.89992e-10
-1.89448e-08
5.66644e-09
-5.88743e-09
7.01369e-09
-2.36942e-07
-1.97678e-07
-6.50945e-08
5.94212e-07
-2.23054e-08
-1.81819e-07
6.49031e-08
-7.61815e-08
-7.59298e-08
3.38013e-07
3.19842e-08
-6.03762e-07
1.16398e-07
3.5862e-07
1.43402e-07
-1.95872e-07
1.97097e-07
-5.76213e-06
-7.86228e-07
3.15334e-06
3.1518e-06
2.74597e-06
1.4036e-06
-1.01698e-05
-6.33384e-07
2.22896e-06
4.01378e-06
-3.88887e-06
-1.0121e-06
-1.43237e-06
5.85039e-06
3.0545e-06
-8.27701e-06
2.72053e-06
8.0767e-06
2.58156e-05
1.37681e-05
-4.72176e-05
8.51264e-07
-9.74033e-08
7.67132e-06
2.38995e-05
3.29094e-06
2.45663e-06
-2.54636e-06
1.07985e-08
-2.1471e-06
1.08585e-05
2.03802e-06
-6.05256e-06
2.31788e-06
-5.65356e-06
5.14435e-06
-2.90294e-05
3.32537e-05
-1.49847e-05
2.03916e-06
6.70159e-08
-4.62707e-06
2.5051e-05
7.59717e-08
5.05558e-06
-1.10582e-07
-6.32307e-06
3.88944e-07
-2.42729e-06
-1.50999e-06
8.4007e-06
-2.75929e-06
4.97545e-08
3.07515e-06
1.79722e-06
-1.21479e-05
2.97178e-06
2.61363e-07
-2.15023e-06
3.45624e-06
-3.16195e-06
-5.30741e-06
-1.4274e-07
5.22408e-06
1.14836e-07
4.05638e-06
-1.29114e-05
3.37631e-06
-3.75569e-06
4.46608e-06
-2.675e-07
-2.28299e-08
4.25493e-08
2.52707e-07
7.90823e-08
-2.61217e-08
-2.3207e-07
-3.71257e-08
9.51014e-08
1.27835e-07
-3.92776e-08
-8.90011e-08
3.70082e-10
2.41543e-07
1.27596e-07
-1.76232e-07
1.86087e-07
1.54476e-06
5.12576e-07
-3.84104e-06
-3.06485e-07
-7.00159e-07
-2.29314e-06
2.43449e-06
-7.40518e-06
2.18207e-06
2.2806e-06
3.36016e-06
-1.5963e-05
1.48254e-06
-6.14886e-07
-4.42885e-06
9.80095e-07
-8.39481e-06
-1.86447e-07
8.86921e-08
1.5986e-07
-5.77187e-08
4.40576e-07
-2.25151e-08
-3.61718e-07
7.6817e-08
4.33553e-07
-2.19326e-07
-2.30946e-08
4.06393e-07
-1.03187e-07
-1.73479e-07
1.30493e-07
-2.83298e-07
2.12115e-07
-4.91594e-07
8.21896e-09
1.34904e-07
3.38932e-09
3.45854e-07
5.19893e-08
-7.92277e-07
2.216e-07
1.46825e-07
-8.12721e-08
-4.37336e-08
2.38057e-07
-4.32189e-08
-4.23045e-08
1.15737e-07
-8.3753e-08
2.14808e-07
-1.8204e-12
-7.48684e-11
-5.78471e-11
3.24565e-10
4.11662e-11
4.61498e-10
-3.33733e-10
9.56048e-10
-7.29942e-10
2.74311e-10
-2.36951e-09
2.50452e-09
-9.6503e-10
1.30445e-09
-5.47413e-10
3.14576e-10
-1.56912e-09
-3.22916e-09
-1.19016e-09
1.9073e-09
1.88883e-09
1.52411e-09
1.33763e-09
-6.17903e-09
-4.62692e-10
3.34179e-09
2.58025e-09
-2.8169e-09
7.95582e-10
-8.50379e-10
9.34115e-09
5.8525e-10
-2.07005e-09
1.26911e-09
-5.41115e-09
-2.83406e-08
1.51601e-08
2.97094e-08
-3.09081e-08
2.52816e-08
7.76529e-10
5.68314e-08
-1.1659e-07
2.77231e-09
-6.27445e-08
9.59248e-08
-6.7647e-09
4.5623e-08
-1.77991e-10
3.32034e-08
1.24189e-08
-5.89908e-07
-2.17035e-06
-1.35859e-08
3.25459e-06
1.43063e-07
-2.4813e-07
-5.0662e-07
-2.00491e-07
1.49835e-06
5.14365e-07
5.92543e-08
-7.75055e-07
5.67836e-07
3.23814e-06
3.18676e-07
-5.11524e-07
8.68954e-07
-9.20049e-06
-1.29509e-05
-6.49332e-06
2.86858e-05
4.75746e-07
-9.61407e-06
-2.92556e-08
-1.32287e-05
8.65995e-07
2.41973e-05
2.32159e-05
-6.16443e-05
2.00691e-05
2.00014e-06
-4.06117e-06
1.73528e-05
9.57353e-06
-1.25188e-06
5.08921e-06
-7.69613e-06
2.66883e-06
4.18537e-06
-5.58032e-06
-9.67475e-07
-3.545e-06
1.33554e-05
6.44746e-06
5.88538e-06
-1.7336e-05
8.02903e-06
-3.37308e-06
8.39932e-06
-9.78392e-06
1.38611e-05
-1.11724e-12
-2.29403e-12
-1.00062e-12
2.72648e-12
1.58667e-13
-2.17677e-12
-1.21057e-12
-5.46973e-12
5.25068e-13
7.44629e-12
3.61695e-12
-2.52584e-11
2.60102e-12
1.96711e-12
2.62932e-12
-5.16582e-12
2.11201e-12
-3.31604e-12
-5.87856e-12
-2.1538e-12
6.48628e-12
2.65616e-13
-4.97333e-12
-3.46083e-12
-1.53174e-11
2.4463e-12
1.82493e-11
3.16436e-12
-5.40041e-11
4.66163e-12
7.90676e-12
8.13836e-12
-1.59839e-11
5.4253e-12
-5.14823e-09
-2.36772e-09
6.47481e-09
6.04149e-10
3.8801e-09
4.19023e-09
-1.37637e-08
8.34788e-09
-6.71685e-09
-3.59567e-09
-9.12663e-09
2.1307e-08
-5.37783e-09
2.21655e-09
-4.94318e-09
3.7399e-09
-5.54681e-09
1.31831e-06
1.68792e-06
7.70539e-07
-7.06901e-06
-1.66318e-08
1.89966e-09
4.97068e-07
6.60227e-07
-1.4485e-07
3.50918e-07
-3.79187e-07
-1.18818e-07
-1.35652e-07
6.16838e-07
5.51484e-07
-7.18928e-07
6.1218e-07
-3.46258e-06
-1.57993e-06
4.81705e-07
2.73947e-06
1.98502e-06
-1.77121e-06
-1.58611e-06
-4.01871e-06
2.21713e-06
8.46038e-06
-5.72096e-08
-9.04152e-06
2.10702e-06
9.31807e-06
5.50977e-06
-6.85023e-06
8.60731e-06
2.12163e-07
-1.9568e-06
-1.37146e-06
7.88094e-06
-2.63201e-06
-1.06282e-06
2.78499e-06
-6.85548e-07
-7.11154e-07
1.14415e-07
1.37102e-06
-2.76313e-06
1.69338e-06
-3.29338e-06
-3.04156e-07
8.32926e-07
-4.21217e-07
-6.62081e-09
6.60694e-06
-4.89226e-06
-1.50095e-06
9.98026e-07
-1.04981e-06
4.45476e-08
-6.35268e-07
5.14e-06
1.49977e-06
6.29544e-07
-3.17955e-06
1.24393e-06
2.96107e-07
-4.16284e-06
4.75461e-06
-6.88088e-06
-3.84253e-06
-1.31311e-06
-8.21047e-07
6.08627e-06
5.8627e-07
-1.91799e-06
-5.92096e-07
3.30756e-07
-1.19669e-06
-1.96872e-06
1.3854e-06
8.27216e-07
1.55282e-06
-4.81006e-06
1.22978e-06
-2.04647e-06
1.74561e-06
-4.79531e-07
4.18895e-07
8.44746e-07
-6.90238e-07
7.47046e-07
-7.24506e-07
-5.76555e-07
-1.56332e-07
1.25885e-06
-2.29597e-06
2.49584e-07
2.23229e-06
9.31484e-08
-2.79434e-06
5.2941e-07
-9.8293e-07
6.37008e-07
1.61245e-07
-7.46229e-07
-9.82556e-08
7.1685e-07
-1.10343e-06
2.87217e-07
1.01635e-06
2.36823e-09
-2.19148e-06
6.89486e-07
-4.29484e-07
-4.73996e-07
-1.7928e-07
1.49972e-06
-3.88226e-07
4.39022e-07
-1.14537e-06
-1.38822e-07
4.40947e-08
9.90722e-08
-7.95324e-08
9.52354e-08
-6.32091e-08
-1.36825e-07
-3.37809e-08
1.56374e-07
-6.70842e-08
3.68536e-08
8.44427e-08
-2.45374e-09
-1.58635e-07
2.33766e-08
-4.781e-08
3.50302e-08
-2.00742e-08
-9.35328e-09
1.08425e-08
1.83222e-08
4.31551e-09
1.07066e-08
-3.5326e-08
-1.37859e-08
8.37581e-09
4.32194e-08
-4.74922e-08
4.19145e-09
-9.25406e-09
6.44287e-08
2.93945e-08
-5.98747e-08
3.09898e-08
-1.29845e-07
-1.79315e-05
1.77867e-05
1.49921e-07
-1.43303e-05
1.4353e-05
-1.62939e-07
1.02562e-05
-4.25337e-05
-1.54824e-05
-1.0042e-05
3.99072e-05
-1.51839e-05
-3.83347e-07
-1.46267e-05
2.23553e-05
-1.96163e-05
-2.98424e-09
-2.54247e-09
-2.28007e-09
5.26223e-09
-2.07122e-10
-3.86627e-09
5.21318e-10
-4.35573e-09
1.28606e-10
4.61287e-09
3.59515e-09
-1.2555e-08
3.42082e-09
1.33065e-09
2.86505e-09
-3.13168e-09
2.72211e-09
-3.45965e-10
2.99783e-11
7.35987e-10
-5.13159e-10
1.2548e-09
1.15073e-10
-2.05929e-09
5.5705e-09
-1.0018e-09
-7.25151e-09
1.6652e-09
2.15207e-08
-9.78404e-10
-4.54478e-09
5.62778e-09
-4.77693e-09
1.0217e-08
-7.12578e-07
3.02885e-07
1.276e-06
-8.63488e-07
1.09243e-06
2.28016e-07
-2.14752e-06
2.27669e-07
1.17121e-06
5.624e-07
-4.56139e-07
3.39145e-08
-1.47725e-06
3.21455e-06
-8.09977e-09
-3.01059e-07
-2.07487e-07
-1.42914e-05
2.04806e-07
1.37254e-05
3.53075e-07
1.24486e-05
7.42115e-06
-3.41672e-05
1.23101e-05
3.47086e-07
-2.24769e-05
-1.81957e-05
5.43354e-05
-2.24764e-05
3.22411e-07
9.74756e-06
-2.48072e-05
3.85375e-06
4.67241e-07
1.92126e-05
-1.92929e-05
1.46595e-05
-1.52428e-05
9.48772e-07
3.77086e-05
2.18921e-05
-7.62337e-05
-1.88806e-05
1.40251e-05
6.49152e-07
-1.45257e-05
-8.82464e-08
-1.23918e-05
-4.83058e-06
3.12577e-05
-1.37378e-05
2.02487e-06
3.02284e-05
3.02549e-05
-7.68481e-05
2.79654e-05
6.33343e-07
-1.41265e-05
3.68229e-05
2.43556e-06
1.65992e-05
2.03611e-06
-1.65231e-05
-1.37131e-05
-1.87873e-05
1.86659e-05
2.56806e-06
-3.28433e-05
4.1702e-05
-1.87176e-05
-9.42804e-06
-1.20763e-05
4.29561e-05
-1.95209e-07
-1.98411e-05
5.32754e-06
2.8344e-05
-3.70863e-05
4.54854e-05
-3.69148e-12
6.08113e-13
1.22892e-12
-3.02461e-13
4.99539e-12
1.94921e-13
-1.51188e-11
8.02779e-13
2.26038e-12
-1.27592e-12
-2.68796e-13
1.33835e-12
-1.2431e-12
-2.52327e-12
1.67969e-12
-4.91593e-12
1.05449e-12
-1.03218e-13
7.68431e-13
-3.35097e-14
4.21176e-13
6.95138e-13
-4.57656e-14
-3.1822e-13
-1.20233e-13
2.45557e-12
8.5568e-14
2.53646e-14
-6.46306e-14
4.85638e-13
6.62593e-13
4.45996e-14
-4.08408e-14
8.41305e-13
-4.29191e-09
-1.17571e-10
5.95831e-09
-2.16779e-10
8.55311e-09
1.89627e-09
-1.33002e-08
7.3025e-09
-1.7157e-09
-8.95793e-09
-8.2415e-09
2.18009e-08
-1.2581e-08
1.66627e-09
8.02842e-09
-1.06912e-08
5.75446e-09
8.74462e-09
1.09698e-08
1.01463e-09
-2.18242e-08
8.73715e-10
-3.38629e-09
5.26204e-09
5.80358e-09
9.15274e-09
-6.68924e-09
-1.0248e-08
-5.38695e-09
1.68812e-08
-6.08915e-09
4.80121e-09
-1.23813e-08
-7.10366e-10
-2.28291e-10
-2.34292e-10
1.44537e-09
1.34065e-10
-2.01189e-10
-1.55956e-10
-6.03578e-11
2.06911e-11
2.43078e-10
8.28999e-11
-4.87571e-10
1.99379e-09
-1.86351e-09
7.58059e-11
-4.36355e-11
1.85346e-09
2.66042e-08
1.07032e-08
1.11471e-08
-5.58049e-08
-6.60713e-09
1.45206e-08
4.56401e-09
2.20301e-08
-1.75405e-08
-1.74151e-08
-2.24611e-08
4.42674e-08
-2.35465e-08
2.79598e-09
-9.34438e-09
8.36947e-09
-2.50287e-08
2.03021e-10
7.41259e-09
-1.23198e-09
-8.33823e-09
2.86849e-08
-1.94262e-08
-5.71506e-09
-7.33611e-09
5.90149e-08
-1.12009e-09
1.54097e-08
-2.11678e-08
1.38293e-08
-2.5849e-08
1.19504e-08
-1.57277e-08
1.47187e-08
-1.01741e-07
-5.10947e-08
-1.82112e-08
1.45056e-07
4.2215e-08
-5.0576e-08
-1.30924e-07
-1.12557e-07
6.03542e-08
1.27445e-07
-1.56335e-08
-2.97087e-07
2.75764e-08
1.16395e-07
7.6452e-08
-1.71058e-07
6.7071e-08
5.62689e-07
-3.75041e-06
-1.41962e-07
3.33296e-06
-6.18141e-06
2.33573e-06
1.22121e-06
2.75911e-06
-1.26886e-05
2.44459e-06
-2.28603e-06
-2.98777e-07
-9.61961e-07
5.95176e-06
-1.74013e-06
2.87873e-06
-2.12535e-06
1.48641e-06
-1.37116e-06
3.6285e-08
-1.48297e-06
8.13995e-06
2.1098e-06
-7.48287e-06
2.43455e-06
2.21053e-07
3.17165e-06
2.4898e-07
1.24346e-08
2.10778e-07
-4.38308e-07
-2.37352e-07
3.62127e-07
1.43647e-07
-8.42112e-07
7.14636e-07
3.27504e-06
-1.93619e-06
-8.75093e-07
-6.66608e-07
5.62274e-06
-1.04568e-06
9.61189e-07
-1.98302e-06
6.55337e-09
8.27059e-09
2.30387e-08
-3.91047e-08
-8.17856e-10
1.02585e-08
-2.90158e-09
8.69345e-09
-1.30844e-09
-9.27695e-09
-8.05342e-09
2.31103e-08
-2.13426e-08
3.87055e-09
-3.99489e-09
6.60284e-09
-6.10639e-10
-1.14873e-06
-8.66444e-07
-1.05077e-06
3.19717e-06
1.19122e-07
-1.38299e-06
2.55509e-07
-4.08309e-07
-1.17389e-07
5.16472e-07
2.05448e-07
-7.71023e-07
1.00153e-06
-3.93605e-07
6.57232e-07
-3.73543e-07
7.10597e-07
2.46719e-06
1.24674e-06
4.58425e-07
-4.40592e-06
-3.75576e-07
1.93267e-08
3.04946e-06
5.3546e-07
1.98795e-07
-7.51478e-06
-3.13497e-06
1.12483e-05
-6.9825e-06
-4.81359e-06
-2.82776e-06
-1.0741e-08
-8.13955e-06
6.21801e-07
-3.75521e-08
-6.7283e-07
1.27183e-07
-5.73452e-07
-4.80997e-07
1.71072e-06
-1.21257e-07
-6.8407e-07
-2.20609e-07
5.9918e-07
-6.32445e-07
5.3007e-07
-1.60761e-06
-3.06354e-08
2.4928e-08
-1.41883e-07
9.67101e-08
5.86844e-08
-9.23233e-08
-1.72165e-08
-9.09884e-08
-2.99505e-08
2.75802e-07
3.6979e-08
-1.98063e-08
4.28297e-08
1.3178e-07
-8.13435e-08
1.43307e-07
-2.7209e-07
-3.4e-08
1.3446e-07
-1.18126e-07
2.87791e-07
-1.29637e-09
-3.12339e-07
8.78155e-09
-2.69756e-07
-1.91433e-07
7.38104e-07
-3.59507e-07
7.81492e-08
2.02764e-07
2.61411e-07
-7.77616e-07
1.98705e-07
7.16412e-09
-9.40296e-08
9.91974e-08
-1.93306e-07
1.72266e-10
8.44296e-11
-3.09948e-11
-2.27526e-10
-7.79747e-11
1.76338e-11
2.30719e-10
6.77724e-11
-6.45476e-11
-1.87231e-10
2.56488e-11
2.2735e-10
-6.293e-11
-1.90915e-10
-1.11957e-10
1.53937e-10
-2.07207e-10
-4.85922e-09
-1.49173e-09
6.56062e-09
1.73548e-09
2.91681e-09
7.98408e-09
-1.67504e-08
1.0153e-08
-7.49785e-09
-4.55319e-09
-4.36566e-09
1.64761e-08
-5.07376e-09
3.2739e-09
4.51673e-09
-5.85755e-09
1.09772e-08
-1.34688e-05
1.14639e-07
1.30107e-05
3.36144e-07
1.25559e-05
8.14693e-06
-3.4175e-05
1.25181e-05
1.44052e-07
-1.90641e-05
-1.68597e-05
4.79159e-05
-2.07812e-05
2.23777e-07
8.75438e-06
-2.15466e-05
4.40524e-06
1.48937e-07
1.93113e-05
-1.93258e-05
1.33548e-05
-1.47025e-05
3.09901e-07
3.59383e-05
2.34974e-05
-7.70074e-05
-1.27839e-05
-1.24275e-07
2.86701e-06
1.99823e-06
-2.08799e-07
6.03642e-07
-2.63457e-07
-4.77136e-07
-2.40424e-08
5.42872e-06
-6.51763e-07
1.46718e-06
6.98336e-06
1.06914e-07
-9.71441e-07
3.32432e-07
-4.92617e-07
2.7822e-06
-1.37157e-07
-2.83146e-07
8.45807e-08
1.53972e-07
-9.232e-08
1.13373e-07
-2.76396e-07
2.93517e-07
-8.53167e-07
9.48603e-08
-2.71855e-07
1.28615e-07
-1.43736e-07
2.98509e-07
-1.23744e-07
4.08485e-08
-2.53812e-07
-2.55305e-08
-1.27277e-09
1.61271e-08
-2.95135e-10
1.63031e-08
1.12786e-08
-1.02132e-07
1.29687e-08
-5.37705e-09
-1.43705e-08
-1.27697e-08
3.38213e-08
-2.07213e-08
-1.55962e-10
1.19298e-08
-3.378e-08
6.17397e-09
-2.97394e-15
6.23413e-15
-1.46852e-14
1.90909e-15
1.90431e-14
-1.68952e-14
-2.17638e-14
-6.75715e-15
-1.84943e-14
1.25523e-14
-5.9658e-14
-1.72623e-14
5.65641e-15
-3.36037e-14
-1.73713e-15
-3.96469e-15
-1.04105e-15
6.20066e-15
-1.27432e-15
-3.34962e-15
2.87261e-15
-1.0633e-15
-4.70178e-15
3.76117e-15
-1.16645e-14
4.31046e-15
-8.55473e-15
1.05373e-14
-6.35851e-15
-2.49613e-14
-1.33377e-14
-3.26149e-14
-2.93187e-14
2.45715e-14
-4.23415e-14
-1.23164e-05
-1.00167e-05
-1.03065e-05
3.26725e-05
-2.95521e-07
-1.28404e-05
8.21351e-07
-9.81386e-06
-4.81749e-07
9.60766e-06
7.52213e-06
-2.6955e-05
1.02688e-05
-1.13792e-06
5.48458e-06
-1.08016e-05
5.455e-06
-1.77993e-09
3.21021e-10
3.17215e-09
-1.54272e-09
1.32147e-09
1.03531e-09
-4.2642e-09
2.01041e-10
1.21935e-09
1.17247e-09
-1.38515e-09
2.78487e-10
-1.33024e-09
3.59053e-09
1.08156e-09
-1.52161e-09
2.95648e-09
3.00169e-09
-1.38157e-08
-7.63636e-10
1.17428e-08
-2.17214e-08
8.51732e-09
1.67912e-08
4.66484e-10
-3.34178e-08
3.56625e-09
-1.47062e-09
-2.54496e-09
-6.13806e-10
1.78383e-08
-5.87524e-09
1.86962e-08
-6.08777e-09
1.19812e-11
1.68059e-11
9.40346e-12
-2.91057e-11
-2.74792e-10
4.44319e-10
2.31054e-10
8.38258e-10
-8.99412e-10
-2.25978e-10
-4.17871e-10
1.21828e-09
-1.27516e-11
1.46163e-10
-7.67619e-12
5.61042e-10
-8.04786e-12
-5.77902e-13
-2.9742e-12
-4.66091e-13
4.51582e-12
-5.05393e-13
-6.39797e-13
7.71641e-13
-3.57837e-13
-1.04102e-13
1.01614e-13
6.27864e-13
-8.82122e-13
4.63948e-13
-3.3872e-13
-2.96643e-14
9.79329e-14
4.01066e-14
-1.28168e-11
1.986e-10
3.31883e-10
-2.37581e-11
2.1001e-11
3.12614e-12
-3.03443e-11
9.50833e-11
2.6085e-10
-1.31239e-10
-1.24343e-10
1.20924e-09
-1.22744e-11
1.50419e-10
7.10321e-12
-8.1863e-12
2.81393e-10
-8.11302e-09
-4.52388e-09
5.00856e-09
5.50266e-09
3.2113e-09
8.90245e-10
-1.19507e-08
-8.14179e-09
3.33125e-09
8.78705e-09
-1.92053e-09
-2.09404e-08
1.52003e-09
7.06502e-09
4.79402e-09
-8.8789e-09
9.70433e-09
-4.00093e-07
2.05921e-07
8.05004e-07
-8.51089e-07
1.83891e-07
1.54409e-07
-7.70294e-07
9.29418e-08
2.84883e-07
2.2692e-07
-1.95147e-07
5.29614e-08
-2.94211e-07
8.41698e-07
1.36984e-07
-2.09959e-07
6.59401e-07
-2.04392e-06
-1.02135e-06
1.39545e-06
1.64932e-06
1.28234e-06
1.4332e-06
-5.39084e-06
-2.25081e-07
1.55639e-06
2.27705e-06
-1.95511e-06
9.12253e-08
-8.12415e-07
3.58608e-06
1.30381e-06
-1.98046e-06
1.8802e-06
8.09662e-07
1.07885e-06
4.75232e-07
-2.44134e-07
1.96265e-06
-3.34383e-07
-4.47169e-07
-3.55048e-07
4.6711e-06
-1.72245e-06
8.17517e-08
5.02201e-06
3.30152e-07
-1.60886e-06
2.10109e-07
2.65967e-07
-8.26345e-08
-7.45885e-06
-2.29655e-07
7.5884e-06
5.00302e-07
1.5567e-05
4.53492e-06
-2.79674e-05
1.85543e-05
-1.31308e-07
-2.9749e-05
-2.57423e-05
7.51504e-05
-2.49726e-05
-2.20661e-07
-4.11936e-06
-1.27552e-05
-2.40242e-05
7.74661e-06
-4.75473e-07
-7.85987e-06
5.1254e-07
-1.3595e-05
-4.9761e-06
2.62218e-05
-1.40388e-05
-3.3778e-07
5.55248e-06
-2.98951e-05
1.63798e-05
-2.8001e-05
2.84756e-05
2.94297e-05
-7.36041e-05
8.28521e-07
1.09579e-05
2.46726e-05
-6.46617e-05
-1.5375e-07
1.50644e-07
4.19879e-07
7.88995e-07
-5.06795e-07
-1.17435e-06
4.55282e-07
-7.05894e-07
3.7011e-07
-2.95791e-07
1.23383e-06
-4.96371e-09
7.53312e-07
-2.56214e-06
9.2683e-07
-3.31271e-06
-1.43325e-07
2.39406e-07
5.14894e-08
-1.15898e-05
-1.20658e-05
-7.22325e-06
3.13056e-05
1.87446e-07
-1.03374e-05
-3.47136e-07
-1.21009e-05
2.39838e-07
1.67037e-05
1.16796e-05
-4.0471e-05
1.64195e-05
5.35833e-07
8.41244e-06
-5.59633e-06
1.8022e-05
1.491e-05
1.78509e-05
1.13654e-05
-4.41098e-05
6.12384e-08
1.49085e-05
-3.24278e-08
1.80016e-05
-7.29457e-08
-6.4725e-06
-9.02928e-06
2.99935e-05
-6.51308e-06
-2.39309e-08
9.24017e-06
-4.48168e-06
1.822e-05
8.82964e-08
2.34388e-07
8.83916e-08
-4.11943e-07
3.94802e-09
-2.65915e-09
8.53313e-08
2.18086e-07
1.77499e-08
1.01111e-07
-9.92031e-08
-6.23493e-09
-5.88361e-08
2.44769e-07
-1.5045e-07
3.13087e-07
-1.66525e-07
-5.63561e-09
-1.22866e-08
2.20781e-09
1.11746e-08
-1.10405e-08
1.76005e-08
-1.4753e-08
1.38959e-08
-3.99897e-08
1.52907e-08
-1.02853e-08
-2.49205e-09
-1.11761e-08
3.46909e-08
-6.26803e-09
1.2194e-08
-5.69638e-09
-8.24356e-06
-1.81925e-05
-5.2793e-06
3.16801e-05
3.48046e-07
-8.42818e-06
-1.704e-07
-1.80386e-05
1.69614e-07
-5.45403e-06
-3.09603e-05
3.10678e-05
-2.91174e-05
1.52662e-05
2.15958e-05
-6.88811e-05
3.58357e-07
1.45566e-05
5.31682e-07
-3.07749e-05
8.50927e-07
2.49859e-08
-1.51811e-08
-4.85194e-08
3.68783e-08
-3.86305e-08
-5.41959e-08
1.16042e-07
-2.86112e-08