/*--------------------------------*- C++ -*----------------------------------*\
| =========                 |                                                 |
| \\      /  F ield         | OpenFOAM: The Open Source CFD Toolbox           |
|  \\    /   O peration     | Version:  v2012                                 |
|   \\  /    A nd           | Website:  www.openfoam.com                      |
|    \\/     M anipulation  |                                                 |
\*---------------------------------------------------------------------------*/
FoamFile
{
    version     2.0;
    format      ascii;
    class       volScalarField;
    location    "0.45";
    object      p;
}
// * * * * * * * * * * * * * * * * * * * * * * * * * * * * * * * * * * * * * //

dimensions      [1 -1 -2 0 0 0 0];


internalField   nonuniform List<scalar> 
24700
(
-389.999
-430.175
-342.718
-404.941
-422.989
-304.76
-354.869
-414.03
-441.95
-451.631
-417.269
-443.749
-435.217
-372.806
-399.778
-423.801
-407.355
-214.646
-245.509
-252.614
-198.251
-180.722
-243.655
-232.161
-164.683
-206.585
-197.029
-204.015
-191.976
-4.43391
-4.95078
-5.1287
-3.66155
-4.79451
-3.79001
-4.29831
-0.566221
-0.704407
-0.749343
-0.946232
-0.769335
-0.823863
-0.672317
10.8078
10.7756
10.8741
10.7541
10.8118
10.7871
10.803
-1.63654
-1.70075
-2.0478
-1.22942
-1.56917
-1.48083
-1.72526
0.414827
0.736369
0.0150113
-2.17614
14.4173
-0.859541
-0.199294
-2.269
-2.31177
-2.27522
-2.35101
-2.39117
-2.31658
-2.28476
-2.81786
-2.82999
-2.81851
-2.8447
-2.84966
-2.82972
-2.85372
-49.3646
-23.763
-45.3006
-33.0199
-9.50683
9.00859
-52.8147
-2.89056
-2.83909
-2.88179
-2.86914
-2.88391
-2.85229
-2.86903
-2.55949
-2.55762
-2.50506
-2.55726
-2.68472
-2.58064
-2.68842
-4.34486
-4.04285
-3.80811
-5.90394
-3.9296
-3.86758
-5.00203
-26.2382
-22.0747
-13.9172
-11.4317
-9.98776
-13.371
-13.696
-25.8971
-86.5549
-16.6281
-12.576
-15.9082
-17.9658
-35.4928
-47.0414
-53.0985
-136.125
-16.7407
-13.3744
-13.4107
-11.2721
-12.7424
-12.4174
-16.0237
-13.7418
-12.0718
-14.0011
-20.4551
-17.3297
-3.34742
-3.42849
-3.44938
-3.46892
-3.42308
-3.37902
-3.43169
-2.44314
-2.41327
-2.44552
-2.45734
-2.69325
-2.46916
-2.40908
10.8702
10.775
10.8143
10.8088
10.7593
10.7875
10.7981
8.65705
-5.89391
7.13767
12.9364
7.40476
11.9629
7.99879
-73.9847
-69.317
-66.3395
-72.3318
-76.1276
-75.009
-69.169
-141.191
-126.278
-156.477
-151.842
-129.535
-145.332
-155.311
-175.585
-174.573
-174.902
-174.263
-175.486
-174.369
-175.892
-170.877
-168.589
-168.531
-166.707
-167.786
-167.99
-169.8
9.48081
9.38906
8.86664
8.4294
8.69192
8.52643
8.87817
10.0379
9.93314
9.89758
9.72419
9.98802
10.017
9.77509
-4.24686
14.3769
13.383
15.3034
29.9663
20.5809
5.666
10.5013
10.3662
10.5748
10.5222
10.5192
10.4377
10.5187
11.8069
11.807
11.7483
11.8181
11.8471
11.81
11.8306
12.5312
12.4484
12.3509
11.6987
12.141
12.1555
12.2631
-69.9438
-89.9633
-70.8944
-75.1674
-64.0509
-73.5119
-75.0778
-163.285
-165.303
-159.196
-160.253
-142.135
-144.156
-158.148
-194.291
263.315
-133.757
-204.262
-304.756
-267.609
-96.2668
-270.839
-86.9467
-349.747
-98.3949
-120.231
-132.194
-143.462
-140.578
-141.993
-144.983
-144.424
-136.858
-155.222
-155.936
-151.575
-147.103
-146.69
-149.458
-149.269
-164.097
-167.2
-166.764
-165.704
-166.649
-167.364
-165.818
-142.063
-137.58
-142.622
-142.25
-142.934
-136.065
-144.912
-127.838
-130.272
-126.576
-125.123
-127.618
-129.097
-126.88
-118.543
-121.027
-123.995
-125.154
-119.504
-117.033
-123.884
14.2093
23.8216
4.68907
1.26263
5.06519
-1.62793
-0.664717
8.51725
8.52981
8.70908
8.64396
8.31653
8.59242
8.76149
-1.15817
-1.18098
-1.18945
-1.20677
-1.21487
-1.19252
-1.18964
-2.40682
-2.27548
-2.42038
-2.40914
-2.32382
-2.26603
-2.3736
-2.11935
-2.04373
-2.09631
-2.19548
-2.00831
-2.08174
-2.0364
31.2213
36.5396
17.5635
24.8982
12.7075
34.3848
21.0905
75.246
101.045
84.0802
38.0317
102.613
71.6278
78.2333
10.2915
10.1228
11.4927
9.58212
7.42588
13.1762
4.76623
11.077
0.812521
16.225
1.94215
0.77077
-2.26495
-2.63858
-5.52293
-3.93124
-5.91274
-2.94028
-1.70347
-5.2838
-2.46478
-3.44517
-3.39944
-3.08573
-3.51692
-3.60498
-3.91145
-3.53428
-3.40722
-3.38114
-3.40695
-3.43369
-3.50081
-3.36779
-3.46755
-2.6154
-2.79027
-2.71199
-2.71087
-2.74325
-2.70781
-2.76923
-2.48535
-2.69383
-2.34894
-2.66682
-2.67031
-2.7481
-2.65254
-2.42537
-2.37004
-2.36701
-2.48165
-2.50472
-2.46706
-2.43346
12.9474
-8.09635
13.2478
2.88409
13.8422
5.71613
14.2302
11.8197
11.8202
11.7824
11.7326
11.7599
11.733
11.8441
12.1566
12.9761
11.2533
12.8169
12.1394
11.811
11.6347
-123.578
-96.4351
-92.9389
-105.873
-89.0748
-130.333
-117.186
-70.8763
-100.952
-116.176
-107.7
-88.7028
-85.8878
-86.8529
-97.6588
-76.4396
-88.7577
-78.9465
-77.1853
-97.7563
-91.04
-95.4922
-118.702
-131.193
-104.535
-113.163
-137.762
-123.902
-101.984
-85.8945
-98.1322
-152.277
-155.082
-157.276
-161.263
-163.663
-157.632
-157.385
17.7057
-0.00437215
-35.7339
21.7599
34.2672
16.0236
5.86261
15.789
12.9999
12.637
12.422
12.1987
10.3637
10.1396
15.1199
12.8164
13.7131
12.0578
12.9186
13.2499
13.1818
-1.3718
-1.3435
-1.39655
-1.44972
-1.31634
-1.33955
-1.39103
-2.5952
-2.70784
-2.60867
-2.68515
-2.52858
-2.67806
-2.54855
-2.42574
-2.8635
-2.80349
-3.0029
-2.43158
-2.11882
-2.48722
-17.7185
-30.137
-10.6132
-21.922
-22.317
-25.6047
-22.0204
213.191
102.408
212.891
362.801
149.586
102.558
83.6314
24.7999
62.3076
64.0649
61.2885
51.5096
60.4244
74.9746
-2.90375
-2.89981
-2.89509
-2.8825
-2.895
-2.89018
-2.90063
-2.88494
-2.87812
-2.8794
-2.87787
-2.88605
-2.87566
-2.8859
9.41816
9.54599
9.48565
9.11633
9.3958
9.47273
9.32834
20.7407
15.7944
18.0595
17.5524
13.0199
15.7263
14.8848
28.468
21.6875
17.2374
35.4354
6.88677
5.05462
18.883
46.9339
50.1904
79.2306
53.777
58.7094
53.9239
64.0858
-88.9797
-75.3549
-83.1217
-87.591
-75.0062
-70.5451
-83.1719
-130.594
-135.998
-143.204
-171.291
-158.723
-151.011
-145.49
-106.69
-119.913
-132.352
-128.842
-127.629
-127.159
-143.066
-130.71
-124.567
-137.76
-138.202
-144.324
-134.176
-133.607
38.1133
37.1959
35.8114
34.2725
35.3846
35.8125
34.8169
10.9806
11.8286
12.4768
12.6373
13.7456
12.4535
13.0784
20.2852
13.682
-7.05226
-2.86261
12.7665
-1.73688
3.50395
-0.704583
-0.809014
-0.78108
-0.83764
-0.776979
-0.803576
-0.752843
-2.61319
-2.56005
-2.57972
-2.67238
-2.65434
-2.62193
-2.6652
-0.82912
-7.38628
4.18573
-5.39076
-8.11249
-4.03835
-3.40109
80.0964
164.682
61.936
32.0699
9.53379
57.7663
20.5033
79.1381
37.9003
14.6773
47.213
93.1348
-138.052
40.5484
13.6358
58.1657
-61.861
110.012
144.055
167.321
329.406
78.1604
185.68
239.69
222.797
20.0328
28.8207
214.341
327.747
-2.89624
-2.89634
-2.89951
-2.89863
-2.89466
-2.8961
-2.89979
-2.84735
-2.85009
-2.84722
-2.82369
-2.84097
-2.83116
-2.85025
6.98436
7.09247
6.79673
6.32681
6.91588
6.8541
6.40527
6.66285
6.48056
6.75425
6.50334
5.98502
6.26315
6.63449
7.09967
7.20462
6.91593
7.18214
7.55005
6.90174
7.28939
9.63879
9.50863
9.90684
9.46291
9.16527
9.66408
9.48261
11.8409
11.9085
11.5169
11.3036
11.6611
12.3117
11.6483
15.4881
18.1469
18.3716
17.1497
13.8202
16.5509
15.0075
61.3599
35.534
59.2817
50.9582
81.0001
55.0172
64.6234
60.8672
90.4419
75.9541
62.9754
66.7883
-167.122
-168.623
-160.151
-169.218
-164.32
-170.605
-164.417
-173.788
-174.222
-173.405
-172.801
-172.282
-173.885
-173.084
-141.891
-132.066
-126.263
-136.735
-126.797
-132.919
-132.482
163.591
73.3731
-64.3581
138.69
139.03
64.3575
38.7059
31.7411
28.0467
43.4151
47.6489
37.2386
31.4685
36.8773
46.2758
29.2827
33.4416
27.6409
24.1634
24.9562
35.8754
2.43966
2.95227
1.78361
1.27253
0.553092
2.55804
2.31972
-0.988836
-1.0608
-0.999031
-1.00252
-1.08097
-1.08413
-1.08243
-2.14702
-2.11873
-2.14567
-2.26262
-2.11269
-2.13536
-2.22877
15.2823
116.815
3.17165
22.06
2.82763
22.1539
5.86801
36.9732
16.3061
9.79677
42.9164
43.575
-9.06468
-28.4032
-16.3575
-29.5245
-17.5515
-21.7597
-17.0901
-0.525374
-2.04938
-0.34023
-1.21053
-1.08049
-2.20058
-0.309743
-1.92163
-2.14156
-1.94079
-2.13401
-2.20433
-2.08875
-2.07587
-2.927
-2.93524
-2.94087
-2.92425
-2.93327
-2.93531
-2.94108
-2.93598
-2.93109
-2.93553
-2.9378
-2.93346
-2.92904
-2.9418
-2.93832
-2.93916
-3.01945
8.33271
7.16711
-0.391338
9.05486
3.99913
4.6422
4.02779
3.26944
2.91599
2.09545
2.18542
2.67994
3.38637
3.3373
3.99735
3.88204
3.58629
2.7028
3.36752
3.94475
5.8025
5.80213
6.01576
5.71425
5.74635
5.97249
5.72542
6.253
6.44083
6.22536
6.13674
6.1634
6.36098
6.18499
9.05439
8.93432
8.97832
9.26351
9.03393
8.96051
9.14966
11.7252
11.6059
11.706
11.6542
11.5431
11.6753
11.5291
22.7469
23.6406
21.0888
17.8829
17.423
19.6473
20.6613
132.809
139.679
149.821
129.814
145.822
122.413
143.828
168.072
160.485
246.042
133.85
124.011
136.522
248.193
366.534
211.23
180.906
500.44
356.169
466.164
339.119
296.674
271.061
148.882
374.74
256.241
427.401
164.368
609.898
505.827
441.805
66.7827
69.5127
66.3872
53.5244
62.8465
52.6576
57.1121
73.8766
53.9703
55.697
34.792
41.6049
49.7567
52.0408
-7.01064
25.3411
28.435
0.424744
1.19115
-5.31404
2.40316
4.77861
4.70895
4.88256
4.64171
4.61407
2.82304
4.0127
-3.23129
-3.19254
-3.16415
-3.17372
-3.62594
-3.49824
-3.19317
32.482
83.4488
103.338
53.9174
129.882
51.4054
72.0632
51.4532
-48.6717
5.97514
-1.95448
-2.00592
-2.15867
-2.64138
-1.93638
-2.35545
-1.95941
-2.95569
-2.94141
-2.94094
-2.95456
-2.97525
-2.94867
-2.97104
-2.94883
-2.95648
-2.95689
-2.9153
-2.95742
-2.98087
-2.9839
-2.94769
-2.92182
-2.98301
-2.92904
-6.78766
-8.89754
-5.49807
-3.87443
-4.25442
-4.82586
-5.27908
-2.57063
-2.99147
-3.99517
-6.15733
-3.73563
-1.47747
-1.93075
-2.63426
-3.5422
-4.09097
-2.90962
-3.02235
5.33932
5.1217
5.13157
4.96426
5.1024
4.99847
5.25308
8.87067
8.52251
8.78257
8.6818
8.83922
8.54574
8.87547
65.5157
64.6914
63.4782
61.2793
60.2512
61.2573
63.6084
-44.3088
-60.2939
-63.083
-34.7908
-36.9628
-47.1944
-43.0943
-139.095
-64.207
-101.414
-129.463
-144.55
-122.738
-140.923
13.7659
11.2934
26.8104
-5.62125
6.88959
-10.3011
10.7713
34.3281
35.7034
35.3746
35.9007
33.4773
35.3283
34.2885
453.831
391.076
584.647
100.426
237.383
60.2563
93.5929
-2.69096
95.4281
136.085
50.0938
128.23
25.025
278.64
177.162
4.01204
3.91956
4.00719
3.83569
4.02728
3.69932
4.16924
0.0842009
0.0323059
-0.00452492
0.26833
-0.0563484
-0.0699195
0.207507
0.599835
0.65778
0.601945
0.583866
0.740656
0.383649
0.624423
-4.46212
-4.7392
-4.87351
-5.24386
-4.85195
-4.81778
-4.63907
-4.14676
-4.43359
-4.19681
-4.21142
-3.9488
-4.40925
-4.06296
-6.15062
-6.25176
-5.84588
-6.47119
-5.34738
-6.45192
-5.77789
-29.4406
-29.5277
-26.5836
-34.6147
-34.4535
-31.3795
-35.0021
-15.7398
-32.8007
-23.3182
-19.8166
-25.3182
-20.2234
-22.8619
-26.9112
-20.9835
-62.9016
-31.2642
-32.9972
-30.7095
-31.7669
-35.3165
-28.1515
-32.3119
-34.0398
-37.477
-31.9594
-39.3043
-1.99835
-3.83726
-2.36011
-2.30784
-1.74055
-2.47891
-2.67905
-2.61496
-2.69638
-2.60156
-2.54249
-2.60465
-2.60575
-2.67206
-3.00294
-2.98438
-2.97481
-3.10471
-3.00808
-2.98057
-3.02618
-2.80556
-2.86182
-2.28857
-3.01753
-2.98033
-2.9207
-2.76638
-3.41039
-3.33191
-3.49447
-3.64838
-2.9428
-3.45721
-3.12961
-3.12344
-3.27177
-3.7849
-7.09336
-7.55136
-6.92452
-8.39286
-8.06213
-7.58232
-7.73125
3.89426
4.06582
4.27415
3.66577
3.64192
3.82916
3.99955
59.1663
64.6117
68.6361
69.6692
69.8204
68.7649
68.7618
74.3587
56.4781
60.1143
62.1198
78.2741
51.4599
94.1527
38.2924
20.2421
19.0944
-0.601271
23.203
17.9136
25.4478
1.02604
1.11101
1.37542
0.50066
0.730318
0.620137
0.683323
0.660917
0.905336
0.822441
0.577493
0.582485
-0.392833
0.970267
-1.08024
-1.4344
-1.56688
-1.50223
-1.72086
-1.50677
-1.58803
-46.708
-44.6308
-41.064
-45.2361
-45.737
-44.7702
-45.2069
-42.168
-28.0485
-12.9135
-30.394
-39.5848
-36.9714
-39.3769
4.81821
4.93288
4.93964
5.13597
4.59536
5.11694
4.70335
1.82756
2.03929
2.32926
2.55839
2.98902
2.18856
2.58325
-3.83346
-3.57422
-3.40037
-4.17468
-4.37422
-3.89508
-4.33957
-8.27983
-7.09458
-7.25371
-8.79584
-8.81972
-8.36562
-8.2236
4.35222
4.67244
3.7645
4.98653
4.55572
4.35828
4.70815
9.65988
4.65835
5.43076
6.80952
2.84568
4.09957
5.45903
23.225
24.9148
27.6216
15.5144
16.2905
20.0851
21.1539
15.4692
13.7859
14.2302
16.7276
14.1374
14.5321
15.4538
10.9254
11.2401
11.8565
12.8721
13.2602
13.9787
13.3635
13.5251
1.01404
8.46819
11.1161
19.2275
12.6492
9.11896
4.68431
7.00381
7.97524
8.13261
7.69287
7.34583
3.91487
7.35963
6.97151
7.68911
8.01783
7.5627
7.42946
7.43684
8.11739
8.18844
9.02164
7.94054
7.53429
8.16889
7.76829
59.6391
58.41
57.969
59.9676
64.3178
59.2991
61.6923
1911.17
1591.66
1518.6
2135.39
1061.49
2006.32
1158.06
1337.22
2163.5
2182.17
2258.33
1793.69
740.23
816.167
1201.8
506.107
1765.07
2143.2
2.07109
2.18108
2.5278
2.14045
1.93789
2.63026
2.1187
-4.89754
0.207165
-14.5827
-4.43838
-18.9588
1.26128
-9.38033
-15.7506
-13.8207
-18.1504
-21.1779
-22.0895
-20.6443
-21.4081
-7.70512
-5.82813
-4.16157
-6.97079
-10.1384
-8.33758
-4.74418
-19.5816
-17.4381
1.97859
-12.9129
-11.5558
-17.6569
-13.5413
-37.5553
-108.431
-7.56705
-76.6331
-96.8039
120.837
56.7921
-118.01
34.8305
-97.5586
-2.39906
-2.36196
-2.34045
-2.45312
-2.39643
-2.31692
-2.46822
2.48316
13.8568
-2.98864
-0.659811
-7.37327
5.7546
8.83481
10.2376
9.04719
9.62867
6.18687
7.5209
7.96028
8.9548
6.6214
6.5498
6.11332
6.54997
6.91674
6.99148
6.66035
1.8408
2.26926
1.89312
0.820866
1.79357
1.74843
1.95468
-1.81003
-1.44708
-2.44675
-3.91296
-3.45801
-2.91037
-2.89701
-4.33003
-4.70572
-4.15812
-3.52039
-3.69656
-3.27413
-4.79011
-4.64092
-3.23075
-4.53623
-3.77648
-3.62712
-3.32206
-3.51498
-3.47783
-4.02374
-3.22013
-2.98085
-3.52881
-3.32819
-3.65907
-3.43487
-3.54115
-3.3139
-3.02581
-2.82726
-3.27255
-3.35715
-2.96906
-0.86248
-0.662965
-0.599632
-0.37493
-0.560336
-0.52625
-0.739227
-0.0420311
0.222138
-0.0511261
-0.211136
-0.162271
0.0398293
-0.168224
-0.447069
1.72234
7.20377
2.62989
6.19214
5.25143
1.7982
-3.01438
5.62252
13.1274
9.33973
6.55746
7.58003
7.81914
7.90918
8.14682
8.08893
8.00124
7.82065
15.9909
17.9211
19.9052
16.7464
20.2251
19.3852
17.5344
12.746
12.317
12.4936
13.4748
12.5463
12.6978
12.3282
40.2899
35.1502
48.6081
31.5453
29.2729
28.1071
41.8977
31.1096
56.6958
-116.428
53.0126
-52.8203
-20.4121
-15.6041
-14.5964
-15.1508
-13.2783
-15.322
-13.8204
-15.9333
-5.15988
-16.1462
-8.24339
-11.8936
-10.5101
-7.23724
-10.7815
18.4049
53.5272
84.5096
41.5675
105.769
60.9889
99.6189
-24.9016
-4.63187
20.0158
6.55865
-3.39156
-0.122223
-0.820396
-5.832
17.1847
0.0179561
-1.34905
-1.31142
-1.34157
-1.25625
-1.45287
-1.31259
-1.35922
-0.970071
-0.989392
-0.918309
-1.14859
-1.07882
-1.07363
-1.14213
6.51987
9.47094
11.2833
-3.70234
6.9897
8.40729
-2.75685
8.79223
8.87386
8.99251
8.4274
8.71761
8.90995
8.79045
6.87536
6.29893
6.96176
7.09345
7.08325
6.86502
7.14062
7.48283
7.68686
7.95605
7.37527
7.05808
7.37451
7.27394
3.68064
2.28184
3.54917
3.93959
3.7811
3.35509
3.71405
3.864
3.74029
3.15467
2.23243
3.0271
2.88328
3.44032
-5.15094
-5.03493
-4.39044
-5.44495
-5.53543
-5.50485
-4.72907
-0.758748
-0.685633
-0.575094
-0.803061
-0.959044
-0.81726
-0.687174
0.061818
0.0082392
0.128976
-0.0117463
0.101869
-0.00171305
0.00373413
-13.0106
2.42908
15.0092
-1.73697
25.7703
1.84721
-6.4964
9.60764
-0.952653
-4.58534
-14.5556
0.144924
6.40279
5.42294
3.05368
10.9664
-1.61441
4.36931
5.13313
5.34871
3.90286
-1.28335
8.17468
-0.466581
6.10846
6.10302
6.05705
6.06905
6.23431
6.2426
6.05437
8.97331
9.55999
8.18215
9.00223
9.39569
9.25505
8.24923
11.3996
11.7628
10.8757
11.3506
11.4685
11.2779
11.3064
11.247
11.3848
11.2988
11.3501
11.2989
11.2612
11.3581
11.5921
11.6275
11.5939
11.5707
11.5682
11.5866
11.5806
12.1483
12.2621
12.1331
12.0493
12.0117
12.1371
12.077
12.3042
13.0187
9.14134
13.9506
20.6448
13.6478
14.0219
17.6459
0.843839
22.9031
1.05878
1.59207
10.6106
14.5072
19.2436
34.4331
41.467
80.1167
17.5226
11.3548
46.1121
121.768
174.838
119.222
83.0643
58.9186
54.0028
-81.6379
42.9118
86.6308
1.19013
55.1478
73.6814
-92.4875
36.9998
47.3502
19.0716
29.8495
120.789
131.087
131.532
113.879
126.24
136.201
118.822
119.911
124.846
-16.0266
-50.1703
18.8769
-31.286
31.2837
-39.3641
-25.7305
6.85864
-23.0563
-18.552
-14.4411
-12.1978
-7.34694
-6.59517
-29.8291
-31.1078
-29.1074
-33.3132
-35.1323
-31.0652
-33.1201
18.1396
13.6656
11.7212
3.56811
7.26659
1.96952
8.58246
-11.9539
-12.8558
-12.6972
-13.1378
-11.3895
-12.7711
-11.6685
-1.2613
-0.911759
-0.897007
-0.706463
-0.968179
-0.814094
-1.10981
-1.20713
-1.16934
-1.10501
-1.08977
-1.11762
-1.13372
-1.16855
-0.831345
-0.852404
-0.823614
-0.853938
-0.763109
-0.857409
-0.805146
10.4719
9.88408
11.4638
10.4108
11.5206
9.34849
11.1526
9.45865
9.01687
9.37925
9.62858
9.60321
9.46224
9.60857
1.10153
0.456361
0.799116
1.34952
2.23498
1.62699
1.3431
-1.83732
-2.00138
-2.00215
-2.1536
-1.99812
-2.07257
-1.91522
2.98392
1.62517
2.98209
-2.72377
8.73214
11.56
11.591
11.6324
11.6765
11.6986
11.617
11.6269
11.7667
11.8178
11.8154
11.8457
11.8413
11.8191
11.8341
1.07897
1.08285
1.81493
0.272667
0.76294
1.54028
0.730464
1.32928
0.230097
1.55055
0.792068
0.55781
0.481933
1.21941
87.9217
72.5461
-32.8431
79.9634
146.418
53.3313
-10.5786
-62.3533
-8.00118
49.4404
-158.327
-54.0293
-172.853
-82.8396
-88.4988
42.5163
-113.721
68.9254
96.9899
18.2339
97.0365
46.9141
-17.2654
17.2664
34.6759
49.0413
11.4926
45.312
90.3051
42.9596
-19.5215
-37.4381
-3.80094
51.0271
17.7147
11.8982
73.6186
24.1026
-10.6372
-34.2264
14.3514
82.7945
66.1465
110.101
15.3975
27.09
1464.03
1870.12
999.728
1279.95
603.246
957.918
1059.82
950.092
1668.88
1246.08
2078.16
1252.26
583.23
403.509
1080.71
677.303
565.996
418.004
1068.62
1423.03
838.547
938.601
664.101
662.808
53.3769
34.1225
45.5516
41.3999
57.5161
36.4193
63.8229
-7.00321
-18.2237
-8.04395
3.77059
1.47645
11.7411
-3.47375
-8.11477
-9.26259
-8.04063
-8.99515
-8.26316
-9.50499
-8.82792
-4.6115
-5.47915
-5.66472
-7.68795
-5.4099
-6.77577
-5.02084
-18.333
-18.7827
-17.4491
-15.0639
-11.7882
-16.3877
-18.5462
-0.916379
-0.809287
-0.744026
-0.515282
-0.644557
-0.600217
-0.756031
-0.792848
-0.740195
-0.769562
-0.835007
-0.827326
-0.779266
-0.809321
9.96004
10.0217
10.0269
10.1194
10.1662
10.0884
10.0725
-0.593982
-0.657665
-0.846959
-0.533817
-0.394897
-0.520077
-0.72435
-0.23852
-5.09552
2.30519
-11.5337
-3.12893
-2.20969
0.913596
-30.6158
-9.71536
-2.12723
-5.72223
-12.4582
-2.5134
-2.87539
-2.95378
-0.677432
-0.535575
-3.06023
-4.1974
-0.227217
10.7439
10.6469
10.7142
10.722
10.3275
10.5596
10.6963
7.47724
6.94081
6.41822
7.3305
6.62478
7.48162
6.32223
1.40418
18.5231
22.7527
-7.86064
20.2757
7.90831
7.72919
0.949524
0.180943
1.40169
-0.545936
0.691839
0.440515
0.732963
2.63986
2.72845
2.33634
1.6111
2.57233
2.23482
2.74664
1.31414
1.23252
1.00486
2.05845
0.975554
0.592893
1.47733
762.288
693.556
801.666
755.119
714.951
688.512
719.778
735.911
814.995
688.782
654.55
562.585
370.8
539.383
583.801
680.465
683.616
41.1093
32.49
39.7212
28.6736
48.7842
30.4638
51.1559
19.6295
23.6472
20.7039
23.9918
13.7196
22.046
17.1392
52.0824
-44.0927
67.2238
-17.0383
65.2869
84.3594
38.4448
39.2035
6.44155
-92.9408
136.565
-71.3499
-4.96667
12.4769
2.76391
106.162
-236.897
-50.4886
-28.1918
-44.7818
-116.598
81.8171
4.2618
200.64
77.648
43.7983
18.4685
153.447
77.0217
41.2389
-4.73609
321.038
364.418
115.047
224.131
80.4232
105.919
429.668
492.449
541.337
627.897
659.171
617.461
316.162
666.924
665.542
633.79
459.513
340.735
714.998
729.14
665.758
380.915
360.072
226.452
342.816
372.05
384.397
273.179
21.4456
18.992
8.07129
11.37
-22.3581
13.6012
10.0971
-11.2752
-12.1749
-10.938
-10.7834
-10.434
-11.4295
-12.8479
-2.61789
-2.29547
-2.13433
-2.6061
-3.18763
-2.7275
-2.70602
-0.325699
-0.164941
-0.308903
-0.442807
0.0916186
-0.324213
0.0960825
10.0014
9.94995
9.74404
10.0689
9.94739
10.0457
9.78984
10.6733
10.6643
10.5381
10.6387
10.7367
10.7243
10.637
6.35979
6.76275
6.38521
6.11905
6.27874
6.6069
6.22657
4.25865
4.07042
3.91265
3.63864
3.68016
3.82719
3.98925
1.33027
1.07479
1.37499
0.888089
0.841021
1.13259
1.13864
-0.222545
-0.255533
-0.394787
-0.18215
0.059104
-0.0716261
-0.180574
-3.2239
-2.71935
-3.69425
-4.50675
-3.628
-3.24395
-4.58881
-3.95432
-4.08384
-4.19038
-7.8897
-70.9196
-58.2704
-16.4405
-49.0883
-12.9093
-87.1571
-56.4505
-16.6734
-20.7435
-8.20392
-25.7568
-17.2168
-23.9726
-16.5018
-12.3306
-15.4409
-0.341858
-21.8014
-123.649
-3.2453
-41.6438
-136.056
-126.564
-117.735
-92.2151
-121.761
-136.305
-163.318
-111.929
-109.454
-3.8736
-2.07051
-2.38838
-1.76494
-3.34155
-1.5917
-2.43283
-1.51246
-2.0176
-2.87561
-5.20913
-1.57058
-156.33
-130.302
-140.499
-472.435
-492.696
-472.765
-468.477
-453.569
-455.207
-462.343
-473.928
-489.852
-484.998
-499.668
-477.508
-473.473
-462.283
-474.877
-484.776
-460.812
-475.648
-464.543
-493.835
-472.993
-473.205
-441.317
-464.576
-471.198
-454.21
-480.136
-503.719
-490.509
-494.742
-483.859
-478.173
-489.518
-480.133
-470.305
-483.879
-478.31
-470.89
119.05
-15.5887
12.8491
-2.9674
-14.7353
-14.4133
-35.5678
-265.087
-237.866
-368.242
-240.059
-81.6707
-145.88
-318.744
-412.483
-156.271
2262.03
2653.88
2425.15
2390.42
2418.91
2562.83
2605.52
2570.97
2497.68
2416.62
2473.36
2453.79
2579
2613.64
2068.49
-188.81
-155.309
-117.192
-481.013
-32.3038
-207.284
-0.934238
-0.966417
-0.915331
13.219
13.5369
13.2381
12.0176
12.1198
12.0533
12.0477
-0.899878
-0.933207
-0.843976
5.75703
5.73967
5.74795
13.0834
13.0136
13.4518
1.5354
1.70043
-0.152839
-0.860063
-0.875687
-0.933743
-0.932169
1.3372
1.45815
1.62314
5.76087
5.76264
5.97298
5.95432
-3.10441
-2.1612
-2.47881
-2.70341
12.8725
12.8285
13.2203
13.0068
-0.994154
1.21519
0.391258
0.565822
0.751884
0.208416
1.3476
0.731274
0.614773
0.545456
12.8432
12.9636
12.9848
13.2332
-2.80923
-3.16744
-1.92957
-2.63918
-3.72379
-3.33585
-3.42736
-4.23795
-3.1588
-3.52807
0.649089
1.26163
1.2425
0.566316
0.2585
0.44393
12.0216
11.9991
11.865
11.9489
11.9315
11.8104
11.9318
11.8041
6.35381
7.1402
6.25427
6.87832
36.5276
34.2025
39.3633
35.7428
-7.34643
-6.42508
-6.27726
-19.1334
-15.7006
-22.6264
-13.061
60.676
-29.1984
-1.26847
-43.6212
6.36337
5.84777
5.45323
5.27265
25.5903
42.861
3.63979
6.85159
14.1485
-5.00263
-1.03416
14.7745
-5.71569
3.4209
-1.12751
-1.26882
3.08568
-0.0625332
-0.19062
-7.84678
-5.18095
-6.81385
-4.78281
2995.01
2816.25
3124.06
2830.27
-7.02564
-3.08204
-3.84911
-1.70096
-8.42915
-6.84753
-9.60024
-7.69254
-1.37191
6.99228
-27.2636
-40.7606
-2.79063
-2.82118
-2.84981
-2.78925
8.73992
9.06583
1.96159
1.95232
2.12208
2.05201
5.51221
1.47678
0.557111
1.76169
-10.2637
-12.1305
-10.882
-13.1606
-37.8737
-37.7169
-90.5829
-83.7786
-6.12133
-5.99836
-5.49195
-5.56371
-0.666163
-0.382041
-14.0364
-21.667
-12.2159
-6.10572
-18.7982
-9.49683
9.24264
9.36345
-2.83599
-2.84882
-2.82951
-2.8468
-7.11542
-5.83729
-7.05484
-4.26271
-4.70095
-5.09109
-3.70964
-4.18317
0.783392
1.98794
-28.7293
-4.60259
7.87302
57.8768
1788.63
1422.47
2542.29
627.183
507.552
818.827
557.816
-22.0425
-11.1294
-10.1315
6.77118
2.40836
19.2545
70.7231
55.0603
21.779
377.534
284.287
347.581
260.674
-2.84651
-2.82106
14.7533
5.15364
7.55966
6.92124
10.0854
5.00693
-3.25069
-3.72105
-4.08836
-5.44365
-4.52121
-5.39048
58.3389
62.3772
4.55621
4.24179
4.53514
4.80296
3.6713
3.53734
3.76632
3.48737
12.3753
20.4076
8.83901
16.9146
-0.838725
-0.889735
-0.827832
-0.923347
17.6781
14.654
-33.5543
-46.4613
15.8379
26.1441
-28.2908
-31.6568
9.56053
9.46832
-14.8954
6.28576
5.38464
5.89811
5.78612
6.66961
11.7428
-6.1043
0.344521
1.70895
39.5262
-40.301
-0.289007
-0.189643
-0.361907
-0.317848
-93.0624
-101.811
-102.841
-141.385
1.71977
1.5247
-2.2697
-2.14704
-2.09768
-2.10269
6.75916
6.7983
-167.81
-165.795
-126.516
-129.117
4.3759
4.33378
4.75787
4.57771
178.04
145.672
502.155
180.799
-7.22454
-4.39964
-7.82633
-8.10531
137.044
126.606
6.32291
6.28853
11.4164
11.4735
11.4517
11.524
700.055
675.465
480.975
556.257
4.37811
4.27784
4.60708
4.5766
77.6197
112.743
-2.84218
1.609
-3.29593
-3.28561
-147.436
-143.148
-382.106
-0.854754
-0.982403
11.6504
6.19231
-2.73707
-22.4332
-3.84857
-19.529
1.32707
1.54758
10.6366
9.84516
5.67121
5.65486
9.69794
9.28771
9.81922
9.22306
-7.24871
-8.43579
-163.343
-162.594
-164.007
-164.323
2324.3
2420.05
2815.52
-3.32044
-2.99674
-2.82121
-2.3081
11.2115
10.9121
11.4773
11.4952
4.3972
4.41674
4.26967
4.61715
11.7718
11.8713
5.15573
5.00283
5.15938
4.79682
9.83947
9.97079
9.67937
9.85433
7.16448
7.38433
9.6611
9.64783
-2.11159
-2.21475
-2.21562
-2.23762
2.78269
2.38167
9.82756
9.86868
-1.90799
-2.00471
-1.9704
-1.7057
-1.87269
-1.90432
49.9522
39.0255
25.5631
17.2586
-0.949958
-0.970518
-1.33524
-1.05213
-2.84677
-2.83882
-2.85891
-2.85317
4.48677
4.51205
4.73475
4.55912
11.8506
11.8459
11.3297
11.4485
-0.825842
-0.884768
-0.72759
-0.866242
-0.922931
-0.852383
-0.912714
-0.744893
0.259348
0.300409
0.287881
0.465617
0.290698
0.289199
0.373054
0.279033
-4.44461
5.47202
5.79995
-173.882
-172.188
-175.019
-172.71
21.2447
11.9935
14.0694
3.34929
38.428
47.6896
19.3138
15.3406
0.588721
3.78967
-10.6948
-7.09714
-173.62
-174.663
-173.739
-175.246
361.804
440.416
655.177
472.22
10.3128
5.5464
12.3959
11.4907
59.7542
114.469
37.1071
52.2191
13.1931
35.3112
6.96207
6.84657
7.50281
7.36203
2.55563
-1.52627
3.4717
6.14594
-75.5755
-78.2606
-145.507
-144.915
-2.21029
-2.80992
-6.03552
-2.74651
-46.4662
-42.4964
-2.46158
-2.54472
-170.513
-170.066
12.4213
12.3318
12.3355
12.2612
-65.0049
-53.425
12.3292
12.4296
12.2378
12.2221
10.8926
10.8252
-2.91858
-2.92489
-166.971
-169.223
10.8974
9.02976
8.87148
5.31408
4.86178
-24.1854
-23.9913
-23.9847
-23.911
8.54025
8.34454
11.3037
11.3813
11.1154
11.1037
9.94446
10.0631
10.3595
10.3116
-2.03987
-2.27059
10.0767
10.035
10.2943
10.3825
-3.51541
-3.46656
-3.50862
-3.58495
-0.978506
-1.01343
-1.05077
-1.00953
7.11951
7.65634
10.3183
10.4095
10.2049
10.362
-6.54754
-9.39604
-150.35
-151.999
-140.585
-145.403
-2.08055
-1.90331
34.046
57.8427
30.4648
37.1914
34.4242
35.7216
35.3118
37.8759
-11.4987
-10.1091
-2.46566
-2.53407
-0.9023
-0.843747
-0.227372
1.44892
-1.33303
-1.33005
-1.29403
-1.2918
-2.5503
-2.21055
-2.83414
-2.84486
-1.79522
-1.23724
-1.44345
-0.212258
-0.146065
-0.136385
5.33327
-13.004
8.28338
11.6182
-5.41593
11.4669
-15.3125
0.421462
9.64799
9.59725
-24.7154
-24.7719
-22.5486
-23.4673
8.19262
8.62202
8.02372
8.20945
-1.17848
-2.47477
0.262322
-1.10653
10.2268
15.0397
-2.39714
-2.63542
-24.7636
-25.8259
-26.8924
-27.633
-2.61646
-2.65534
-18.6345
-17.6849
-17.7003
-17.8858
9.57269
9.63783
2.02624
2.15487
7.1112
-4.24521
1.09247
0.7088
-3.04606
-2.99829
-42.635
-29.1466
-66.0888
-59.9331
7.09178
13.4697
29.3969
-24.2975
-28.8037
-30.657
7.95884
7.76227
7.39057
7.38515
-131.224
-125.989
-135.47
-138.55
-25.9592
-24.4024
-23.814
-24.9093
47.0291
63.8424
-2.90586
-2.85524
-1.27139
-1.25568
-163.446
-160.645
-164.814
-163.96
-157.663
-164.558
-164.387
-167.512
-2.87535
-2.81239
-2.29764
-2.25418
0.365611
0.455858
-3.00936
-3.17505
-3.28814
-0.435927
-0.197946
11.4535
11.3327
10.5819
10.3626
0.575336
0.595494
9.26183
8.6838
9.69781
7.62508
6.96015
8.35953
4.89522
8.30623
-403.982
-391.954
-1.85326
-1.5163
6.84897
7.90278
9.68076
9.69123
9.36071
9.39997
11.9449
8.96808
2.39228
2.35512
-0.95187
-0.265051
-1.13631
-1.24709
-2.38737
-2.39785
-2.49316
-2.52018
-2.44823
-2.48547
7.86125
2.85727
-0.0651829
-0.0506357
-0.0308593
0.0541635
0.0399565
0.119085
-332.139
-336.132
22.8871
13.6709
67.0197
31.7438
2.29162
2.25871
-43.0584
-33.0014
-2.13072
-2.02785
-2.572
-1.92741
10.9593
11.8308
11.5069
7.61276
23.8758
33.8251
6.60113
6.48129
14.4745
21.6518
19.0298
8.57581
227.425
229.38
-1.29825
-1.4986
-1.6633
-1.68885
-8.45645
-16.6844
-2.77016
-2.81127
-2.83842
-2.81619
-54.4217
-36.9832
4.70166
4.8393
-376.71
-128.37
-138.618
-129.5
1.54018
1.21107
10.9928
10.9948
-40.3915
-39.1016
0.734999
0.619858
7.34407
7.34307
7.0387
0.734325
0.620381
-2.83049
-2.88016
-1.96933
-1.97703
3.9218
3.4925
13.9452
13.5706
36.8326
32.2729
45.8495
51.9588
5.24677
5.07232
12.5541
10.9684
3.03233
2.15329
10.1284
9.65189
-3.70272
-3.69053
-3.25693
-3.56275
10.188
10.2432
12.1349
12.1986
-1.15245
-1.14347
12.3525
12.3053
9.2694
78.8981
13.0143
84.5368
11.0887
10.5401
8.29047
7.84694
12.092
10.5121
10.3863
10.4598
0.565685
-0.752022
8.32118
7.90559
10.073
9.65967
10.2416
10.176
-147.01
-145.554
133.158
120.334
-3.57206
-9.26214
11.2451
-5.23379
-5.38288
-7.76198
-23.28
-24.0537
-21.9375
-23.9731
1.63201
1.32211
-24.5066
-22.75
-23.2249
-20.7295
8.3434
8.59474
10.5862
10.5653
-1.91234
-1.93425
-81.8382
-74.8168
0.107274
-0.553512
-2.88843
-2.88589
-0.0761321
-0.495277
4.19843
4.03633
4.19554
4.03581
-0.0884633
-0.198835
-0.158727
-0.201204
95.6555
67.3089
12.2084
13.7066
60.2848
59.3923
119.109
117.031
125.343
119.419
7.24937
7.35272
9.88477
9.9206
-0.587769
-0.515733
-0.784232
-0.636666
0.371657
0.324026
58.819
71.8145
63.9487
68.0798
390.314
534.384
8.9988
14.6569
5.16903
11.4026
-13.5633
-12.3148
-2.45071
-2.46696
7.21693
7.25183
4.59176
12.95
-1.24866
-0.809863
5.94702
6.19327
-3.04245
-2.98394
-8.56386
-9.44122
-7.24469
-8.41663
19.9853
31.9817
6.79729
6.3263
137.527
57.0724
67.3967
60.0888
6.81284
15.0499
-11.695
-12.7581
-0.439743
-1.24022
21.0346
29.7575
-1.24644
-0.913501
2.19834
2.15106
9.25413
9.0479
2.49277
2.47062
17.623
17.4855
10.2939
9.85396
10.1256
9.85623
-68.1599
-81.8775
104.044
99.3055
-5.9306
-9.84196
1.34494
-0.525993
12.2992
8.13911
-21.1738
-30.3729
138.274
101.367
-0.797516
3.23783
-2.61017
-2.51535
7.31272
7.05533
4.28374
4.16239
-3.90435
-4.33511
-0.0348593
0.043738
9.02263
8.13746
-20.548
-20.7865
-36.2779
-38.5789
-43.038
-48.2974
-42.4147
-79.6549
-81.7511
7.78308
8.27312
-3.29326
-3.29865
-3.29352
-3.24857
-4.19716
-4.10599
9.63832
9.81226
-0.432221
-0.345099
36.1201
46.692
-0.408908
-0.363718
-2.18694
-2.26236
11.1381
11.0215
-4.21508
-4.10261
-0.268078
0.187915
-4.40743
-4.61551
-167.075
-168.479
14.8603
18.4889
-165.839
-167.568
-1.54549
-1.80623
-1.8254
-1.95272
8.85391
9.00392
-3.1919
-3.36513
6.75468
6.96212
6.9554
-2.55112
-2.50123
-2.55699
-2.45344
-2.90191
-2.90011
-3.43074
-3.44025
2.2785
2.07338
4.63432
4.60386
4.56162
4.61449
9.14591
8.94244
23.3363
53.6004
8.89178
8.6452
-106.46
-95.4693
-154.843
-155.338
-2.0001
-2.55773
-128.495
-124.603
-2.84614
-2.85443