/*--------------------------------*- C++ -*----------------------------------*\
| =========                 |                                                 |
| \\      /  F ield         | OpenFOAM: The Open Source CFD Toolbox           |
|  \\    /   O peration     | Version:  v2012                                 |
|   \\  /    A nd           | Website:  www.openfoam.com                      |
|    \\/     M anipulation  |                                                 |
\*---------------------------------------------------------------------------*/
FoamFile
{
    version     2.0;
    format      ascii;
    class       volScalarField;
    location    "0.45";
    object      p_rgh;
}
// * * * * * * * * * * * * * * * * * * * * * * * * * * * * * * * * * * * * * //

dimensions      [1 -1 -2 0 0 0 0];


internalField   nonuniform List<scalar> 
24700
(
2828.6
2808
2873.92
2794.08
2795.61
2882.52
2851.98
2835.24
2777.95
2778.06
2802.05
2804.94
2793.89
2825.42
2818.03
2813.58
2810.45
2857.77
2846.46
2810.05
2893.72
2891.69
2816.98
2808.91
2915.54
2854.07
2862.34
2826
2857.62
0.35349
1.29035
-0.314657
0.802381
1.48089
1.19952
2.12728
2.09782
1.97767
1.93663
1.76348
1.92473
1.87267
2.00741
12.3927
12.3383
12.4557
12.3607
12.4
12.3623
12.3966
-0.366809
-0.764354
-0.191017
-0.264422
-0.550587
-0.317571
-0.160913
8.34289
8.67167
20.6791
20.6133
54.3091
35.97
49.5413
2.3848
1.43863
2.3298
0.533926
1.45989
0.940183
0.98495
-0.271861
-0.289874
-0.25456
-0.327304
-0.314379
-0.279773
-0.321479
1342.6
205.373
2692.89
1510.75
156.528
2165.96
2604.03
-0.13097
-0.0997703
-0.124083
-0.087194
-0.120342
-0.0997694
-0.0981239
0.106633
0.461726
0.161465
0.557413
0.0670945
1.37009
0.157086
21.279
27.4714
21.4811
70.7844
77.1543
50.3235
49.6887
176.493
279.36
50.3065
192.747
54.2521
860.464
188.316
1973.57
1925.89
1981.52
1978.91
1962.62
1968.53
1963.96
1953.3
1953.73
1883.68
0.982333
18.0898
23.3776
25.3667
21.9102
6.89456
3.10472
8.10069
0.485127
-1.64574
-7.9475
-4.65987
0.532532
-0.0440036
0.671286
-0.0633947
0.0883805
0.837097
0.0605325
8.31516
8.43091
4.68151
4.43549
8.06376
5.33194
1.56565
12.4513
12.3377
12.3992
12.3969
12.3659
12.3627
12.3917
108.387
70.7122
55.637
61.525
108.141
401.455
25.1949
-31.5197
-3.08152
-23.6982
-30.889
-33.8509
16.0303
-27.2686
-22.9377
-12.5809
-42.9662
-45.8972
29.6209
24.7109
-105.705
-174.949
-173.964
-174.293
-173.691
-174.886
-173.777
-175.272
-169.335
-165.32
-167.001
-164.871
-166.116
-165.204
-168.578
13.9561
14.0318
13.4229
12.6861
12.4851
11.1756
13.8636
11.4467
11.3091
11.2997
11.0807
11.361
11.3998
11.1699
1781.77
1587.02
1970.74
1574.56
1872.83
1886.58
1845.41
12.3904
12.2822
12.4671
12.3867
12.4868
12.3656
12.3936
14.5738
13.9961
14.5535
14.0502
14.0409
14.5749
14.4437
31.2391
27.3346
27.165
36.9476
66.5199
32.5364
43.3454
40.7253
43.7788
21.9712
534.226
168.376
185.865
112.306
-128.065
-130.419
-107.663
215.377
-77.0414
-25.7411
-49.6345
-77.0924
389.248
-11.1287
-78.3295
-168.33
-8.30072
-91.1936
-250.659
-73.9645
-321.844
-78.1021
-92.4968
-130.728
-142.408
-139.509
-139.64
-143.595
-143.029
-133.999
-151.546
-153.07
-147.564
-143.676
-144.944
-146.096
-147.693
-161.926
-166.159
-165.614
-163.71
-164.832
-166.105
-161.21
-136.992
-133.036
-137.672
-131.939
-137.748
-129.93
-139.018
-101.305
-114.844
-98.0527
-115.575
-123.486
-125.334
-99.2432
-50.052
-78.0669
-118.787
-83.9402
-50.3774
-69.8832
-111.845
263.385
242.344
123.162
70.8071
34.9957
28.8438
108.059
9.92677
9.94329
10.2439
13.5011
11.1989
10.8176
11.7335
0.427642
0.425898
0.419714
0.42587
0.461422
0.45531
0.43653
0.925077
3.39626
3.23791
3.19455
2.00814
2.50395
0.345515
5.25804
5.95669
4.99104
4.83153
5.07504
4.98984
5.0914
1665.55
2193.96
2261.52
2122.05
2196.18
2281.94
2250.96
2262.33
1684.63
2302.5
2143.92
2396.66
2392.8
2390.18
2055.53
632.558
327.007
308.856
302.145
309.7
761.145
505.653
305.24
114.923
98.2531
203.932
329.553
1074.26
49.2976
50.946
50.3255
130.733
205.281
124.359
74.5369
33.3117
33.3942
33.4279
23.0688
33.5228
33.0708
24.3588
1.40797
3.93708
2.61565
1.50328
1.81048
4.11768
2.10669
4.27953
7.46026
4.15946
9.33279
14.26
9.10939
5.47321
5.87035
8.38631
7.17272
8.60362
8.51632
8.40016
8.57139
-0.0988557
-0.0221824
0.0100764
-0.147371
-0.157355
-0.12217
-0.0703202
2149.87
1838.71
1542.42
2143.17
2157.4
2109.71
2008.17
14.3608
14.8738
14.3308
15.772
17.045
15.3839
15.876
74.3468
75.6777
31.9736
54.9424
73.7417
36.217
59.169
24.3519
47.5269
57.5254
45.4655
96.1423
145.242
64.0479
358.412
348.189
326.156
-36.8644
311.471
6.6885
25.1472
312.418
226.235
-18.9377
79.3539
-12.3374
147.087
47.9943
-6.30226
100.023
-49.9088
-19.903
-20.7389
-41.8496
-39.3693
-13.3499
6.38703
-9.1742
-149.66
-152.836
-154.677
-158.094
-159.932
-154.271
-153.787
60.7607
60.9289
56.7373
256.667
76.0884
93.8896
275.358
26.1443
27.7382
32.494
23.1371
22.6747
17.5737
23.8074
39.5662
37.4575
39.9822
26.4542
17.8074
25.8505
34.1884
0.547689
0.565348
0.552783
1.27818
1.05184
0.974833
1.8928
0.416648
0.0817477
1.27605
0.054109
0.294308
0.0753183
0.199078
40.5231
39.597
19.6052
35.2051
40.3783
26.6219
23.3071
114.573
45.2098
764.005
51.5317
161.431
47.0494
51.2526
2038.24
1912.98
2021.79
2058.25
1727.19
1897.88
1879.37
2168.73
1864
2046.21
2270.25
1852.14
2297.53
2252.98
-0.0428339
-0.05654
-0.0603505
-0.0657888
-0.0638886
-0.059114
-0.0532716
-0.100714
-0.111938
-0.116501
-0.125407
-0.124947
-0.120688
-0.1147
12.6785
13.1246
13.1207
12.5909
12.6771
12.6389
13.1486
840.685
119.832
245.06
65.7075
109.974
170.421
179.153
567.866
276.304
896.041
937.827
951.177
922.555
950.443
538.503
407.334
697.664
243.544
255.122
199.618
213.379
313.867
-25.1035
85.6311
-39.5113
-25.5382
-20.1566
69.0875
-75.1766
6.62266
-91.5125
-119.908
-108.871
-83.547
-93.0552
-93.591
-99.2986
-118.662
-115.216
-115.344
-121.749
-133.125
-124.013
-119.655
-132.546
-135.991
-138.522
-131.317
-128.058
44.8601
48.6845
43.8482
41.6303
44.6409
38.3243
39.9442
12.6756
13.5634
14.1614
17.666
16.657
14.9123
14.8507
911.473
942.665
944.047
814.237
541.227
919.855
928.929
2.50386
2.37254
2.00663
2.70603
2.71514
2.77299
2.48286
-0.158903
1.26255
3.1714
2.21466
0.436478
0.664049
0.473687
809.984
416.137
804.14
177.754
793.999
234.587
804.306
1721.73
1791.73
1703.71
1698.02
1660.17
1701.07
1678.77
1719.41
1688.29
1678.78
1668.97
1731.09
1610.33
1802.18
1763.93
1700.69
1520.72
1700.23
1880.92
1917.66
2101.99
1808.95
1919.93
1991.63
1593
1347.32
1840.43
1692.02
1771.4
-0.136783
-0.157478
-0.145253
-0.118331
-0.132102
-0.147964
-0.134732
-0.307586
-0.31531
-0.330535
-0.260461
-0.295216
-0.281358
-0.318321
10.2091
10.3129
11.0148
10.1002
10.6259
10.0809
10.1528
9.78146
10.9447
11.098
11.0247
9.93757
9.9594
9.466
9.19922
9.36632
8.9865
9.21784
9.72733
8.94585
9.38131
20.4568
20.3678
19.6009
20.0849
16.2522
15.9719
16.2073
16.2175
23.6215
19.9018
18.2993
16.4471
23.9044
18.8017
29.9382
34.624
32.8189
50.1908
33.8768
35.2156
29.557
571.515
328.448
554.987
560.909
508.273
270.144
301.563
546.487
311.281
312.313
302.892
284.296
-159.639
-159.328
-145.483
-80.2817
-117.246
-138.301
-90.3141
-172.729
-173.447
-172.628
-171.983
-171.085
-173.059
-171.786
-110.169
-102.578
-93.6723
-123.026
-91.7868
-118.569
-99.0523
247.962
182.388
22.6242
228.552
213.544
163.452
114.15
83.6421
81.7008
76.2929
83.7576
74.661
66.4433
87.2695
55.7552
36.9776
40.0938
34.5189
35.4225
30.8006
44.2545
31.1835
23.7482
31.4678
11.8573
10.8699
10.2807
13.8845
0.231235
0.178113
0.244272
0.262156
0.16486
0.166734
0.1496
0.719405
1.5119
0.783882
0.59642
0.693407
1.48751
0.671119
1439.49
1526.77
1427.75
1423.39
1300.77
1433.22
1446.53
1459.93
1337.57
1424.28
1444.03
1460.57
1047.46
46.2814
198.951
627.894
55.8846
50.8669
88.7487
87.0893
127.414
147.537
91.9388
93.5148
89.3113
184.459
6.47625
21.0017
12.3839
10.196
6.08165
15.9917
12.3088
-0.0177105
-0.0167527
-0.003998
-0.024145
-0.0147811
-0.0168178
-0.00849981
-0.0217802
-0.0224044
-0.0213275
-0.00521164
-0.0155899
-0.0295536
-0.00246422
-0.0173784
-0.0182094
2551.36
2597.05
2539.82
2613.93
2545.37
2608.13
2553.22
6.9272
6.05709
5.7211
4.9055
5.01455
5.47801
6.24367
8.06905
8.72013
8.12986
6.24311
6.47585
6.78713
6.80471
8.04533
8.16893
8.34361
8.02811
8.06505
8.30708
7.979
8.34713
8.51641
8.32311
8.2366
8.28163
8.44852
8.29091
11.1674
10.9117
10.9738
11.3787
11.0663
10.9258
11.1705
16.4853
17.6657
16.5304
22.0753
17.6804
17.3745
16.3241
202.722
94.4394
75.2591
73.1142
77.3595
66.2175
163.338
636.473
657.625
1109.48
1091.73
707.22
677.1
649.946
244.539
205.523
288.716
204.365
133.152
149.807
293.197
374.93
231.946
208.57
522.51
394.844
473.749
359.769
306.266
280.654
152.417
399.494
280.976
446.171
183.048
625.729
508.79
457.622
130.465
138.325
131.697
216.176
199.506
98.8807
106.495
407.994
314.393
421.685
420.148
410.281
286.757
387.265
510.287
522.98
529.141
257.821
55.2192
236.263
490.213
11.0351
7.7536
14.1958
7.50169
7.64492
8.64041
10.5689
1.48278
2.29637
2.57797
4.11599
1.01143
2.49076
3.27237
1419.09
1448.48
1467.06
1415.23
1485.25
1393.54
667.12
1417.79
1339.53
1391.97
21.7143
21.4614
21.2896
43.709
23.5141
28.9525
21.5355
-0.0500884
-0.0633965
-0.0445459
-0.0259952
-0.0650651
-0.0293002
-0.0700408
-0.061617
-0.0508905
-0.0184822
0.0139149
-0.0281988
-0.0608362
-0.0730569
-0.041431
-0.0431371
-0.085948
-0.0136085
-0.600518
-4.53101
-1.06864
1.61288
1.90787
-0.794473
-1.23351
1.38889
2.32963
0.0093478
-2.18731
0.246855
1.51113
0.844216
0.917627
0.0275784
-0.532114
-0.100268
0.0603281
7.56489
7.36557
7.3767
7.23395
7.35362
7.25772
7.494
11.2782
10.8113
11.2323
10.6797
11.0515
10.5426
10.9673
115.555
154.273
113.609
127.314
111.094
195.474
114.268
87.7743
-6.40644
8.34742
29.3353
23.7725
9.65614
14.8701
121.482
325.497
293.451
-82.3344
-102.033
234.489
-101.994
114.293
560.679
525.174
129.228
24.7267
349.579
56.7256
36.4765
38.1241
39.5917
38.0344
34.2951
36.4936
35.0755
482.604
420.649
605.115
114.995
256.485
74.7511
135.493
18.709
142.691
167.87
72.4191
150.99
30.5113
299.221
215.266
5.17712
4.97905
4.83508
4.6562
4.85957
4.53337
4.97989
0.97937
0.957654
0.897409
1.18791
1.03938
0.986312
1.04673
1.67267
1.97594
1.6057
3.42812
5.0209
1.73391
2.02258
-2.59748
-2.84851
-2.35272
-2.97689
-2.54931
-2.94736
-2.79686
-1.6191
-0.820385
-0.407594
-0.481265
-0.395084
-1.20885
-1.74837
43.5764
21.3379
5.70824
7.77341
4.91688
19.4197
26.5585
84.8242
50.7523
232.951
-13.5815
105.788
-6.44339
60.9222
230.223
261.517
22.5478
12.663
28.514
256.387
89.5359
26.3785
196.232
1029.55
21.1799
20.3231
110.495
308.929
46.903
54.8187
31.6366
47.0625
39.5268
50.603
42.2554
42.9871
61.2672
109.153
39.4639
83.418
83.8072
84.6571
1.11922
0.493334
1.45049
3.64476
3.52279
3.55502
3.5053
-0.617669
-0.537282
-0.591403
-0.576076
-0.142539
-0.378037
-0.585511
0.609763
2.52612
4.38793
0.15636
-0.146022
0.336897
1.34653
-0.176649
-0.120385
-0.289017
-0.435693
0.288935
-0.228133
0.0887568
0.0966814
-0.0308519
-0.554461
-4.16106
-4.57986
-3.94264
-5.03844
-4.95344
-4.52613
-4.71249
6.13868
6.3059
6.496
5.91651
5.90958
6.08325
6.23623
513.531
354.68
400.678
154.124
155.169
176.768
155.559
1211.04
1259.49
1210.33
1274.68
1229.55
1256.78
1123.64
446.915
437.195
975.442
994.337
904.609
430.387
1028.99
2.16111
2.23376
2.67041
1.64371
1.85409
1.58618
2.43107
3.7737
6.62922
4.06131
3.54186
4.70202
2.93198
4.55659
0.547963
0.474594
-0.407856
0.463699
-0.462851
0.0633486
-0.4612
-13.0061
-16.797
-26.1114
-19.8914
-32.2226
-29.3006
-25.7431
469.656
640.699
656.114
245.805
-19.5705
312.848
-19.0683
8.11623
8.53535
8.26713
8.49506
8.10979
8.55193
8.47557
4.62434
4.81701
5.10223
5.31015
5.75978
4.95604
5.36825
-0.648922
-0.49466
-0.208636
-1.01036
-1.26744
-0.847094
-1.30811
-4.85132
-4.18139
-4.41682
-5.42364
-5.38962
-5.16669
-5.24743
10.3947
14.3382
12.8495
10.3548
14.2338
10.2369
9.95276
1172.45
1177.97
1194.91
1213.94
708.6
1194.83
1206.39
122.812
100.326
125.816
96.865
70.7643
53.9605
74.3151
50.9369
50.2764
90.2584
87.1029
60.6034
55.8912
35.3709
72.8828
46.7379
48.053
51.2605
76.1287
76.7001
80.9312
258.247
100.858
95.8634
71.3289
649.292
586.248
41.5977
33.9979
19.3263
22.5562
24.5807
61.7194
19.7249
84.8906
11.8442
9.50879
9.64103
10.4002
9.51092
9.61603
12.201
9.76517
10.6773
13.465
9.64233
9.19521
10.0967
12.2304
85.9338
71.1894
63.964
84.6453
85.9997
68.5397
66.1822
1950.86
1623.52
1573.94
2147.34
1089.44
2023.2
1189.46
1384.62
2193.15
2186.03
2268.23
1803.89
759.481
843.428
1246.19
546.012
1793.2
2162.88
2.42194
2.49234
3.02544
2.53533
2.52319
3.28427
2.5017
24.9752
33.8368
19.5626
27.8633
89.8302
89.8891
9.10028
-0.142988
-2.17971
-14.0196
-14.9404
-18.3878
-5.3812
-7.15979
-6.66715
-3.7001
-2.99557
-5.9207
-8.87982
-5.72841
-3.56221
95.3054
98.4418
519.718
215.319
484.316
19.1149
27.9205
787.982
704.546
819.287
748.955
741.3
966.449
889.904
706.694
822.631
720.617
0.1197
1.74367
2.05906
1.23342
1.96911
3.99328
0.339239
2130.5
2149.01
2118.64
1038.14
1826.6
2106.5
2014.89
20.7371
25.4786
26.2281
18.6903
20.8297
23.2667
16.4309
9.08487
9.09509
8.70537
9.03639
9.38389
9.44157
9.1704
4.65022
4.97139
4.52218
3.48189
4.39929
4.39721
4.76458
0.884671
1.22957
0.232465
-1.2118
-0.768917
-0.172136
-0.0742692
-1.17079
-1.70204
-1.14924
0.316667
-0.401379
0.00791183
-0.980522
-0.764388
0.256038
-1.65874
-0.88049
-0.721941
-0.39545
-0.606764
-0.569725
-1.13402
-0.283281
-0.0625041
-0.610462
-0.409732
-0.759112
-0.537196
-0.661864
-0.407028
-0.109736
0.107205
-0.356478
-0.459473
-0.0529883
1.8467
2.02783
2.08588
2.28694
2.11993
2.1501
1.95551
2.44218
2.71657
2.41912
2.26303
2.3309
2.5352
2.44467
327.125
62.8633
460.725
415.186
68.6589
220.026
406.088
497.611
152.741
1183.65
1194.23
1179.16
23.6215
24.1394
25.3043
27.259
27.9455
17.6784
24.5136
96.3633
98.4995
99.2829
98.5641
96.1426
55.3456
72.924
15.2212
16.7034
14.9408
16.3642
15.0677
17.0857
14.8067
47.8831
46.6533
68.6281
39.6356
37.2508
35.8568
49.3554
60.6854
78.2013
-111.051
90.6545
-34.3256
-7.18163
-14.6416
-13.3404
-13.9679
-12.4275
-14.4306
-12.9355
-14.7025
569.656
573.683
562.479
240.518
528.924
571.421
332.64
813.1
835.68
865.337
823.296
875.313
809.533
833.178
748.018
749.545
803.009
92.8914
79.132
80.4165
155.984
421.746
816.412
237.717
1.8183
1.11546
1.16687
4.88705
6.12652
2.18543
5.08622
2.38483
2.82251
2.40298
2.65626
4.80509
3.10178
4.95181
1884.08
1832.17
1521.76
1852.64
1884.9
1728.4
1829.46
11.2118
11.4894
11.3965
10.9621
11.3625
11.6014
11.2228
9.35603
8.91532
10.0193
9.63259
9.55266
9.43837
9.90662
10.4052
10.3429
10.8456
10.3041
9.77693
10.3296
9.88388
6.29562
4.92338
6.16896
6.6983
6.40729
5.98338
6.51894
6.33237
6.21386
5.62387
4.72187
5.49807
5.36147
5.91494
-2.31998
-2.18827
-1.56217
-2.63835
-2.70774
-2.67068
-1.91594
1.92838
1.99683
2.09104
1.90459
1.75231
1.87998
2.00044
3.355
4.4516
3.8183
2.89482
3.19819
3.85931
3.38737
969.048
341.314
268.009
115.636
1002.65
983.025
345.51
565.613
981.478
352.915
967.245
973.741
994.919
987.008
673.928
723.123
522.579
195.319
139.968
326.741
352.679
329.996
83.1454
139.449
12.4195
12.2982
9.88698
11.2807
11.3736
12.9046
9.33227
209.081
209.566
147.818
206.783
195.606
179.242
50.5124
17.1886
17.6783
16.5938
20.6789
47.1276
27.6092
19.6705
18.6825
15.1061
19.6943
14.9656
14.7572
17.0195
17.6673
13.4938
13.6107
13.5101
13.4848
13.7171
14.2185
13.6388
15.5793
14.4015
14.2522
14.319
14.1743
14.8639
14.7322
19.6755
15.6772
12.1267
39.1956
27.904
16.8016
18.0336
517.058
519.985
525.392
119.141
370.355
499.969
504.819
68.6154
68.8451
72.6075
92.1458
45.3705
34.1618
84.9528
132.479
185.606
123.31
109.87
85.7236
64.0197
-69.8753
71.3196
115.036
16.1581
70.1156
78.1103
-72.0225
67.9972
56.1817
59.075
41.7312
143.607
164.609
136.594
120.056
132.89
143.067
126.802
126.86
130.678
14.3377
-19.2695
51.9414
4.79122
74.7527
-9.61301
22.6953
446.303
431.586
423.161
251.511
27.5629
31.5453
398.719
-27.2713
-29.4618
-24.8478
-31.9956
-33.8001
-29.7175
-31.5859
22.3361
16.4691
14.0019
5.88322
11.8359
7.62898
15.53
-7.49179
-2.56116
6.20712
-7.37903
-5.56568
2.63354
-7.88787
-0.103992
0.240256
0.237947
0.400704
0.234013
0.316441
0.0722823
0.778609
0.715532
0.7772
1.06222
1.506
0.729061
1.08184
0.692301
0.706957
0.902182
0.800084
0.867455
1.04357
0.982977
70.3682
36.4687
40.0751
201.277
389.12
45.8278
91.5961
11.8847
11.8797
12.5884
12.1033
12.0181
12.0183
13.0504
3.64093
2.99947
3.36167
3.88809
4.75558
4.16001
3.89465
0.974226
0.828605
0.830316
0.698736
0.83583
0.768041
0.906998
102.951
53.7837
432.878
230.825
217.668
13.9425
14.1378
13.8037
13.8778
13.859
14.6873
13.8541
13.7971
13.8203
13.8964
13.8783
13.8469
13.8348
13.8228
4.40184
7.17324
7.7646
4.8954
3.40725
8.5348
5.27672
4.07549
2.18034
5.0551
4.37227
3.51529
3.88708
3.35365
118.394
111.037
-10.3903
631.311
684.627
605.992
452.622
420.333
556.48
600.808
458.824
550.228
429.516
521.175
502.471
591.126
481.701
619.397
640.888
548.983
721.905
658.532
587.865
253.491
282.347
268.078
239.239
320.767
386.829
329.112
256.175
250.754
239.875
177.082
110.636
253.569
315.398
103.094
104.888
208.771
217.025
311.078
307.816
351.405
270.453
284.798
1494.38
1892.35
1008.68
1313.91
652.344
995.118
1081.04
961.684
1684.43
1249.34
2096.94
1281.99
613.58
452.61
1114.67
689.331
593.163
456.352
1091.83
1438.59
854.115
942.988
683.627
692.717
58.6948
41.0207
51.6453
48.5327
69.0986
44.76
69.6849
224.167
137.864
311.929
322.716
336.455
356.335
316.583
-7.36979
-8.38394
-7.31814
-8.29675
-7.47663
-8.7087
-7.89617
-3.81098
-4.67609
-4.89779
-6.94176
-4.6459
-5.94792
-4.18226
-12.8702
-13.5715
-13.0103
-5.02346
-7.21913
-12.1298
-7.84271
-0.0830893
0.0165943
0.0824948
0.340423
0.195762
0.242289
0.100295
0.645618
0.946274
0.997226
0.672978
0.50689
0.588198
0.537089
12.8203
12.9051
12.8555
13.7981
13.8644
13.9548
13.272
2.09153
2.03313
1.86223
2.14644
2.26697
2.15627
1.97039
22.2722
78.6168
30.5476
768.781
191.702
709.815
158.431
578.508
770.645
772.574
774.044
532.257
811.608
816.801
808.18
802.125
810.6
180.894
586.404
300.243
12.5794
12.2294
12.5603
12.3239
11.926
12.2951
12.3918
9.39753
8.74186
8.27335
9.16501
8.66153
9.30838
9.04509
851.364
949.417
659.656
945.284
956.005
932.365
944.254
6.23827
5.08649
7.41883
4.25312
8.34603
9.10594
5.65256
6.26804
9.27918
5.28944
6.53147
5.63557
8.54207
6.81664
3.6784
4.86228
5.5711
5.43829
3.28502
3.28512
7.34783
770.459
715.992
828.647
763.307
735.206
708.247
749.664
745.346
824.43
692.268
678.267
586.71
388.662
557.927
599.168
683.345
698.971
49.8791
38.7637
53.2857
37.3689
60.7051
34.6782
62.1901
22.8753
30.8553
27.1996
26.8819
17.1988
27.6045
22.8134
435.796
320.351
444.521
380.776
450.282
456.536
423.459
425.039
192.768
306.221
447.067
252.233
306.983
286.198
270.178
361.08
108.854
275.891
282.384
202.255
219.555
321.799
224.142
322.38
101.871
69.171
56.1856
230.503
169.906
105.66
52.003
341.205
393.351
120.307
258.497
101.445
124.874
451.133
514.762
545.85
640.912
671.461
649.01
347.711
699.629
708.587
693.102
481.605
383.851
743.288
761.508
684.345
550.57
534.933
394.917
515.767
527.615
554.286
453.223
97.2917
42.5839
50.4936
28.735
55.0425
37.2911
28.1856
6.70833
3.91056
4.12861
6.45021
8.28638
4.43618
7.04688
1.48415
1.75336
2.14559
6.41862
1.61476
5.22264
0.343623
0.669694
0.97155
0.990676
1.63061
1.03882
1.17179
0.946672
11.3882
11.3398
11.1121
11.4952
11.3415
11.4387
11.1752
13.5931
14.0094
14.1083
14.2298
13.6314
13.3079
17.241
8.4565
8.83622
8.47708
8.23756
8.37886
8.69299
8.33104
6.48021
6.31036
6.15685
5.90604
5.92926
6.08113
6.22486
3.72199
3.47342
3.74841
3.30437
3.24261
3.53584
3.5254
2.43404
2.41064
2.35237
2.65425
2.81534
2.62931
2.73717
45.4177
45.5332
41.7178
44.4465
26.5673
13.1292
22.4037
0.464022
3.76368
0.31232
131.335
307.262
291.556
683.636
414.009
685.596
615.757
644.712
683.403
527.651
164.62
673.875
603.167
48.3328
159.549
44.0145
50.5854
36.0327
81.9088
79.0206
50.8051
143.674
2867.72
2857.4
2864.48
2869.65
2859.92
2847.69
2800.87
2849.59
2871.88
4.17445
3.37573
7.54124
103.177
37.4414
1.70793
1.91437
2.36739
1.02737
0.0607504
-1.23527
2.23421
2828.21
2883.94
2853.97
2820.7
2820.02
2821.64
2824.66
2819.99
2809.84
2822.28
2801.26
2804.91
2811.72
2815.36
2817.94
2821.29
2852.05
2820.57
2830.25
2804.12
2818.64
2819.96
2818.88
2820.15
2821.2
2823.73
2820.04
2821.94
2819.35
2815.31
2811.31
2806.21
2800.02
2791.33
2817.28
2825.51
2814.63
2844.03
2810.41
2786.62
2813.61
1754.95
675.089
2839.29
2901.9
2872.56
2705.37
2709.23
1772.77
1812.82
1683.74
1828.66
556.649
886.174
1741.25
1622.17
601.635
2297.3
2679.67
2446.11
2397.53
2438.26
2584.53
2618.32
2579.12
2515.04
2431.31
2490.72
2456.56
2607.23
2640.72
2107.61
1389.1
1874.82
876.847
198.659
154.714
595.317
0.586239
0.356668
0.654093
15.6487
16.2299
15.6672
13.9056
14.0968
14.5621
13.9371
0.508736
0.630428
0.524997
8.00185
7.98778
8.0135
15.6896
15.5486
16.0151
6.04441
14.5542
20.9119
0.491987
0.391836
0.611751
0.407557
3.82158
3.92211
4.08912
8.01165
8.00049
8.20987
8.17833
-1.99701
-1.08968
-1.48694
-0.274089
14.9924
15.2577
15.3451
15.6917
5.19626
6.07721
6.75977
7.3324
8.67698
11.7452
18.0736
17.0398
15.2409
11.1594
17.3871
15.6784
17.883
17.4911
-1.82356
-2.28121
26.5024
8.55745
7.26832
2.13587
3.57801
-0.919998
-0.335622
-2.46144
9.00137
5.78061
4.03322
3.42411
3.68396
8.31463
14.5428
14.7812
13.9885
13.8585
14.7386
14.3076
14.6635
14.0466
9.57585
10.3108
9.21412
9.53283
38.6396
35.6373
44.4379
37.6474
-4.39461
-3.57163
-3.47553
102.422
83.3501
266.061
111.489
69.7989
-8.73167
7.90605
14.7989
9.37566
7.46513
6.86414
6.6556
1715
1724
390.868
10.619
17.1445
383.944
749.248
593.697
594.265
458.992
392.18
377.979
458.517
3.13115
2.91726
0.516189
0.390472
13.6952
3.26431
3023.88
2861.91
3138.02
2872.52
656.484
827.568
573.179
828.816
-7.94436
-6.34535
-9.1019
-7.15244
339.694
168.208
79.3321
46.4882
-0.218319
-0.252037
-0.31365
-0.246932
11.0468
11.3151
2.38618
2.28194
2.44782
2.33871
109.108
5.48421
61.7169
6.20172
-9.42474
-10.9687
-10.279
-12.2886
22.117
24.7371
2854.16
2860.87
-2.89445
-2.99543
-2.59422
-2.71867
14.7214
38.1684
44.1801
204.468
190.294
66.1215
263.367
212.509
13.0639
13.1488
-0.0452102
-0.0515764
-0.0282555
-0.0565519
765.198
751.766
797.354
798.02
-1.8762
-2.24779
18.5714
5.28133
2.90449
6.2659
817.339
645.675
856.828
612.883
1855.71
1478.5
2569.47
696.455
555.893
866.675
597.689
41.4811
12.1962
78.9868
378.392
117.609
44.5748
131.308
79.9136
68.3465
402.672
298.679
380.817
298.526
-0.317292
-0.278749
1473.02
1012.19
1107.73
722.598
80.1062
370.761
1.62547
0.0957393
6.98056
-2.30871
-1.53871
-2.40976
2373.74
2378.51
7.19312
5.82289
6.28999
5.7317
4.72672
4.56507
4.68244
4.92457
15.6148
26.7033
11.3293
27.3247
0.887639
0.414225
1.35797
0.488538
53.0466
34.2233
244.856
44.3133
288.867
812.419
-24.5515
-28.3836
13.3484
12.771
954.287
757.555
7.28989
9.42425
7.78509
8.6762
665.159
961.269
7.72855
63.5139
2296.31
2701.97
1.15795
1.45631
1.3373
2.18325
686.866
683.779
654.687
265.29
3.39038
2.60338
3.24471
0.944146
2.34638
0.572194
9.38441
9.47962
2853.26
2855.27
2865.29
2853
6.65587
6.60801
7.00136
6.82466
375.53
174.306
668.597
310.046
-4.36447
-1.53498
-4.98813
-5.27153
670.55
1009.43
10.0325
8.68907
14.4367
13.4365
14.4708
14.2145
840.692
791.722
654.519
722.47
6.72325
6.62924
6.92642
6.89304
2173.22
2422.39
79.0594
67.6332
15.9694
10.4639
-140.036
-138.757
2824.53
1248.99
524.341
1508.67
540.972
1567.12
1505.77
1164.88
1515.95
3.70761
3.9092
17.1296
18.151
7.91693
7.91263
11.38
11.1021
11.527
10.9094
-6.69171
-7.951
-161.348
-160.583
-161.972
-161.958
2392.84
2482.47
2860.53
40.9316
20.3962
19.0189
14.2843
19.1743
23.783
16.791
17.2247
6.80389
6.80509
6.68698
7.00745
13.7319
14.67
7.25034
7.11082
7.24208
6.90245
10.9035
11.0137
10.7061
11.0326
9.29749
9.67131
21.2808
15.354
1.32829
1.42812
6.67768
1.17773
3.217
2.77972
12.3184
12.604
30.9941
25.0877
42.8851
43.3706
42.9432
42.6881
312.939
61.7543
452.691
392.593
4.56247
7.27922
4.10808
4.37051
-0.10398
-0.0864682
-0.0966904
-0.0821452
6.87787
6.92095
7.13526
6.9946
14.3555
14.6497
16.8062
18.1077
0.559498
0.493813
0.451433
0.285574
0.321883
0.451391
0.333976
0.417008
1.24106
1.28171
1.26106
1.41528
1.26059
1.25501
1.32315
1.20114
5.15375
9.24987
8.45284
-172.445
-170.529
-173.019
-170.609
662.202
1405.81
2228.51
2191.97
62.1417
317.457
400.265
416.744
5.02706
8.75792
-8.99869
-2.89433
-172.67
-173.741
-172.648
-174.203
541.506
607.754
777.964
649.205
2219.63
2218.92
63.1708
38.3965
107.865
172.968
1266.57
1270.44
599.243
1362.86
9.00859
8.90177
9.52593
9.38423
2028.75
2091.33
2108.96
2140.76
2830.43
2860.9
-138.834
-136.709
122.728
145.692
1272.81
1648.13
-9.84203
-30.8291
22.9226
51.8147
-169.074
-168.48
15.4105
14.45
14.663
14.2647
2875.77
2887.17
17.0624
17.195
17.1173
16.8885
12.5089
12.5772
-0.110623
-0.111772
-160.318
-166.352
18.7501
11.5428
10.8353
30.0664
32.5935
-17.6179
-20.9567
-5.86549
-6.15649
34.4026
47.2421
12.916
13.0718
12.7309
12.7121
20.9919
17.2024
15.3263
14.7623
18.9206
27.9189
14.893
16.9688
14.296
15.638
-0.0936562
0.045038
1.04939
0.848522
2.40902
4.73031
2.05212
2.88576
9.43034
12.3758
11.7637
11.8751
11.6455
11.8339
168.803
556.876
-147.065
-149.274
-138.121
-141.918
0.850903
-0.0858099
59.1586
217.981
46.6059
55.2493
39.8779
49.233
36.6558
39.3499
-10.7417
-9.46466
0.707195
0.742186
119.403
142.695
173.305
192.32
0.266818
0.208683
0.444392
0.268622
-0.75013
0.711398
-0.261704
-0.275729
0.0479274
0.621157
0.0587083
1.54109
1.30709
1.29533
2195.48
1944.48
2279.6
1047.13
788.005
644.426
799.472
803.316
11.0151
10.948
-19.2103
-21.2626
-18.141
-19.9361
10.9841
11.6225
11.8528
11.9198
307.045
269.001
100.16
29.784
295.8
300.077
2.00218
0.894321
-23.3702
-24.9305
-25.4774
-26.6375
-0.0292757
0.0246302
-14.2634
-14.2425
-14.6334
-14.8208
10.9164
11.0253
2.33869
2.51315
808.535
1317.32
1182.72
1289.48
-0.661274
-0.652394
2859.62
2854.06
2854.62
2866.93
9.69367
304.245
274.275
71.8174
815.531
42.6992
9.95046
9.7616
9.41458
9.40746
-58.8376
-56.8142
-106.764
-118.577
39.6356
40.6499
41.1389
37.7761
1287.15
1308.18
-0.30158
-0.0469784
2.39968
5.04057
-159.322
-152.612
-160.301
-157.241
-152.851
-161.349
-162.272
-166.133
0.136793
0.509244
5.55682
9.02792
1.13702
1.54618
19.8305
36.6624
148.031
1.69077
1.20333
30.5695
23.4857
15.4699
21.4146
1.57801
1.5757
22.6965
22.2789
23.5176
21.5678
89.6254
195.329
51.1788
128.652
2773.17
2785.2
-0.373555
-0.413926
8.89661
9.59085
12.6093
11.2345
11.6988
10.8276
302.978
58.5583
5.24896
5.09801
10.4953
14.1735
2.02317
1.24094
-0.149472
-0.613654
-0.565715
-0.741696
-0.690843
-0.102433
155.006
117.666
2.12279
1.35064
2.79727
3.0154
4.74242
4.59788
2845.09
2841.1
27.2313
16.6855
78.005
46.6437
4.98324
4.96793
1055.54
1814.6
-1.27651
-1.11712
-1.08515
0.809353
34.036
64.0751
942.259
1001.72
1070.34
1102.56
8.66707
8.55337
491.666
1128.45
878.758
485.357
412.393
419.069
0.0647344
0.314342
-0.331312
-0.298486
564.495
587.298
2.61024
1.27542
0.8906
1.45388
1379.39
1900.57
7.02502
7.1484
2800.44
-123.446
-133.067
-126.379
2.72234
1.8461
12.9982
13.0552
-31.7426
-30.2279
3.31331
3.20206
10.0955
9.83799
9.79854
3.31264
3.20258
5.78221
1.51285
2.57024
3.60731
5.9466
5.54323
201.317
127.826
1461.03
1366.69
1234.07
680.023
7.48807
7.32902
54.6893
22.4799
14.4597
13.1579
14.1833
12.9601
-0.821133
-0.786052
-0.370034
-0.652966
11.635
11.6802
17.7124
17.1477
0.42894
0.488939
17.2223
22.604
1860.05
2145.22
1701.65
2126.58
71.5198
116.223
10.2847
9.84634
34.7597
32.8529
18.2931
18.3444
44.7191
37.7035
10.3207
9.90969
67.0514
128.931
11.6624
11.6016
-144.679
-140.741
632.981
990.063
0.0934612
-1.83648
66.2373
118.924
-4.45376
-6.31799
-21.4429
-22.0444
-20.1206
-22.2294
2.04367
1.78595
-19.9351
-18.4934
-15.5427
-12.9399
11.054
13.9277
12.452
12.4206
6.79488
7.25298
470.035
519.2
87.5864
61.5273
-0.122234
-0.134153
25.6604
40.6578
6.43613
6.29193
6.43315
6.29138
0.792002
0.652597
0.725693
0.65636
274.244
225.71
459.583
318.805
64.9227
63.922
597.532
763.745
613.325
681.391
8.33056
8.43329
12.1778
12.1894
2.1001
2.15889
1.91808
2.04321
1.39162
1.31881
395.185
1055.09
424.989
387.127
527.288
665.221
18.8658
25.9765
30.5592
33.9172
-12.3701
-11.5428
3.2372
4.04004
8.45504
8.47746
286.205
241.654
5.03636
1.26692
15.2756
17.0276
-0.7211
-0.646359
126.18
22.5891
12.7286
23.0589
53.69
63.7818
9.41565
9.13013
160.691
66.5662
69.6564
65.7895
567.344
232.275
1.24533
4.98574
80.8652
38.0207
34.3344
58.274
25.9195
34.5339
4.54485
4.48923
12.4506
11.0181
5.87851
5.97318
338.568
370.979
26.7884
51.3806
36.8533
41.7022
807.185
724.7
2415.98
2426.83
26.1858
8.98008
4.82498
6.53678
14.9004
10.4403
183.559
70.8266
396.656
238.15
2182.72
2460.01
62.3127
26.2361
9.33863
9.09355
6.90056
6.71819
0.268803
-0.463387
2.54704
3.71052
12.396
11.7652
0.36671
-8.57019
-14.867
-11.9638
2834.61
2853.69
2886.81
2872.9
2871.15
46.791
27.1492
1.21854
0.323002
0.346998
1.14512
4.70267
9.66319
16.5577
15.2936
0.864245
0.630389
409.038
418.872
0.647204
0.714526
0.667236
0.599544
76.0811
27.4239
3.61399
5.89652
2.82303
3.54614
2.25633
9.4958
-149.058
-160.476
51.3047
30.9313
-143.146
-161.585
3.13471
1.75156
11.4471
3.79758
31.4456
43.2408
3.15862
3.57103
9.51887
10.0202
10.5982
0.67941
0.92224
0.662388
0.817362
-0.138629
-0.152234
48.3871
46.9687
4.78128
4.58343
7.15234
7.13464
7.00095
7.05092
10.3083
10.1843
135.378
156.651
11.0656
10.9393
-20.3334
632.449
-152.315
-153.4
102.705
120.705
-116.372
-114.734
-0.0582281
-0.0991931
1.45726
2.6976
6.1888
5.78493
539.893
143.237
327.736
128.269
50.8214
29.9106
4.29826
4.15195
-92.8502
-31.8325
1.93345
468.566
47.31
35.3557
1.57256
1.02876
14.0682
14.0605
830.702
762.506
782.789
825.516
0.997523
2.3622
46.1207
108.752
1.38635
1.6143
888.11
842.621
681.461
673.565
12.1128
12.1298
-171.204
-171.563
16.4057
15.4325
2014
2116.82
7.94628
7.39579
1.52133
2.59831
12.1219
12.1867
-2.30847
4.30842
140.801
40.2943
1138.34
1171.96
26.0831
16.3622
9.26809
5.14896
5.58558
10.8751
2141.09
2015.63
9.67808
13.6593
30.7743
32.5995
281.509
198.983
414.977
689.651
1219.92
1375.09
-158.015
-158.744
28.3388
22.2849
35.1016
43.3897
322.554
235.025
230.851
121.67
3.91071
3.9056
9.19083
13.718
-102.439
-93.4556
-15.6597
10.2819
8.79375
9.45006
14.081
13.4306
0.978581
0.936098
19.7447
19.9054
15.9171
-10.2575
-0.0423851
-0.0536335
6.631
6.71901
32.3013
65.5814
44.2592
3.03453