/*--------------------------------*- C++ -*----------------------------------*\
| =========                 |                                                 |
| \\      /  F ield         | OpenFOAM: The Open Source CFD Toolbox           |
|  \\    /   O peration     | Version:  v2012                                 |
|   \\  /    A nd           | Website:  www.openfoam.com                      |
|    \\/     M anipulation  |                                                 |
\*---------------------------------------------------------------------------*/
FoamFile
{
    version     2.0;
    format      ascii;
    class       volVectorField;
    location    "0.45";
    object      U;
}
// * * * * * * * * * * * * * * * * * * * * * * * * * * * * * * * * * * * * * //

dimensions      [0 1 -1 0 0 0 0];


internalField   nonuniform List<vector> 
24700
(
(0.0185313 -1.74931 0.0188443)
(-0.00736586 -1.69576 0.0105183)
(-0.00541006 -1.64324 0.0019131)
(0.073306 -1.44466 -0.0172258)
(0.032444 -1.55924 -0.0384204)
(0.0803364 -1.51169 -0.0564062)
(0.0577789 -1.56319 -0.0484535)
(-0.0104776 -1.48949 0.00478734)
(0.0813586 -0.896388 -0.0189481)
(0.0259081 -1.39621 -0.0230765)
(-0.00256239 -1.46786 -0.0218369)
(-0.00359434 -1.49904 0.00449276)
(-1.28994e-05 -1.48517 -0.0208356)
(0.00420117 -1.47102 -0.0191021)
(0.00591167 -1.48447 0.0035819)
(-0.0016616 -1.49527 0.000635733)
(-0.00222755 -1.48958 -0.0163761)
(-0.00479121 -1.57166 0.0188926)
(0.0328027 -1.54431 0.0214413)
(0.00197569 -1.67528 0.0971439)
(0.0437724 -1.45254 0.00387672)
(0.0086 -1.49803 -0.000374762)
(0.0255305 -1.44651 0.00827343)
(0.0043417 -1.57701 0.0539374)
(0.0521219 -1.43847 -0.00207238)
(0.00758143 -1.51528 -0.00546278)
(0.0465195 -1.20986 -0.00205112)
(-0.0112291 -1.50215 0.0105054)
(-0.0269934 -1.50472 -0.0305886)
(0.00295876 1.22973 -1.71119)
(0.112729 1.02302 -1.26275)
(0.114851 1.0655 -1.55274)
(-0.22832 1.41473 -1.44971)
(-0.164626 1.08144 -0.682077)
(0.735777 -0.189248 -1.41564)
(0.0241495 1.45361 -1.35485)
(0.0299304 -0.531021 0.0938798)
(0.0327771 -0.652307 0.105498)
(0.000573399 -0.378175 0.0457374)
(-0.00924402 -0.429372 0.0627724)
(-0.0122781 -0.304709 0.0796105)
(0.0067549 -0.59534 0.0934597)
(-0.00941555 -0.423469 0.107143)
(0.0145909 0.566372 0.138871)
(0.0374214 0.318888 0.349216)
(0.0175861 0.382229 0.165891)
(-0.0300805 0.581225 0.282614)
(-0.0620667 0.518537 0.416315)
(-0.00445222 0.394269 0.405148)
(0.0033524 0.460553 0.272783)
(-0.0397449 0.310656 1.11579)
(-0.00101564 0.17382 1.54003)
(-0.0496064 0.479244 0.689512)
(-0.0133294 0.492108 1.52095)
(-0.0590486 0.665473 1.3218)
(0.042391 0.526691 1.25519)
(0.0575001 0.603568 0.948919)
(0.127307 0.750628 0.758033)
(0.0195499 0.66797 2.76525)
(0.083992 0.0984555 -0.509736)
(0.587962 0.282467 -1.31755)
(-0.485881 0.0163592 -0.173053)
(0.330251 -0.352462 -1.26498)
(-0.292608 -0.340822 -0.527264)
(0.0251875 -0.271522 0.816048)
(-0.0773176 -0.217091 0.953378)
(-0.0313088 -0.246111 0.873336)
(0.0719223 -0.193931 0.61224)
(0.0321186 -0.193792 0.790006)
(-0.0460412 -0.156246 0.923955)
(0.028012 -0.168754 0.770737)
(-0.0442226 -0.135545 -0.0924063)
(0.0148954 -0.189869 -0.208955)
(0.0492928 -0.185269 -0.0518652)
(-0.0635548 -0.160847 -0.170643)
(0.0127367 -0.292303 -0.0920516)
(0.0637473 -0.345873 -0.101173)
(-0.0746636 -0.141184 -0.154461)
(-0.0174173 -1.42333 -0.0755031)
(-0.0264834 -1.0696 0.0168325)
(-0.02725 -1.48786 -0.0638256)
(-0.0793455 -1.56041 -0.0312406)
(0.0873987 -1.31118 -0.1297)
(-0.0468677 -1.50446 -0.123081)
(-0.0565546 -1.52356 -0.0922708)
(0.013458 -0.220148 -0.082739)
(0.0560407 -0.340238 -0.0262131)
(-0.0122671 -0.47503 0.0153505)
(-0.0826797 -0.320002 -0.130113)
(0.0138867 -0.338963 -0.0397008)
(-0.00713575 -0.372708 -0.0458754)
(-0.0828363 -0.476595 -0.0280924)
(0.0628355 0.677318 0.624201)
(0.0979653 0.461049 0.40832)
(0.0318498 0.845947 0.56099)
(-0.0753628 0.677501 0.308437)
(-0.101304 0.822742 0.558385)
(0.0176693 0.362386 0.198251)
(-0.00946028 0.650615 0.540966)
(-0.0149249 -0.155215 -0.471424)
(0.0511923 -0.019836 -0.634539)
(0.0036109 -0.180928 -0.536558)
(-0.00963547 -0.0591392 -0.585475)
(-0.0477246 0.0387853 -0.596459)
(0.0128375 0.0345152 -0.646492)
(-0.023043 -0.0919249 -0.637089)
(0.268339 -0.395869 0.170233)
(0.030214 -0.195218 0.149825)
(-0.0511759 -0.506457 0.705603)
(-0.0688431 -0.164355 0.307875)
(-0.108652 -0.302185 0.351121)
(-0.0674564 0.0358428 -0.100571)
(0.209845 -0.169619 -0.0857315)
(-0.0192056 0.866163 -0.0750343)
(-0.0280231 1.01832 0.0315812)
(0.00437489 1.06142 0.0945988)
(-0.00354281 0.902852 0.0730075)
(0.0246155 0.841708 0.00983957)
(0.0201042 0.77244 -0.00438607)
(-0.0190181 0.864978 0.0604521)
(0.0830347 0.753908 0.00356469)
(0.0616962 0.967993 0.078881)
(0.00278205 1.02133 0.0557975)
(-0.214938 1.09868 1.06058)
(-0.0169536 0.625643 1.14178)
(0.0708148 0.58362 0.934839)
(0.0426476 0.813361 0.685599)
(-0.000102421 1.05503 0.551613)
(-0.0391127 0.784874 1.00537)
(-0.0852157 1.07877 0.773218)
(0.00876443 0.687768 1.12619)
(-0.0154533 0.865351 1.29723)
(-0.0747679 0.552554 1.69523)
(0.60845 -0.849658 1.24688)
(0.00540544 0.856034 1.3288)
(0.0138431 0.760467 -0.00119692)
(-0.00611903 0.644781 0.0370262)
(-0.02064 0.683548 0.021174)
(0.0044003 0.675724 -0.0275764)
(0.0445113 0.737975 -0.0576305)
(0.0521265 0.810117 -0.0284006)
(-0.000977263 0.7409 0.00858693)
(0.00627181 0.163574 -0.51768)
(-0.0191951 0.17234 -0.395904)
(0.0275742 0.334125 -0.248069)
(0.0233373 0.504025 -0.0887405)
(0.029707 0.317981 -0.341814)
(0.0100139 0.319357 -0.3409)
(0.120427 0.554413 -0.0937351)
(0.00331312 0.343117 0.144848)
(-0.0577685 0.246654 0.316393)
(-0.012185 0.515435 0.161431)
(0.0403344 0.415742 0.37092)
(0.0266152 0.503714 0.262477)
(-0.0360063 0.315371 0.368443)
(-0.0165448 0.397555 0.238284)
(0.041286 -0.690368 0.583773)
(-0.0585916 -0.618521 0.563989)
(-0.0189472 -0.542412 0.964679)
(0.0903641 -0.557924 0.247835)
(-0.022079 -0.517202 0.513865)
(-0.0155172 -0.593757 0.341615)
(0.103875 -0.752984 0.10731)
(-0.0109251 -0.616619 0.278242)
(0.0547686 -0.572762 0.555345)
(-0.0385484 -0.578286 0.448333)
(-0.00381723 -0.760186 0.40999)
(0.0720028 -0.861736 0.568583)
(0.0216338 -0.575577 0.657547)
(-0.0388527 -0.580672 0.563794)
(-0.00774404 -0.990392 0.548683)
(-0.0301218 -1.03576 0.684322)
(0.013355 -1.1828 0.706599)
(-0.00562837 -1.19793 0.741339)
(-0.0491719 -1.09812 0.652457)
(-0.0686121 -1.07146 0.778528)
(-0.0125445 -1.30587 0.862248)
(0.072176 -0.936215 -1.09351)
(-0.0937459 -1.19466 -1.28812)
(-0.0147392 -0.548506 -1.70952)
(-0.169511 -0.731642 -1.5899)
(0.0586219 -0.526712 -1.53285)
(-0.101946 -1.04557 -1.34392)
(0.184774 -0.735005 -1.09822)
(-0.00410962 -1.91718 0.622829)
(0.00295234 -1.69775 0.881351)
(0.0262274 -1.2893 0.183078)
(-0.0986583 -1.75659 0.684792)
(-0.0192356 -1.68418 0.409457)
(-0.0433306 -1.88594 0.987109)
(-0.026727 -2.03404 0.704557)
(0.00981033 1.82819 -1.31515)
(0.0573804 1.62531 -0.978216)
(-0.00228563 1.66517 -1.05518)
(0.0683614 1.68666 -1.30768)
(0.00597359 2.06052 -1.79748)
(0.0604537 1.65863 -1.2225)
(0.0501148 2.05149 -1.76985)
(-0.07168 -0.416074 0.504396)
(-0.0133672 -0.633077 0.399663)
(0.0298291 -0.572863 0.644119)
(0.107417 -0.61523 0.410435)
(0.0273024 -0.586129 0.311164)
(-0.0259043 -0.397852 0.423235)
(0.106539 -0.572288 0.654999)
(7.16198e-05 -1.99306 0.0164861)
(-0.00643925 -1.9865 0.0438214)
(0.0108305 -1.99627 -0.00462434)
(0.00443408 -1.97511 0.0317294)
(0.00392915 -1.96005 0.00515076)
(0.00891031 -1.976 -0.0030062)
(0.00262675 -1.97939 0.0175343)
(-0.00348008 1.13432 0.260459)
(-0.0148717 1.18232 0.208637)
(-0.0149515 1.16662 0.169689)
(-0.0278318 0.951278 0.261973)
(0.0309754 1.05126 0.342248)
(0.0113067 1.07877 0.321726)
(-0.0560007 1.0428 0.233224)
(-0.0521262 -0.112722 -0.201578)
(-0.00890513 -7.35477e-05 -0.260766)
(0.0119973 -0.11246 -0.224008)
(0.0307563 -0.0490984 -0.132115)
(0.0328132 -0.0344669 -0.159721)
(0.0749147 -0.145728 -0.113802)
(0.00544783 -0.138227 -0.159922)
(-0.0812903 -0.158734 0.410925)
(-0.0434742 -0.233396 0.411674)
(0.0130072 -0.197937 0.461537)
(0.0575717 -0.201852 0.44523)
(0.0452138 -0.165226 0.448532)
(-0.0356805 -0.232235 0.432614)
(-0.0517894 -0.180943 0.457892)
(-0.0217002 -0.541756 0.545171)
(0.0597803 -0.784275 1.00541)
(0.034925 -0.779888 0.999347)
(-0.0546543 -0.376091 0.621273)
(-0.0366262 -0.401012 0.607117)
(-0.0188123 -0.530519 0.785864)
(-0.0679713 -0.568511 0.712743)
(0.0163155 2.22501 0.743544)
(-0.0878452 2.58758 0.865976)
(0.0530894 2.59796 0.795153)
(0.10099 2.19627 0.695484)
(0.0785312 2.21446 0.712705)
(0.0958917 2.44916 0.784269)
(0.162635 2.48636 0.772251)
(-0.189778 2.48912 -0.373662)
(-0.708841 2.05125 -0.15794)
(0.0739322 2.26283 0.0921688)
(0.0383029 2.78437 0.0994265)
(0.0646032 2.49797 0.265431)
(0.518653 2.18692 0.231284)
(0.0287447 -0.0142291 -2.09041)
(0.137826 0.00973241 -3.15322)
(0.244578 0.1414 -3.35463)
(-0.044322 -0.136853 -3.45187)
(-0.0368274 -0.0243995 -3.06263)
(0.0583733 0.0264262 -3.28263)
(-0.140496 -0.579619 -2.08904)
(-0.135145 -0.321322 -2.21551)
(0.0369766 -0.137335 -1.83811)
(0.121187 -1.06182 -1.90354)
(0.0515156 -0.842376 -2.2121)
(-0.0119619 -0.81195 -2.34573)
(0.0143663 -0.903604 -1.97318)
(0.0144361 -0.95551 -2.42783)
(0.053447 -1.08853 -2.22765)
(0.00290039 -0.786618 -2.52904)
(-0.00582035 -1.09599 -2.32502)
(-0.0207963 -0.900955 -2.43118)
(-0.011049 -1.12313 -2.41148)
(-0.0468484 -0.999855 -2.55953)
(0.140809 -1.06402 -2.11424)
(0.00024037 -1.02823 -2.03219)
(-0.0917678 -1.1817 -2.038)
(0.0774981 -1.20363 -2.02626)
(-0.0193982 -1.1912 -2.03042)
(0.0838029 -1.30378 -2.04377)
(0.178995 -1.20552 -2.06953)
(-0.028628 -0.625471 -2.44295)
(0.0890329 -0.276295 -2.39763)
(0.0279024 -0.35636 -2.37326)
(0.108596 -0.595784 -1.64153)
(0.0316244 -0.577227 -2.20481)
(0.0671485 -0.280076 -2.1387)
(0.0793077 -0.33401 -1.93688)
(-0.0661813 -0.83489 -0.358195)
(-0.000719396 -0.853748 -0.401363)
(-0.00709429 -0.942732 -0.534184)
(0.0469882 -0.905531 -0.286109)
(0.0809709 -1.02938 -0.311)
(0.0462489 -1.05023 -0.258882)
(-0.0447743 -0.914018 -0.244552)
(0.0026908 -1.30477 0.0831344)
(-0.00163739 -1.2203 0.0387798)
(-0.0644077 -1.13202 -0.00838597)
(-0.00771781 -1.33436 0.132355)
(0.00478724 -1.24836 0.163247)
(-0.0208542 -1.25385 0.152928)
(0.0131034 -1.35714 0.10049)
(-0.0474747 -0.816877 0.412566)
(-0.019089 -0.903429 0.400648)
(-0.106412 -0.807445 0.375465)
(0.0821007 -0.890299 0.334713)
(-0.101324 -0.84017 0.195099)
(-0.32388 -0.819293 0.171261)
(-0.187056 -0.879406 0.322491)
(-0.0619239 -1.35066 0.359452)
(-0.139449 -1.1515 0.204657)
(0.0188834 -1.38613 0.103613)
(0.112202 -1.98383 0.0145514)
(0.0573352 -1.86565 0.0438346)
(-0.0472238 -1.60536 0.0595124)
(0.0505483 -1.78688 0.0436966)
(-0.00539124 -0.294931 -0.013147)
(-0.0637792 -0.328214 -0.0478352)
(-5.96191e-05 -0.268757 0.0505396)
(0.00350486 -0.237567 -0.00768615)
(0.00905918 -0.259182 -0.00526654)
(-0.0565339 -0.293332 -0.0229755)
(-0.015199 -0.275549 -0.0108762)
(0.101512 -0.488191 -0.00483007)
(-0.0157317 -0.661667 -0.381379)
(-0.00816432 -0.672117 -0.570796)
(-0.0600614 -0.696212 -0.465342)
(0.010954 -0.586256 -0.222785)
(-0.0284932 -0.645333 -0.321253)
(0.0462211 -0.464876 0.115261)
(0.00759461 0.228428 -0.234767)
(0.0465501 0.12828 -0.409448)
(-0.00750717 0.163212 -0.119275)
(-0.00153758 -0.0167653 -0.206388)
(0.0231954 0.129398 -0.0363558)
(0.081648 0.0374469 -0.40032)
(0.0604198 0.16331 -0.133805)
(-0.000664574 1.09762 -0.614383)
(0.0103612 1.08178 -0.592003)
(-0.00722792 1.11854 -0.596206)
(0.00974959 1.07828 -0.623343)
(0.0122375 1.10151 -0.635514)
(0.014521 1.07416 -0.61559)
(-0.00226261 1.08225 -0.634243)
(-0.0421033 1.08853 -0.287963)
(-0.00400453 1.14458 -0.436248)
(-0.0100521 1.06964 -0.31916)
(0.0081275 1.14606 -0.464211)
(-0.00219167 1.18531 -0.412424)
(-0.0329674 1.09028 -0.382549)
(-0.05083 1.15437 -0.335585)
(-0.00922829 0.87382 -0.235246)
(-0.0156114 0.99536 -0.26568)
(-0.0143191 0.962846 -0.320656)
(0.0114239 0.87548 -0.305581)
(-0.0204003 0.664092 -0.174632)
(0.00979242 0.862563 -0.301631)
(-0.0111236 0.715578 -0.239737)
(0.120847 0.554582 -0.041291)
(-0.0483212 0.617648 -0.158589)
(0.0755387 0.6714 -0.442383)
(-0.186085 0.753444 -0.371251)
(0.0595905 0.793716 -0.239582)
(-0.173348 0.72916 -0.0753465)
(0.0830429 0.730918 -0.0156748)
(0.111796 0.776471 -0.0474467)
(0.0106104 0.802762 0.225046)
(-0.034894 0.651743 -0.0167768)
(-0.0202228 0.567014 -0.175428)
(-0.0699482 0.495843 -0.138852)
(-0.168088 0.372027 -0.229693)
(-0.0188355 0.575913 -0.104927)
(-0.0469883 0.139901 0.0435624)
(0.0119028 0.179989 0.141249)
(-0.00484591 0.176469 -0.031397)
(0.049468 0.29556 0.00156178)
(-0.0116709 0.171481 0.104882)
(-0.0579687 0.08898 0.0266754)
(-0.0175276 0.261275 -0.0221346)
(0.00940689 0.472156 0.0210526)
(0.0338708 0.322742 0.0509098)
(-0.00982423 0.295485 0.0143382)
(0.0301482 0.564949 0.0687486)
(-0.00756855 0.509603 0.0170549)
(0.0315584 0.49786 0.088814)
(-0.00168091 0.414901 0.04554)
(-0.0199802 0.369122 -0.313688)
(-0.0505847 0.13903 -0.264696)
(0.0654345 0.200424 -0.192673)
(0.0365604 0.284063 -0.207546)
(-0.0629771 0.247818 -0.258296)
(-0.0993345 0.266313 -0.234684)
(0.000839253 0.261319 -0.21181)
(-0.0234726 0.327187 -0.202828)
(-0.0776943 -0.0654761 -0.504959)
(0.0482072 -0.0103544 -0.296107)
(0.0737833 0.206153 -0.367861)
(-0.00573822 0.0944928 -0.516872)
(-0.0397865 0.115138 -0.496804)
(0.0822868 0.116257 -0.411149)
(-0.00534221 0.124949 0.410711)
(0.0553953 0.0633379 0.40883)
(0.0265975 -0.0262844 0.424433)
(-0.0235593 -0.143677 0.509786)
(0.0048896 -0.0243513 0.479406)
(0.0642727 -0.0384128 0.471032)
(0.0183836 -0.105528 0.468735)
(-0.00561842 -1.88171 0.0371891)
(0.00275557 -1.92187 0.0448907)
(0.00981841 -1.95937 0.0623149)
(-0.00414441 -1.848 0.0193316)
(-0.00181685 -1.84757 0.00326291)
(0.00210188 -1.87749 0.0217417)
(0.00612849 -1.90185 0.0489494)
(-0.0602152 0.281791 0.184805)
(0.0456168 0.382163 0.232855)
(-0.00257178 0.353373 0.272587)
(0.0216071 0.361242 0.294788)
(0.0968691 0.344346 0.402855)
(0.175605 0.341798 0.461834)
(0.0694651 0.299424 0.300293)
(0.0214233 -0.235705 0.777135)
(-0.00509245 -0.205797 0.844294)
(0.00806539 -0.265266 0.73341)
(-0.031201 -0.17953 0.768076)
(0.0250476 -0.193885 0.816961)
(0.0218207 -0.227401 0.686728)
(0.0416863 -0.226501 0.755986)
(0.0401939 1.85659 0.481681)
(-0.0469999 1.86708 0.398933)
(0.00765807 1.69644 0.46591)
(-0.13979 1.89895 0.224918)
(-0.0680325 1.80232 0.306015)
(-0.160455 1.89956 0.272449)
(-0.0426605 1.83578 0.360327)
(-0.0277548 1.89428 0.125788)
(-0.00663898 1.61196 0.249908)
(-0.0409484 1.82043 0.153434)
(-0.0498874 2.28936 -0.064385)
(-0.0392926 1.91869 0.156328)
(0.0532253 2.20189 0.0508992)
(-0.0117679 2.12717 0.136143)
(-0.0278705 2.01156 0.118977)
(0.0318722 2.12123 0.0539176)
(-0.140758 1.57276 0.00572666)
(-0.0821389 1.88124 0.110398)
(-0.0370964 2.10026 0.101825)
(-0.0279001 2.34342 0.0657206)
(0.0436846 2.38235 0.0525969)
(0.0849308 2.33723 -0.0629418)
(-0.0249729 2.43455 0.0110383)
(-0.0346705 2.37477 0.0964116)
(0.0254034 2.41101 0.0747667)
(0.0588109 2.47387 -0.0371875)
(0.00493582 2.07435 0.0180478)
(0.0987591 2.25665 -0.0253188)
(-0.0770024 1.50854 0.0161935)
(0.0030865 2.19476 0.0301028)
(-0.00690726 2.22644 0.00162125)
(0.18273 1.14952 -0.844725)
(0.111907 1.14976 -1.06954)
(0.0877053 1.62884 -0.254255)
(-0.205231 1.45048 -0.925911)
(-0.123113 1.58303 -0.502912)
(-0.184537 1.08272 -1.01312)
(-0.0530583 1.17174 -0.798186)
(-0.0258209 -1.31275 -0.352024)
(0.0281233 -1.20885 -0.529005)
(0.028044 -1.13938 -0.257818)
(-0.0192326 -1.07748 0.000911638)
(-0.0529411 -1.06535 -0.254354)
(-0.0225291 -1.06479 -0.180814)
(0.0172088 -1.08671 -0.0234702)
(-0.0138343 1.45288 -0.793766)
(-0.169421 1.23122 -0.851275)
(-0.0572644 1.31222 -0.841014)
(0.0149816 1.45917 -0.679918)
(-0.177286 1.40848 -0.58669)
(-0.361378 1.2903 -0.671467)
(-0.153577 1.33582 -0.732707)
(-0.0897738 1.5822 -0.332416)
(-0.113413 1.37899 -0.21913)
(-0.115013 1.56697 -0.311409)
(0.203435 1.11995 -0.432641)
(0.406404 0.62911 -0.447841)
(0.0302013 0.743709 -0.135647)
(-0.00533315 1.16943 -0.257874)
(-0.00130775 -0.185396 0.0262645)
(0.0485631 -0.144883 0.10031)
(0.0372784 -0.138014 0.22989)
(-0.0885926 -0.246899 0.14391)
(-0.0242986 -0.175422 0.0733089)
(-0.0314662 -0.21715 0.0257355)
(-0.0218864 -0.291678 0.130167)
(0.0935305 -0.463419 -0.0360795)
(0.0194464 -0.510442 -0.0597032)
(-0.00204102 -0.545692 -0.0400878)
(-0.193123 -0.558026 0.173366)
(-0.0444226 -0.510417 0.0674198)
(-0.158868 -0.550989 0.155225)
(0.0202291 -0.436171 0.0653115)
(-0.0327834 -0.0324031 -0.309806)
(-0.00283587 0.0107594 -0.304263)
(-0.0136642 -0.110623 -0.4244)
(0.0428169 -0.186259 -0.364314)
(0.118665 -0.200054 -0.131505)
(0.152228 -0.0945111 -0.126654)
(0.0204797 -0.16904 -0.384)
(-0.0353257 1.00316 -0.599438)
(-0.141999 1.13219 -0.444349)
(0.0023583 1.00931 -0.646713)
(0.0315631 1.02899 -0.404959)
(0.0468847 0.996605 -0.546055)
(-0.0635525 1.09229 -0.348634)
(0.0150655 1.00974 -0.496009)
(-0.134884 1.99764 0.0396297)
(0.0324648 2.2892 0.0406345)
(-0.194164 1.36422 0.0110624)
(-0.134126 2.03841 0.0728968)
(-0.221496 1.97991 0.0456796)
(-0.229757 2.15162 0.0996112)
(-0.109731 2.29909 0.0572419)
(-0.00648347 0.902275 -0.312133)
(0.00894989 1.022 -0.231823)
(-0.00819309 0.937319 -0.288716)
(0.00131975 1.03591 -0.276551)
(0.00769048 1.04878 -0.213525)
(-0.0232042 0.972676 -0.350573)
(-0.0083636 0.963928 -0.276486)
(-0.00297005 0.406034 -0.0868247)
(-0.00777035 0.407081 -0.0775621)
(0.000697952 0.416031 -0.103153)
(0.00356924 0.433079 -0.113281)
(0.00313401 0.425112 -0.115153)
(-0.00433695 0.428505 -0.0936485)
(-0.00145847 0.421092 -0.100659)
(-0.00607944 0.415273 -0.165268)
(-0.0135313 0.429876 -0.154539)
(0.000363891 0.403731 -0.188181)
(-0.00353708 0.422334 -0.199036)
(0.00807583 0.410958 -0.194737)
(-0.014881 0.429483 -0.172773)
(-0.00424239 0.419026 -0.17493)
(0.00301861 1.35886 0.591525)
(-0.00715413 1.13158 0.473275)
(-0.0303256 1.08166 0.528923)
(-0.0291695 1.32527 0.526579)
(0.00851125 1.39653 0.473765)
(-0.0491635 1.11194 0.472133)
(-0.0649864 1.12084 0.497353)
(0.0365862 0.0371811 0.54477)
(0.0322904 0.0982394 0.610991)
(-0.00800556 0.0176818 0.707153)
(-0.0551401 -0.113308 0.635696)
(-0.0304167 -0.0816704 0.677963)
(-0.0574663 -0.0466588 0.508355)
(-0.0230576 -0.0606373 0.689148)
(-0.0129868 0.569015 0.723276)
(-0.0188637 0.546934 0.871477)
(0.00715441 0.502529 0.677989)
(0.0286977 0.599353 0.789076)
(0.01948 0.611089 0.732232)
(-0.0296812 0.503156 0.81942)
(0.0122047 0.590383 0.726977)
(-0.00070457 0.64902 0.761211)
(0.0631804 0.659024 0.749728)
(-0.00267687 0.595954 0.731438)
(-0.0356742 0.688846 0.699961)
(-0.0601119 0.711867 0.808184)
(0.00559167 0.694093 0.852735)
(-0.059137 0.629147 0.759341)
(-0.150962 1.87012 0.136349)
(0.0351096 2.4308 0.105343)
(-0.119642 1.9656 0.0625138)
(-0.0373035 2.31649 0.171912)
(0.0178831 2.20982 0.235418)
(-0.0791074 2.06591 0.204018)
(-0.14412 2.0095 0.165261)
(0.0513567 2.36119 0.327561)
(0.090417 2.31061 0.256055)
(-0.0144007 2.41508 0.442954)
(-0.0579712 2.54405 0.471428)
(0.0036404 2.55457 0.342059)
(0.0904891 2.43343 0.278795)
(0.00938979 2.46909 0.390845)
(0.0180906 -1.08455 -1.90234)
(0.199487 -0.762625 -1.84956)
(-0.0621605 -0.994514 -1.8937)
(0.0395382 -1.03388 -1.70167)
(0.232025 -0.962388 -1.66238)
(0.578561 -0.659647 -1.93565)
(0.287922 -0.881136 -1.8195)
(0.0267139 -0.475871 -2.20317)
(0.018167 -0.670521 -1.8144)
(0.0761123 -0.792385 -1.80978)
(-0.00207674 -0.896082 -2.19283)
(-0.0253061 -0.620897 -2.27187)
(0.0121409 -0.702997 -1.98306)
(0.128751 -0.919946 -2.01559)
(-0.0331354 0.455074 -0.237101)
(-0.173621 0.119199 -0.235686)
(-0.0289459 0.361315 -0.359985)
(0.174514 0.330797 -0.341621)
(-0.101766 0.159013 -0.293175)
(-0.300314 -0.058862 -0.274828)
(-0.122941 0.090145 -0.46272)
(0.000705213 -0.958918 -0.581399)
(0.0208288 -1.48607 -0.169879)
(-0.0230514 -0.428212 -0.728762)
(-0.191787 -1.76287 0.065869)
(-0.0981642 -1.45876 -0.0666447)
(-0.171321 -1.77179 0.0172724)
(-0.0319887 -1.57469 -0.257153)
(0.00899716 -2.4645 0.0190073)
(-0.000145459 -2.48617 0.025604)
(-0.00270972 -2.45298 0.0340189)
(-0.00255946 -2.48375 0.0209345)
(-0.0165415 -2.47779 0.0273346)
(0.00226542 -2.46964 0.0190783)
(-0.0105387 -2.4661 0.0329876)
(0.0299093 -0.00523599 -0.285605)
(0.0422716 -0.00662292 -0.23941)
(-0.00682062 -0.0471868 -0.381186)
(0.00460262 -0.00533923 -0.396214)
(-0.0214138 -0.0463691 -0.367719)
(0.0304233 0.0179546 -0.352701)
(0.0113448 -0.0245252 -0.312625)
(0.0148528 0.0649545 -0.0533118)
(0.0195229 -0.0859786 0.103665)
(-0.00923246 -0.0337162 0.284386)
(0.0378416 -0.27091 0.368164)
(0.0046949 -0.325362 0.441284)
(0.142693 -0.358007 0.447828)
(0.119531 -0.303856 0.330402)
(0.0326057 -0.161642 -0.408283)
(-0.0443405 -0.119959 -0.467829)
(-0.0345087 -0.0887353 -0.624955)
(0.00530876 -0.176836 -0.559273)
(0.0353657 -0.159239 -0.517653)
(-0.0407317 -0.146551 -0.45972)
(0.025844 -0.184945 -0.393622)
(0.0136346 1.98775 -0.00332523)
(-0.043291 2.50865 -0.015618)
(-0.0358237 2.52792 -0.00665124)
(-0.00815589 2.51859 -0.0268898)
(0.00541711 2.40801 -0.0273647)
(-0.0482575 2.51588 -0.0190733)
(-0.0599245 2.56697 -0.0139611)
(0.0103405 2.5506 -0.054914)
(-0.0114051 2.35307 -0.0638083)
(-0.00362337 2.47673 -0.0547998)
(-0.0210821 2.48394 -0.019643)
(-0.0299805 2.41297 -0.0140708)
(-0.34255 1.10594 0.0941799)
(-0.118323 2.13197 0.0900543)
(0.179403 2.7884 -0.0942724)
(-0.0427911 2.29766 -0.0682418)
(-0.154513 1.89164 0.115728)
(-0.0801638 2.32397 0.0992468)
(0.0629756 2.68816 -0.136937)
(-0.024314 2.18658 -0.127972)
(-0.147491 2.11588 0.0804183)
(-0.0469658 2.14121 -0.22917)
(-0.069972 2.28643 -0.111143)
(-0.120031 2.21655 -0.00672307)
(0.0612007 1.82053 -0.10081)
(0.188989 1.7562 -0.17586)
(-0.0564926 1.97275 -0.040274)
(-0.0275134 1.95769 -0.09398)
(-0.106308 1.93392 0.000407809)
(-0.00136327 0.333316 -0.210665)
(-0.00690766 0.346016 -0.24134)
(0.00218197 0.326038 -0.223805)
(-0.000844292 0.348911 -0.19194)
(-0.0051839 0.374431 -0.194094)
(-0.00958406 0.379318 -0.21725)
(-0.000250188 0.350217 -0.206257)
(-0.00608386 -0.285098 -0.201848)
(-0.00861613 -0.436226 -0.118998)
(0.00522727 -0.36977 -0.186237)
(0.0318292 -0.381965 -0.0834475)
(0.027545 -0.308219 -0.0793464)
(0.0488033 -0.492138 -0.0969717)
(0.0609629 -0.336957 -0.121131)
(0.0108163 2.29972 0.125126)
(-0.119997 2.0517 0.326077)
(0.115143 2.22884 0.217643)
(-0.0447283 2.34899 0.264838)
(-0.284533 2.39736 0.434547)
(-0.279898 2.25542 0.458224)
(-0.00801689 2.27716 0.339886)
(-0.0325571 2.18835 0.431467)
(-0.0128313 2.60595 0.397847)
(0.0469485 2.36746 0.294906)
(0.0167894 2.27217 0.721034)
(0.0237341 2.50243 0.559219)
(0.0308404 2.37527 0.449127)
(-0.0384237 2.25372 0.631952)
(0.0385335 0.372883 2.471)
(-0.0186966 0.484993 2.60807)
(0.0994303 0.175759 2.22836)
(0.00650992 0.129786 2.41607)
(-0.00363611 0.357076 2.56)
(0.0392485 0.0473081 2.18384)
(0.00744965 0.274823 2.43276)
(0.00228455 0.312989 0.795291)
(0.00427657 0.210793 0.783246)
(0.0604442 0.306941 0.78668)
(-0.0175996 0.30238 0.820212)
(-0.0566554 0.368933 0.866988)
(0.0470391 0.326941 0.804136)
(-0.0102974 0.313476 0.842298)
(-0.00109227 -0.0769004 0.794705)
(0.0668352 -0.0633606 0.467891)
(0.00479509 -0.120784 0.632434)
(0.0209657 0.240277 0.503853)
(-0.0759796 0.645718 0.491654)
(-0.00928443 0.10703 0.471136)
(-0.11339 -0.03998 0.639586)
(-0.160009 0.546656 0.926249)
(-0.31873 0.258492 0.782641)
(0.00592595 0.756598 0.85951)
(-0.12195 0.502327 0.793809)
(0.117981 0.729339 0.853142)
(-0.572741 0.207591 0.757541)
(-0.398563 0.526048 0.864673)
(0.0207535 1.33352 0.0862992)
(-0.00254005 1.49759 0.235536)
(0.0213204 1.44321 0.207047)
(0.00727125 0.868657 0.0988295)
(-0.00795337 1.1978 0.120466)
(-0.000328092 1.49625 0.321384)
(0.0239228 1.36405 0.227751)
(0.0880086 0.00419173 -0.0130481)
(0.0627315 0.799617 0.0396802)
(0.0513221 0.937562 0.0850782)
(0.0787286 0.75939 -0.0306566)
(0.0844385 1.13266 0.124768)
(-0.0653007 2.44693 0.675134)
(-0.31551 2.45393 0.713688)
(0.1023 2.48811 0.715387)
(0.207682 2.46574 0.592415)
(0.129348 2.47354 0.618599)
(-0.020995 2.51462 0.683279)
(0.150501 2.49635 0.657401)
(-0.025204 -1.80221 0.533331)
(-0.0863399 -1.66188 0.141081)
(0.00985575 -1.55496 -0.349243)
(-0.0116061 -1.61795 -0.281059)
(0.0987069 -1.81774 0.0996295)
(-0.176617 -1.72213 0.0952412)
(0.0520611 -1.89934 0.5635)
(0.0886459 -0.25659 -1.34468)
(0.294556 -0.143597 -1.37918)
(0.00406939 -0.310587 -1.33556)
(0.060656 -0.11029 -0.746334)
(-0.100879 -0.226977 -1.01842)
(0.273484 -0.0962496 -1.24251)
(0.139864 -0.187927 -1.15697)
(-0.148108 0.373769 -0.134861)
(0.293113 0.160118 0.405904)
(0.373085 0.262633 -0.115399)
(-0.286787 0.173083 -0.89536)
(-0.432706 0.0818589 -1.10887)
(-0.281891 0.146369 -0.512321)
(-0.397402 0.1453 -0.849473)
(0.0128015 1.02687 -0.0940614)
(0.116432 1.01811 -0.236382)
(-0.0551398 1.10704 -0.121108)
(0.00741297 0.596085 -0.279489)
(-0.102921 0.680961 -0.0671049)
(0.211847 0.595749 -0.410349)
(0.0730378 0.696178 -0.121695)
(-0.351075 0.135985 -0.931777)
(-0.0144471 0.46924 -0.918383)
(-0.066935 0.676565 -0.584885)
(0.339482 -0.305803 -0.634842)
(0.101093 -1.05325 -0.393329)
(0.363971 -0.406733 -0.764338)
(-0.37028 -0.717105 -0.600015)
(0.00911861 -2.23133 0.0555687)
(-0.0229952 -2.26056 0.0105432)
(-0.0304943 -2.33863 -0.0661423)
(0.00252713 -2.27525 -0.0203984)
(-0.0142249 -2.13431 0.0570326)
(-0.0407519 -2.19547 0.0588915)
(-0.0074022 -2.3574 -0.0278624)
(-0.0581754 0.460719 -0.428868)
(0.00547692 0.440057 -0.478767)
(0.000795733 0.397854 -0.424489)
(0.0401312 0.386077 -0.358296)
(-0.0804843 0.517892 -0.256136)
(-0.0525358 0.36372 -0.382382)
(-0.197331 0.393195 -0.279561)
(-0.00308403 -0.286982 0.727268)
(-0.021229 -0.33016 0.615345)
(0.0281325 -0.332886 0.586273)
(-0.000980656 -0.21581 0.755171)
(0.0016248 -0.182659 0.76085)
(-0.016924 -0.232867 0.674015)
(0.0140848 -0.280865 0.6545)
(0.00017815 2.03833 -0.00819908)
(-0.0120546 2.66579 -0.0421764)
(-0.0225549 2.66449 0.00102758)
(-0.0130319 2.64071 -0.0172522)
(-0.00301911 2.53435 -0.0328008)
(-0.0236324 2.65747 -0.0511225)
(-0.034363 2.70832 -0.0193672)
(0.0188919 2.63887 -0.0340746)
(-0.0275141 2.45241 -0.041313)
(-0.00614154 2.57658 -0.0268393)
(0.0021981 2.61722 -0.040316)
(-0.0133808 2.53452 -0.0350967)
(-0.00286401 0.947207 -0.641497)
(0.0865056 1.21763 -0.403207)
(0.0265296 0.99083 -0.585414)
(-0.0376908 1.00204 -0.56365)
(-0.0647765 1.18749 -0.39471)
(-0.0566769 1.22157 -0.299033)
(-0.0305393 1.06309 -0.500219)
(0.0249608 0.31664 -0.66554)
(0.0647362 0.267316 -0.573437)
(0.0018855 0.323833 -0.636698)
(-0.0888796 0.240915 -0.53565)
(-0.0630557 0.252506 -0.556425)
(-0.0150154 0.222751 -0.572413)
(-0.0404336 0.267366 -0.563393)
(0.017684 0.632065 -0.133068)
(0.062395 0.451433 -0.0264823)
(-0.0362848 0.490226 -0.0607027)
(-0.0306853 0.627441 -0.0324304)
(0.0483669 0.596484 0.00225732)
(0.113684 0.583145 -0.0233002)
(-0.0075612 0.562951 -0.0220659)
(-0.000756161 0.352039 -0.0986549)
(-0.00404335 0.346874 -0.102706)
(-0.00263483 0.338207 -0.103071)
(0.000277241 0.34589 -0.11605)
(0.00777958 0.335711 -0.111285)
(0.00649271 0.330791 -0.118499)
(0.00565754 0.323224 -0.104383)
(0.0128138 0.314156 -0.119368)
(-0.00303738 0.322169 -0.101468)
(0.0167942 0.301689 -0.13384)
(0.00506567 0.311276 -0.117009)
(-0.00131708 0.323443 -0.106629)
(-0.00104772 0.319741 -0.11883)
(-0.00503869 0.311368 -0.110898)
(0.0157224 0.305166 -0.116835)
(0.00982779 0.302926 -0.123511)
(0.000282572 -1.65679 -0.0296358)
(0.00024469 -1.64661 -0.0149247)
(-0.00137981 -1.65827 -0.0440079)
(-0.00318653 -1.62668 -0.0290169)
(-0.000825874 -1.65214 -0.040014)
(-0.00421119 -1.63226 -0.0217271)
(-0.00154128 -1.65161 -0.0334442)
(-0.0553247 3.40995 -0.488443)
(-0.00369214 3.75408 -0.043359)
(-0.0646345 4.04027 -0.700907)
(0.182611 3.8875 -0.298932)
(0.014373 4.01672 -0.59204)
(0.108061 3.74414 -0.149634)
(0.0470748 3.70439 -0.472122)
(-0.00828735 2.64645 0.825368)
(-0.0636712 2.35101 0.88149)
(0.0687833 2.16111 1.13327)
(0.192263 2.32677 1.5831)
(0.0565872 2.59492 1.23564)
(0.0602862 2.3675 1.1739)
(0.230328 2.17267 1.45197)
(-0.0169142 0.174374 0.89094)
(-0.00551761 0.986508 1.31964)
(0.0313174 0.675947 1.20233)
(-0.0454902 0.744496 1.26667)
(0.0261971 0.442152 1.06707)
(-0.0299461 0.601226 1.12783)
(-0.0168932 0.155413 0.903482)
(-0.0489614 -0.365408 1.22863)
(-0.148484 -0.510423 1.26571)
(0.0108502 -0.230169 1.15531)
(0.00421696 -0.670771 0.989284)
(0.0532238 -0.578705 0.883325)
(-0.0608502 -0.684453 1.06303)
(0.0609414 -0.60187 0.964204)
(-0.0174692 -0.573847 0.149438)
(0.0911469 -0.952903 0.48707)
(0.075727 -0.787415 0.474438)
(-0.0386462 -0.397187 -0.202594)
(-0.0616496 -0.572601 -0.218945)
(0.0428389 -0.861977 0.129439)
(0.0488507 -0.509941 0.177504)
(0.0844175 -0.054939 0.370729)
(-0.00990522 -0.0216123 0.278909)
(0.00402083 -0.33093 0.248777)
(-0.037879 -0.195404 0.0885604)
(0.0344896 -0.306082 0.17748)
(-0.076799 -0.0847304 0.156928)
(0.0548514 -0.14989 0.350101)
(-0.00543148 0.240724 0.780216)
(-0.0403469 0.175866 0.7555)
(-0.0196703 0.402868 0.893459)
(0.0361625 0.199719 0.721228)
(0.0285932 0.249069 0.781664)
(-0.00785746 0.111481 0.675861)
(0.00755803 0.193173 0.746856)
(0.00558361 0.74789 0.261007)
(0.0415119 0.801442 0.137297)
(0.0117365 0.424433 0.143081)
(-0.00473603 0.54027 -0.00575597)
(-0.0459203 0.490459 0.0887569)
(0.0211493 0.701388 0.0415324)
(0.00179556 0.669375 0.148546)
(-0.00910071 -0.549093 0.0403072)
(-0.195047 -0.191079 0.0555085)
(0.174367 -0.442426 0.267907)
(0.0502624 -0.672181 0.289108)
(-0.120528 -0.757411 -0.0998762)
(-0.029299 -0.0366832 -0.379984)
(0.318521 -0.213326 0.350711)
(0.0149693 -0.0335018 -2.69553)
(-0.0867646 -0.0888654 -2.58465)
(-0.0250665 -0.0951465 -2.43716)
(-0.00664747 -0.0328526 -2.32105)
(-0.0350131 -0.0457235 -2.25815)
(-0.11671 0.00513393 -2.31007)
(-0.113835 -0.0731022 -2.38436)
(0.0116059 0.0729805 -2.72035)
(-0.11711 -0.0509814 -2.24775)
(-0.108227 -0.0417761 -1.44616)
(0.000193617 0.0933432 -2.70163)
(-0.181541 -0.0980372 -2.50646)
(0.0129019 0.0606415 -2.37049)
(-0.146371 -0.0720948 -2.21967)
(-0.140853 -0.109223 -2.26365)
(-0.151401 -0.027436 -1.54393)
(-0.16723 -0.0916813 -2.14068)
(-0.0410023 0.268668 0.568341)