/*--------------------------------*- C++ -*----------------------------------*\
| =========                 |                                                 |
| \\      /  F ield         | OpenFOAM: The Open Source CFD Toolbox           |
|  \\    /   O peration     | Version:  v2012                                 |
|   \\  /    A nd           | Website:  www.openfoam.com                      |
|    \\/     M anipulation  |                                                 |
\*---------------------------------------------------------------------------*/
FoamFile
{
    version     2.0;
    format      ascii;
    class       surfaceScalarField;
    location    "0.3";
    object      alphaPhi0.water;
}
// * * * * * * * * * * * * * * * * * * * * * * * * * * * * * * * * * * * * * //

dimensions      [0 3 -1 0 0 0 0];
oriented        oriented;


internalField   nonuniform List<scalar> 
13152
(
1.02068e-06
2.03212e-05
-1.69874e-06
-1.96432e-05
1.87467e-05
-1.70876e-05
-6.38456e-07
-3.46502e-06
4.25329e-05
-3.46443e-05
3.54329e-05
-2.48736e-06
2.12185e-05
-7.5506e-05
2.85377e-05
-2.44068e-05
6.05056e-05
-1.60925e-05
-2.95437e-05
-2.84482e-05
7.40844e-05
3.87595e-07
-1.67651e-05
2.85034e-07
-2.99242e-05
7.6805e-07
7.84326e-06
5.15452e-06
-2.97629e-05
7.80692e-06
3.21369e-07
-5.08593e-06
-1.55553e-05
-2.98556e-05
-8.65367e-06
-1.46161e-05
-5.13786e-06
2.84077e-05
-8.08872e-08
-8.66361e-06
9.08268e-08
-1.41388e-05
-5.5818e-07
5.67458e-06
-3.05708e-05
1.62326e-05
-2.93092e-05
2.98459e-05
2.93747e-05
-4.92657e-07
3.53825e-08
-1.52693e-05
-2.99175e-05
9.72622e-08
-7.49497e-05
3.33933e-07
1.59895e-05
3.02313e-05
-5.14418e-08
7.46285e-05
3.57653e-05
1.26548e-05
2.54304e-05
-7.38504e-05
3.855e-07
-7.52073e-07
3.61319e-05
1.24018e-05
2.71545e-07
-1.87356e-05
7.36704e-05
7.79018e-05
2.91601e-05
-7.36272e-07
-2.93859e-05
9.62068e-07
-1.64131e-05
-2.6875e-05
7.24483e-05
1.69009e-07
-1.73184e-05
-8.08029e-06
8.00892e-06
2.4037e-07
5.30447e-06
-3.07031e-05
-4.96735e-06
-1.38988e-05
-2.90488e-05
-1.37968e-05
1.3846e-07
2.91704e-05
2.60067e-07
2.33919e-05
-5.601e-07
-6.12931e-06
-1.67138e-05
-1.24081e-05
1.3988e-06
3.43962e-05
-1.00786e-05
-2.88835e-06
-1.97657e-05
-1.27139e-05
3.38309e-05
-2.7201e-06
-2.32188e-05
2.88965e-06
-3.04967e-06
-9.92558e-06
1.61866e-06
-1.62129e-06
-5.28867e-06
-5.81004e-06
-1.10796e-05
-1.43081e-52
7.5884e-52
-2.6149e-52
-2.57999e-51
2.06808e-51
-2.6253e-51
-4.66939e-51
-1.34407e-51
-1.20262e-50
4.544e-51
3.75656e-51
-1.38935e-50
2.54035e-53
-9.18421e-53
-3.29389e-51
2.77254e-53
-1.90498e-50
-1.21815e-50
-2.37593e-50
-2.9299e-51
3.68301e-50
-1.17639e-51
-1.41838e-50
4.57888e-52
-3.3542e-50
-9.16718e-52
5.09287e-49
4.07909e-50
-5.9226e-49
3.60892e-50
4.63303e-49
-2.5097e-50
5.55296e-50
-1.24416e-51
2.83539e-48
2.64183e-48
8.78662e-48
-4.88748e-47
-1.92301e-50
1.14482e-48
4.92927e-49
1.17861e-48
-5.3384e-49
-5.13409e-48
1.15519e-48
4.26532e-48
8.34494e-47
-8.88059e-47
-6.06734e-47
3.96382e-47
-6.42327e-47
-4.51939e-09
-3.1041e-09
-3.28362e-09
4.44618e-09
5.8897e-09
-2.67968e-08
1.74363e-08
2.11574e-08
-3.14011e-08
1.97842e-08
-2.33165e-08
-1.12715e-08
-1.34236e-08
1.57176e-08
-6.15317e-08
7.99107e-08
-1.08822e-07
1.66842e-08
6.38715e-09
-1.99002e-08
-3.04693e-09
-3.50934e-09
-2.42642e-09
1.67921e-08
-2.24531e-09
2.98966e-10
1.56576e-08
1.54134e-08
-5.09092e-08
2.52325e-08
-1.25287e-08
-1.3637e-08
3.55463e-08
-2.22106e-09
-8.93324e-08
7.56124e-07
4.76836e-07
-6.4479e-07
-2.88185e-07
-3.22474e-07
-5.86224e-07
1.14165e-07
-2.12774e-07
-2.94728e-07
4.62777e-08
6.73596e-07
-9.41724e-07
6.89613e-08
4.54435e-08
-4.18773e-08
-3.44469e-07
-1.52138e-06
-2.62198e-06
-5.59463e-07
4.82999e-06
-9.139e-07
1.40433e-07
-4.06249e-07
-3.68277e-06
-7.76528e-07
-4.9363e-07
7.84649e-07
6.04978e-07
1.36247e-07
-1.03698e-06
3.4444e-06
-6.8209e-06
3.80334e-06
8.43626e-06
1.19907e-06
-9.69056e-06
5.53502e-08
-1.36556e-05
-3.16494e-06
2.52569e-05
3.54769e-06
-1.60036e-05
-7.60842e-06
-2.29897e-05
2.22578e-05
-3.16187e-05
1.43198e-05
-3.41125e-05
7.16317e-06
-8.16518e-05
8.84773e-06
4.97259e-06
1.27428e-05
-2.57745e-05
-1.15706e-06
2.92769e-06
7.12858e-06
-2.00688e-07
4.04799e-06
4.44105e-06
1.12496e-05
1.60581e-06
2.63989e-06
1.27957e-05
9.85655e-77
1.62921e-23
1.59588e-26
-1.6308e-23
-1.47719e-76
-8.61844e-77
-1.35889e-76
8.38489e-27
1.56637e-23
-4.82396e-78
-1.36676e-77
-2.05013e-77
-2.53824e-76
-6.87751e-77
-8.67305e-27
1.70579e-26
1.55508e-28
1.87153e-05
6.38121e-07
-1.89441e-05
-6.36187e-08
-2.38255e-05
-2.66745e-05
6.93791e-05
1.49681e-07
-2.33421e-05
-2.53115e-05
2.60188e-05
-5.58329e-07
2.10804e-05
-6.99955e-05
-2.98168e-06
2.32589e-06
-8.45658e-07
1.74236e-84
-2.30015e-109
1.03241e-61
4.90525e-62
-2.83336e-109
-6.86404e-84
-1.01049e-83
3.21736e-109
4.85409e-109
-1.51098e-37
-6.53396e-39
-2.79365e-42
8.54052e-36
-1.28981e-35
-9.45072e-35
-4.39383e-36
-1.43258e-34
7.05796e-14
-1.10809e-14
-1.10251e-13
2.06015e-14
-5.36698e-14
-3.99678e-14
1.0119e-13
-1.34997e-13
1.88865e-14
1.07203e-13
1.55418e-13
-4.4081e-13
6.25748e-14
4.36147e-14
-7.18507e-15
1.10412e-14
-9.3331e-14
9.02865e-15
8.47193e-14
-1.49011e-13
1.06814e-13
1.97672e-13
-2.90286e-14
7.71266e-15
-1.68808e-13
5.87948e-13
2.42829e-14
3.02588e-14
-9.48784e-14
9.91805e-14
-9.70757e-15
6.20543e-14
-4.18311e-14
6.30784e-14
6.64175e-14
8.74096e-14
1.54464e-13
-3.06445e-13
-4.90629e-15
9.53576e-15
9.18725e-14
1.23142e-13
-1.82387e-14
5.04267e-13
-4.87766e-13
-2.72926e-15
-1.21258e-13
6.92168e-13
-5.32041e-13
5.3319e-13
-8.62577e-13
-1.85194e-13
-8.58012e-14
-2.61251e-14
3.43571e-13
2.28005e-14
-4.40875e-14
-2.44155e-14
-6.76904e-15
4.19078e-15
-1.89503e-14
-4.63749e-15
2.68341e-14
-1.41993e-15
-4.89985e-14
8.08341e-15
-5.20553e-16
-1.2143e-14
7.96448e-15
9.71918e-15
1.2087e-15
-2.5187e-15
5.17064e-15
-6.20781e-15
-5.30178e-15
9.63305e-15
1.91553e-14
-4.57308e-15
2.25951e-14
-1.6168e-14
6.05184e-15
-1.15356e-14
1.50113e-14
-2.1183e-14
-1.38368e-14
5.47202e-14
-2.2494e-14
3.93768e-14
-3.19347e-14
-3.19191e-15
-2.21481e-15
1.42919e-15
5.69789e-15
4.29977e-16
-3.8821e-16
-2.4239e-15
1.24133e-15
-2.78131e-16
-3.33215e-15
2.41351e-16
7.02426e-15
4.46548e-16
-2.10145e-15
-3.84927e-15
-7.26837e-16
8.4734e-15
-1.53844e-15
-6.96535e-16
3.96734e-15
-2.92339e-15
7.83371e-15
-2.01253e-20
-9.94297e-21
1.72029e-20
5.68772e-21
1.37578e-20
2.29163e-21
-4.3354e-20
-5.37263e-19
5.30139e-19
-8.35155e-21
4.93681e-21
1.85551e-20
3.36897e-20
-4.18014e-20
1.5117e-17
-2.42549e-18
-1.32662e-17
-7.8233e-20
1.49792e-17
-1.59974e-19
1.22907e-19
-2.55225e-18
2.62836e-22
-4.11318e-22
3.03271e-20
-3.00929e-20
-4.37422e-22
5.10035e-22
6.2459e-21
4.54898e-22
-1.16693e-21
4.68807e-22
-1.6524e-21
1.74056e-21
-4.39802e-20
-1.56048e-20
1.4493e-20
-8.10679e-20
1.36892e-18
-1.46713e-17
-3.33348e-17
5.50844e-17
-1.63547e-17
1.34446e-17
3.4402e-18
1.35007e-17
-3.94661e-17
1.07771e-15
-1.28347e-16
-9.8238e-16
-1.4067e-17
1.14052e-15
-1.15422e-18
2.21862e-19
-1.18014e-16
-3.35142e-18
-8.62377e-19
1.09627e-17
8.30351e-19
3.38591e-17
1.70533e-18
-3.87723e-17
6.4898e-16
-6.09836e-16
-1.1206e-18
-2.24775e-17
-2.9206e-19
2.66569e-21
2.00461e-18
-5.54479e-19
6.28775e-16
6.6075e-31
5.10509e-31
5.37721e-31
1.83945e-33
-7.50927e-27
8.44813e-27
2.88152e-28
1.94284e-24
3.68476e-26
-4.86282e-26
-1.11041e-27
2.6573e-24
-5.22947e-27
-6.28404e-28
4.30685e-28
1.13686e-36
1.35717e-26
-1.5835e-18
-2.26389e-19
8.10547e-18
8.80956e-19
3.47913e-18
8.61981e-19
-4.88835e-18
5.40318e-18
-8.90833e-24
-3.40458e-18
-1.65959e-18
1.57529e-17
-2.35101e-18
2.83638e-19
3.34287e-18
-3.75922e-18
8.03088e-18
-8.95719e-18
-4.62927e-18
1.38525e-17
5.6892e-18
5.16411e-18
5.43431e-18
2.60985e-17
-1.20517e-18
5.79772e-18
1.28456e-17
-5.65414e-18
1.63331e-17
1.47412e-17
-1.88252e-17
7.83899e-17
-3.31672e-18
3.52604e-17
7.20547e-18
-2.43858e-17
-3.21433e-18
-6.4747e-17
-2.47689e-17
1.40812e-16
-6.06091e-17
4.37981e-17
3.43759e-17
2.21162e-17
-6.7867e-17
2.95042e-17
-7.30635e-17
9.46967e-17
-9.22732e-17
-2.14416e-16
4.36142e-17
-2.4148e-16
7.00039e-16
4.28129e-16
-8.81964e-17
-1.60279e-16
-4.89742e-16
1.23831e-15
-4.2609e-17
1.74525e-16
-7.94406e-17
1.28645e-16
-2.07432e-16
2.4679e-16
-4.14369e-16
1.86444e-16
5.15391e-15
6.21588e-15
-6.39686e-16
-1.88262e-15
1.13805e-15
-6.40965e-15
-5.03208e-16
1.10671e-14
5.12447e-16
1.87059e-16
-1.82837e-15
3.87777e-15
-2.4443e-15
6.20439e-17
8.89054e-17
9.72467e-17
1.98572e-15
2.45277e-15
4.91346e-17
-3.58037e-15
-3.1097e-16
1.14129e-14
5.28491e-14
-1.7293e-14
-1.39445e-14
3.64438e-14
-2.83457e-14
-6.33088e-14
1.71562e-13
1.55733e-14
3.21567e-14
5.76022e-14
-3.58721e-14
-1.50998e-14
2.73273e-14
-1.23193e-14
5.876e-10
-1.03156e-10
-2.53834e-09
4.76461e-10
-8.43672e-11
-5.29111e-11
3.66644e-10
-1.96456e-10
-2.51552e-11
5.03683e-09
9.85961e-11
-6.70409e-09
1.2544e-09
3.60081e-09
-1.26135e-10
1.43554e-09
-6.91617e-10
-5.47318e-06
2.74828e-08
5.05147e-06
3.94329e-07
5.27821e-06
1.21506e-06
-1.19664e-05
1.69985e-06
3.60619e-06
-3.25111e-06
6.63943e-06
1.66319e-06
6.23703e-06
-8.27303e-06
3.3795e-06
-1.36566e-05
1.1977e-05
-8.81133e-06
1.57971e-05
3.88104e-06
-1.13007e-05
1.70906e-06
-1.95366e-06
8.4573e-07
1.97481e-06
-8.67513e-07
4.86522e-06
7.49895e-07
-7.56901e-06
4.26657e-07
5.26197e-06
1.9257e-06
7.24244e-06
-8.43031e-06
9.1076e-06
-5.20836e-06
1.08269e-05
-3.18499e-06
2.51788e-05
-2.1353e-05
-5.77001e-06
-1.0098e-05
3.66987e-05
2.72165e-06
-1.99726e-05
-4.70799e-06
-6.28744e-06
2.82137e-06
6.94254e-06
2.16237e-06
-1.54107e-05
5.94056e-06
3.82027e-06
3.15291e-05
-1.13484e-05
-4.01327e-05
-1.53223e-05
3.67939e-05
2.09253e-06
-1.1349e-05
-7.56053e-06
4.45768e-06
6.18215e-06
-1.82095e-05
-1.622e-06
-3.89796e-06
1.03562e-06
1.37396e-05
-1.13715e-05
-3.42532e-06
6.10006e-06
-6.12788e-06
7.60593e-07
-1.25781e-05
3.23193e-05
2.32122e-06
1.17667e-06
-9.6212e-06
3.08012e-06
-6.32062e-08
-2.15745e-06
-7.36016e-06
-1.23595e-05
1.16436e-14
5.26701e-15
2.77307e-15
-1.90328e-14
4.2288e-14
5.91802e-14
-9.45854e-14
4.73208e-14
1.55392e-13
-5.3072e-15
4.54781e-14
3.08134e-14
1.25958e-14
-1.43857e-14
4.83994e-14
1.67839e-13
2.95102e-13
3.69669e-06
2.34401e-07
-2.96953e-06
-9.63125e-08
-2.37808e-07
-3.64538e-07
4.55501e-06
-2.21901e-09
-4.7396e-10
3.69065e-07
-1.3627e-08
-3.21178e-06
-3.07208e-09
1.92868e-08
3.00633e-09
2.65106e-09
-1.04097e-08
4.21116e-09
-1.21088e-09
-5.60817e-10
1.83377e-09
-1.14209e-08
-1.67122e-16
6.55687e-17
4.27133e-16
9.57862e-16
4.10739e-16
2.30158e-17
-4.71355e-15
6.33461e-17
-6.10528e-15
2.04928e-16
-6.58578e-17
-1.57673e-17
-5.64508e-17
8.9156e-16
6.33505e-16
-6.05693e-15
3.08941e-16
-4.49469e-06
-1.83308e-05
1.31541e-05
9.68144e-06
-1.20908e-05
8.36858e-06
-9.54325e-07
7.01994e-06
-3.9303e-05
-7.83156e-06
-6.1864e-06
3.11537e-05
-7.49038e-06
5.99503e-08
3.24667e-06
-2.8371e-06
9.37322e-06
7.47317e-06
1.43903e-05
1.47188e-05
-3.62901e-05
-2.4056e-06
3.45075e-06
6.33417e-06
2.23111e-05
9.76358e-06
-1.62868e-05
9.96626e-06
-1.80103e-05
3.3841e-05
-5.78974e-06
-1.84808e-05
8.00895e-06
-1.35356e-05
-1.0247e-05
-2.6324e-05
3.51592e-05
-2.99601e-05
-7.66369e-06
4.65104e-06
1.52183e-05
-1.22142e-05
1.14736e-05
9.47926e-06
-2.86123e-05
1.23279e-05
3.79825e-06
-2.13969e-06
5.59361e-06
1.17652e-05
5.5173e-06
1.82314e-06
-1.04301e-05
-8.09963e-06
3.08472e-05
-1.52229e-05
8.53401e-06
2.5146e-06
-1.22234e-05
5.97802e-09
4.08556e-06
-8.11925e-07
-4.42178e-06
1.24849e-06
-2.91636e-06
-2.12051e-06
9.25627e-06
1.01108e-06
-4.27107e-06
-5.3105e-06
-1.47545e-05
1.83191e-05
-1.79178e-05
9.16821e-06
-1.74808e-05
6.75089e-06
-3.36782e-05
-3.3045e-06
-5.16308e-06
1.01311e-05
-2.18573e-06
-4.99349e-06
3.87488e-06
-6.95063e-06
1.10088e-05
-2.96953e-05
-2.24333e-06
-2.02943e-05
-7.00934e-06
1.60028e-05
7.05946e-06
-2.95969e-05
3.92434e-06
1.57645e-05
4.80323e-06
-9.6172e-06
-1.95952e-05
2.62758e-05
-1.4371e-05
-3.65214e-05
5.84136e-05
-1.43413e-05
-6.08068e-06
9.88309e-06
2.65367e-05
-5.03403e-05
2.49481e-05
-2.1672e-05
2.56512e-05
-3.39061e-05
3.44628e-05
1.91566e-06
-1.19553e-06
-2.51298e-06
1.71935e-06
-3.48865e-06
-3.22095e-06
8.53145e-06
-1.7655e-06
-2.02157e-06
-1.59429e-07
4.11572e-06
-5.27724e-06
3.1843e-06
-5.47626e-06
1.10858e-06
-8.31207e-07
1.71566e-06
-1.35146e-09
-8.83254e-10
-4.39269e-10
1.85819e-09
5.65807e-10
-6.3813e-11
-3.27555e-11
-1.14981e-09
4.32628e-09
-3.69544e-11
1.29482e-10
-3.26136e-11
-1.8616e-11
-8.63173e-11
-1.11267e-11
6.10678e-11
9.2108e-11
3.19141e-10
-3.58564e-10
1.45103e-10
-2.51094e-09
-4.80492e-11
-2.87485e-13
-1.1503e-12
-1.40331e-12
1.21651e-12
-3.16731e-13
-3.23199e-12
2.57572e-13
-1.94268e-12
-9.82224e-13
8.02894e-12
1.21292e-13
-4.37153e-12
1.51889e-12
-1.67292e-10
5.90464e-13
-5.92635e-12
2.30273e-12
4.31054e-11
7.88488e-10
1.86972e-09
-1.80145e-09
2.36648e-10
-1.05886e-10
5.72707e-11
-1.20064e-10
8.85402e-10
9.85961e-10
-3.00267e-09
-1.20169e-12
-1.37566e-11
3.61503e-10
3.97952e-10
-8.07648e-10
-7.55388e-09
2.99082e-11
4.96974e-11
-3.37456e-10
4.78194e-11
-6.10664e-10
6.29072e-07
2.45601e-07
-1.59291e-06
-1.20075e-07
-6.46393e-07
-2.21769e-07
8.64908e-07
-1.99397e-06
-2.01404e-07
1.02111e-06
5.4516e-06
-9.56654e-06
3.03237e-07
-5.97505e-11
8.04152e-08
8.79489e-10
1.99112e-06
1.86502e-06
-3.98607e-05
-2.2266e-06
4.02797e-05
-4.18686e-05
3.88592e-05
4.90299e-06
3.78623e-05
-0.000119548
4.47773e-05
-4.02264e-05
-6.74476e-06
-3.77647e-05
0.000122824
-3.46371e-06
4.55375e-06
-5.79724e-06
-6.11637e-12
-1.88032e-12
3.89373e-12
1.89941e-11
2.95607e-12
-3.18135e-12
-7.86045e-12
7.75451e-12
-4.73251e-12
1.09012e-11
-6.84109e-12
2.85298e-14
-4.3196e-11
7.96984e-11
-9.07232e-12
3.22165e-12
-2.00933e-12
-5.96938e-11
7.46754e-12
6.62134e-11
-1.38632e-11
6.89983e-11
6.02035e-11
-1.8871e-10
6.44295e-11
1.22842e-11
-1.55118e-11
5.78793e-11
3.32343e-12
1.04917e-10
-5.61832e-11
-2.11503e-11
1.43105e-10
3.89265e-11
-4.23144e-11
1.12433e-10
5.66132e-11
-1.06523e-10
1.85896e-10
-1.03504e-11
-1.27833e-10
3.12662e-11
2.71244e-10
-2.29389e-10
1.76155e-10
9.29556e-11
-1.44183e-11
-3.12508e-10
1.96073e-10
-1.43026e-10
4.29412e-10
1.14691e-11
1.27796e-12
-7.34985e-12
-6.38681e-12
-6.02009e-11
-7.21382e-14
7.89906e-11
9.48398e-12
-7.71947e-12
2.97709e-12
-1.91193e-12
-8.66466e-12
-2.90863e-12
5.95814e-12
-1.5045e-11
2.183e-11
1.87124e-11
3.23878e-13
-2.11742e-11
-3.9325e-12
2.36124e-11
-5.56873e-12
3.86082e-10
2.78796e-11
-2.43877e-10
-1.16986e-10
-6.7228e-11
-3.69444e-11
5.09012e-10
5.86135e-12
-5.30188e-11
-8.99815e-11
-3.19838e-11
1.22288e-10
2.42079e-11
-1.71148e-10
-3.65877e-10
3.06866e-10
-5.57851e-10
-2.3025e-07
-2.78071e-08
-2.06039e-09
1.82201e-07
3.98626e-07
3.0334e-07
-1.42372e-06
2.913e-07
-3.19115e-08
5.92063e-08
-6.89807e-08
-9.08589e-09
-3.95495e-08
2.5304e-07
6.52771e-08
1.56682e-07
2.64793e-07
-3.33481e-10
1.51062e-08
4.58524e-09
-2.16305e-08
5.55528e-09
-5.76453e-09
-1.26649e-10
-2.95126e-09
2.02811e-08
-4.92468e-08
1.82097e-08
1.05004e-08
-2.17088e-07
5.02592e-09
-2.90055e-10
2.05198e-08
-8.41232e-10
-1.11083e-08
-2.2793e-10
7.08262e-09
-2.76769e-08
1.92628e-08
-2.46507e-09
1.46416e-08
-1.01719e-07
5.61538e-09
-2.75356e-09
-6.79812e-10
-5.29981e-09
1.47617e-08
-5.07733e-09
1.39933e-08
3.64357e-09
2.34955e-08
4.77737e-08
2.14645e-08
-1.22984e-07
-1.21618e-09
2.09104e-08
6.95342e-10
3.47949e-08
-7.25683e-10
3.51533e-08
6.34084e-08
-9.64965e-08
7.40508e-08
-5.86209e-08
-5.72707e-08
-1.93263e-09
-5.57944e-09
-1.12128e-08
1.83069e-08
-2.02819e-10
-4.53317e-10
7.23792e-09
-1.43011e-07
-2.93633e-09
-1.29541e-07
-4.76504e-07
-1.11606e-12
-6.90436e-12
-5.91626e-13
9.31367e-12
-2.63183e-14
-1.2414e-12
1.25088e-13
-8.08779e-14
-1.37843e-12
1.65643e-12
-1.99897e-12
-8.92025e-13
-8.97709e-12
1.07685e-11
-3.69613e-12
-7.96743e-13
-6.37268e-12
2.07506e-12
4.67906e-11
-1.48142e-12
-4.13559e-14
7.72572e-12
-7.63528e-13
4.64953e-13
-1.01984e-12
7.38415e-11
1.93749e-12
2.71278e-12
-6.22575e-12
2.32925e-12
-3.2949e-13
-4.32096e-13
2.3832e-12
1.23584e-11
-2.08714e-12
3.88223e-11
3.65654e-13
-1.34468e-12
6.33923e-14
1.23922e-12
-3.09038e-14
2.12224e-12
1.00554e-12
-4.5363e-12
1.85995e-12
2.63728e-13
-4.92014e-13
-6.27337e-14
1.77424e-12
-4.74078e-13
-6.37958e-14
-1.98347e-13
-8.09555e-13
9.38892e-13
-8.67572e-13
1.85497e-13
9.20177e-13
-8.09356e-13
3.5853e-12
-6.89402e-12
-3.51463e-12
-2.70558e-12
8.85729e-13
-5.8427e-12
-1.28828e-12
-1.34987e-12
-2.76758e-12
-5.0728e-14
-4.04833e-12
-1.34331e-12
-1.89263e-13
5.94121e-14
3.22587e-12
-5.4637e-12
-1.24266e-13
-3.93606e-13
4.97964e-12
-2.10298e-12
-2.39718e-12
7.32085e-12
-4.59205e-12
-3.6463e-12
-1.12853e-11
-4.5309e-12
-3.01075e-12
5.81052e-13
-4.87607e-14
5.54373e-12
-1.31928e-11
5.42882e-12
-1.22689e-11
1.72126e-13
2.91064e-11
-7.78109e-11
-4.47404e-12
5.32926e-11
-1.5857e-10
9.12763e-11
9.64131e-11
-6.01905e-11
-1.76136e-10
6.76772e-12
-4.18071e-12
-5.79645e-12
-1.11149e-13
6.87954e-11
2.92706e-12
2.40081e-12
-7.6028e-12
-1.17245e-11
1.86447e-11
-3.72961e-11
1.16863e-10
-9.10422e-11
4.36209e-13
-9.53472e-12
-6.46661e-12
1.6076e-11
-6.12157e-12
-6.85887e-12
1.3207e-11
-3.57603e-12
-7.10808e-12
2.40886e-12
2.78462e-12
-9.06908e-12
2.29912e-11
-2.41226e-11
6.58265e-12
-9.5464e-12
2.38168e-11
-4.97438e-12
4.4475e-12
3.66831e-12
-2.85116e-14
5.24799e-12
-7.24798e-14
-8.72129e-12
1.06876e-12
-4.09391e-14
1.3475e-13
3.5816e-12
-2.24235e-14
-2.40851e-14
2.29775e-13
-3.08012e-13
1.73783e-12
-3.25811e-14
-1.10641e-15
-4.02987e-13
6.29844e-13
2.47354e-14
-1.0108e-14
-3.84964e-14
-3.32118e-12
3.35161e-12
-5.48921e-14
1.00904e-13
-4.8437e-14
5.34836e-13
-6.23332e-13
1.01663e-12
-1.62154e-12
1.85885e-12
2.76571e-15
-1.68874e-15
-6.03536e-17
5.34006e-15
-5.13925e-15
9.09168e-15
-3.01599e-15
4.38204e-16
-1.93105e-16
8.96119e-15
2.36912e-16
-5.70719e-16
-6.12421e-16
1.44782e-15
-1.1109e-15
-1.05069e-15
3.30517e-15
-2.52523e-16
-2.20232e-16
-1.97707e-16
7.85341e-16
-5.15178e-16
5.01312e-16
-7.68229e-16
6.04797e-16
-6.1013e-16
6.34397e-16
8.2651e-16
-1.65018e-16
-9.62308e-16
7.11855e-16
-6.22394e-16
-3.24173e-16
2.00894e-15
-2.24493e-16
-7.89511e-17
2.20912e-16
1.06393e-16
-4.73014e-16
3.36797e-16
-8.96873e-17
-8.66773e-16
9.99723e-16
-1.51335e-15
7.51789e-13
-7.35922e-13
-1.86709e-14
2.43036e-15
-4.57793e-12
-1.14207e-12
8.22901e-12
-6.24193e-13
-1.08075e-12
1.72225e-12
1.18333e-13
-2.46532e-12
3.09425e-12
2.41121e-13
-1.06014e-13
2.25918e-12
-6.08453e-15
5.50788e-11
9.62365e-12
1.00917e-10
-3.49991e-10
1.41916e-11
-7.16936e-14
3.19077e-11
6.39387e-12
-6.52722e-11
3.88626e-13
-1.40238e-12
-1.97317e-12
5.76937e-12
1.36728e-11
-5.3608e-12
4.53127e-12
-6.95755e-13
1.32948e-18
-6.12624e-19
-1.63205e-19
2.32678e-19
-1.81859e-18
-1.51518e-21
3.77798e-18
-2.59721e-18
8.66629e-17
-3.31603e-20
-5.51946e-23
-4.63245e-20
1.02332e-21
-2.3602e-21
-7.34725e-23
1.49545e-19
-1.50015e-19
3.03493e-22
2.07562e-22
-1.741e-19
3.53671e-19
-2.38819e-18
1.337e-18
-3.31957e-20
7.7191e-19
-3.05654e-18
4.98915e-20
3.70709e-21
7.40758e-20
-3.1571e-21
1.2052e-18
-2.29449e-18
-1.63453e-20
6.80316e-19
-5.31611e-19
-8.43201e-19
3.09046e-21
-5.60739e-20
-4.96526e-21
6.20786e-14
-4.84505e-14
-5.82626e-14
8.1258e-14
-8.33332e-14
-6.28362e-14
2.41773e-13
-1.13597e-13
-9.62462e-14
1.43537e-13
4.5639e-14
-2.66365e-13
3.97511e-13
-3.78199e-13
-2.25882e-13
5.95249e-13
-2.02551e-13
-8.6333e-12
-4.34226e-12
7.1942e-13
1.86148e-11
2.96283e-14
1.73413e-13
-1.38508e-13
2.53721e-12
3.12202e-12
-8.57292e-12
-5.78631e-13
1.2671e-11
-6.29874e-14
-6.21225e-12
-7.05484e-12
1.23101e-11
-1.87046e-12
1.5664e-13
-1.06354e-11
-7.80582e-12
2.25053e-11
-2.60443e-11
-6.09547e-12
3.10729e-11
-1.4267e-11
-8.53939e-12
-1.55473e-11
2.79169e-11
-1.6228e-11
3.34913e-12
-2.24496e-11
1.21264e-11
-1.37924e-11
3.62275e-11
-1.51383e-05
-1.21355e-05
-1.59378e-05
4.08738e-05
-7.73293e-06
-3.06887e-05
1.46896e-05
-1.22594e-05
-1.37734e-05
-3.01727e-05
-2.82998e-05
4.27739e-05
-1.44703e-05
-4.62318e-05
-9.62616e-06
-3.08609e-05
-3.77104e-05
-9.20672e-06
6.59343e-06
2.63492e-05
-2.38556e-05
8.6689e-06
1.79227e-05
-3.61154e-05
5.79159e-06
8.8877e-06
7.95796e-06
-2.52992e-05
2.34016e-05
-2.9408e-05
4.65635e-05
2.86689e-05
2.76901e-05
-3.81457e-05
1.97607e-05
3.51855e-05
-1.99012e-05
2.25686e-05
-3.00864e-05
-4.11512e-05
-1.29057e-05
-5.52698e-07
5.27812e-05
5.78817e-06
-2.32049e-05
-1.2722e-05
1.27724e-06
4.05391e-06
-1.94739e-06
-1.48237e-05
4.39246e-06
2.16679e-07
6.71231e-06
9.30022e-06
-1.79605e-05
1.79831e-05
-8.14047e-06
3.88787e-05
-4.79646e-05
6.1545e-05
-1.61899e-05
-1.92159e-06
2.2724e-05
-7.40749e-06
9.9662e-06
2.15664e-05
-4.84429e-05
-2.27969e-06
8.09698e-06
8.49682e-06
-1.7287e-05
5.16187e-06
-6.79083e-06
2.21806e-05
1.08463e-05
2.52749e-05
-1.48677e-05
2.24221e-05
9.47987e-06
-2.45106e-05
4.26817e-05
-1.95597e-05
-2.27987e-06
-1.99964e-05
4.15e-05
-1.83376e-06
2.72125e-06
3.5853e-06
3.55406e-06
-9.15974e-06
5.3533e-06
3.77232e-08
5.38919e-06
-2.16881e-05
1.99764e-05
-1.03941e-05
4.21401e-05
-8.26891e-06
-2.06437e-06
1.07233e-05
-1.68329e-07
1.27777e-05
1.25928e-05
-2.12868e-06
1.10143e-05
1.25928e-05
-3.95645e-06
-1.13389e-05
3.41827e-05
-4.16403e-06
6.21669e-06
7.60964e-06
1.58967e-06
-1.54716e-05
-3.13803e-06
7.43042e-06
1.63989e-06
-9.33518e-06
5.28678e-06
-2.31655e-05
1.30712e-05
1.03347e-05
8.55105e-06
-3.20217e-05
2.91412e-06
1.80803e-05
2.82906e-06
1.0067e-05
2.08786e-05
1.85126e-05
8.00711e-06
3.09271e-05
1.27175e-05
8.61252e-06
3.063e-05
1.21778e-05
4.52157e-06
1.35446e-05
-7.03946e-07
-2.12832e-05
-1.33871e-05
-3.20581e-05
-6.36179e-06
-1.06077e-06
9.19663e-06
-4.23351e-06
-4.48884e-06
-8.64689e-06
-1.68668e-05
-4.48221e-06
-1.14443e-05
1.14061e-05
-8.84784e-06
-4.32867e-06
6.83978e-06
-1.16683e-05
-1.20438e-05
-1.68244e-05
4.2262e-06
-2.98708e-05
-1.17789e-05
-1.77887e-05
-1.82006e-06
7.32204e-06
1.08212e-05
-2.67837e-05
-2.72927e-06
1.16244e-05
2.04116e-05
-3.69311e-06
5.24577e-06
1.04201e-05
4.78334e-06
9.45685e-06
-1.79353e-05
3.15508e-06
6.84479e-06
3.96198e-06
-8.98539e-06
8.17045e-06
-1.59833e-05
8.55795e-06
-1.5083e-05
9.99407e-06
3.10781e-06
7.71041e-06
1.23215e-05
9.43918e-06
2.62069e-05
-2.68849e-06
-3.52413e-05
1.07782e-05
-1.90761e-05
-2.46786e-05
7.07344e-05
-1.45852e-07
-2.04677e-05
-1.98604e-05
1.96884e-05
5.53096e-07
3.66332e-06
-4.37673e-05
-2.72585e-05
2.24494e-05
-5.91646e-05
-6.01728e-06
-1.51199e-05
3.75435e-06
1.74107e-05
3.32462e-06
-9.57501e-06
2.5984e-07
-2.28059e-05
1.11661e-05
-8.85449e-06
-7.86118e-06
1.78774e-05
-2.76886e-05
9.30581e-06
4.78621e-05
1.33707e-06
-7.19566e-05
2.58334e-05
3.32657e-05
3.1288e-05
-5.3473e-05
4.75311e-05
-7.56378e-06
-9.33866e-06
2.0954e-06
1.03141e-05
9.46028e-06
-1.71465e-06
-9.26655e-06
1.54863e-06
-1.55356e-05
-6.00794e-07
2.55796e-05
-2.17003e-06
-1.52044e-05
1.1804e-05
-3.82725e-05
1.72434e-05
-2.52921e-05
3.65226e-05
-1.4813e-05
1.55944e-05
-3.00721e-06
1.44208e-06
-3.14833e-05
3.73758e-05
-7.40979e-05
2.77024e-05
-9.72485e-06
-9.91716e-06
-3.11254e-06
2.29021e-05
-8.98091e-07
-8.86161e-06
3.84253e-07
-9.48741e-06
5.65708e-06
-2.8972e-05
1.32791e-05
2.35277e-05
1.93162e-05
-7.36325e-05
-6.98053e-05
-1.21279e-05
-1.90711e-05
2.16118e-06
6.05753e-06
7.0209e-06
1.5328e-08
-7.29975e-06
2.47336e-07
-1.44631e-05
-4.58881e-06
2.60274e-05
1.30136e-07
-1.46522e-05
5.09459e-06
-2.5835e-05
1.34133e-05
-2.7353e-05
2.78907e-05
-2.80928e-05
9.82138e-07
-6.85029e-05
-3.69096e-05
-8.48943e-06
-2.97945e-05
2.24053e-06
-3.84352e-05
5.03679e-07
-1.35122e-05
2.00316e-05
-6.57273e-05
3.84529e-05
-7.52391e-05
-5.50021e-06
5.63592e-06
-7.51536e-06
3.21796e-06
5.37927e-06
1.02753e-06
-1.11711e-05
2.13165e-07
-7.262e-07
3.17071e-06
4.02935e-06
2.35724e-06
4.42152e-06
-5.87131e-06
-8.42751e-07
7.68039e-06
-4.12918e-06
7.28548e-06
-1.01531e-05
-8.41787e-08
-9.99447e-06
-2.94464e-06
1.72928e-05
2.52963e-09
-1.11877e-07
2.53654e-08
-5.85322e-07
3.17889e-07
1.88005e-06
1.19778e-07
-2.56743e-06
1.00056e-05
-4.50805e-07
2.91184e-07
-2.83072e-07
9.4871e-06
-3.38713e-08
-2.45604e-08
3.16478e-08
5.21164e-08
9.39477e-09
9.02018e-09
-5.31573e-08
4.9958e-08
1.24824e-08
-1.85819e-08
5.85924e-09
6.55941e-08
2.50642e-08
-3.54803e-08
-2.43709e-08
1.3539e-07
5.15905e-08
-9.14441e-09
-1.16111e-08
-9.54749e-08
2.3096e-07
5.02078e-08
-3.94112e-08
-1.16007e-07
-1.15682e-07
1.72798e-07
-1.78257e-07
3.74454e-08
5.84262e-09
4.98392e-08
-5.50792e-07
2.19012e-07
-4.95403e-07
8.89598e-08
1.79953e-07
3.36355e-08
1.14214e-07
-2.41494e-07
-9.69391e-08
1.78031e-07
1.04763e-07
-3.61816e-08
1.18069e-07
-2.00612e-07
-1.47721e-07
5.30479e-07
1.77402e-07
-2.60213e-07
2.34403e-07
-1.34194e-07
3.13644e-07
-2.16093e-07
-5.73166e-07
7.57004e-08
7.14642e-07
-9.99284e-08
-4.24791e-08
1.36042e-07
-2.43008e-07
-4.31073e-07
-2.21133e-07
-5.70099e-08
2.80851e-07
-2.20878e-07
7.26613e-08
-1.49437e-07
-4.75789e-08
1.40791e-07
-3.94511e-08
-3.31143e-07
1.61536e-07
-4.44281e-07
3.98764e-07
-2.55595e-07
-1.5996e-07
1.08676e-07
2.82466e-07
-1.34779e-07
-1.16854e-07
-2.53423e-09
-1.14471e-06
2.49845e-08
9.85195e-07
5.01704e-07
1.23708e-07
2.2576e-07
7.81445e-08
2.15718e-07
-3.35983e-08
5.4449e-09
1.48479e-07
6.36918e-08
-9.96108e-08
1.63817e-07
2.35881e-12
7.00491e-11
6.87608e-12
-9.70967e-11
1.99248e-11
1.29502e-10
-1.89459e-12
7.102e-12
4.70957e-11
4.89698e-12
7.08706e-11
-8.67043e-11
6.08664e-11
3.71787e-10
4.0454e-11
1.07999e-11
1.30528e-10
1.394e-14
4.74222e-14
6.6658e-15
-6.01775e-14
-1.66374e-15
2.96638e-15
9.55805e-14
7.53637e-14
-1.66604e-15
4.86545e-14
-4.66766e-14
7.45426e-15
-2.18276e-14
1.70894e-13
-4.89916e-14
-7.45129e-14
-8.77544e-15
-1.47111e-14
-7.67624e-15
3.82554e-14
-9.69624e-15
-1.19505e-14
1.88707e-14
-3.4906e-15
-4.38784e-15
-9.28054e-15
-1.54725e-14
1.76847e-14
-5.89425e-15
-1.41451e-14
4.32416e-15
-1.16388e-14
-1.17911e-14
7.4141e-15
2.86684e-15
-1.05375e-14
1.02299e-14
-2.6398e-14
2.0318e-15
9.65982e-14
1.72208e-14
1.91572e-13
-1.30675e-12
7.05364e-13
2.23558e-13
-2.6127e-13
6.02028e-12
-5.30242e-14
-8.27484e-12
3.15464e-14
4.82357e-12
-3.46509e-13
1.4369e-13
5.61251e-13
-1.94071e-13
-5.1259e-13
4.08465e-13
-7.95633e-13
7.30112e-13
-6.63253e-12
-4.21282e-12
-2.89945e-13
1.00074e-11
-5.71562e-13
3.58897e-12
-1.53332e-11
-4.38081e-12
-1.02777e-12
-2.90665e-11
6.10064e-12
1.28784e-11
1.01794e-11
-1.07698e-10
3.70911e-12
8.6387e-13
5.58084e-12
-3.12817e-07
-1.10605e-08
1.58672e-07
1.46276e-07
6.65909e-08
2.64435e-08
-3.66676e-07
4.07743e-08
-4.53105e-09
2.82378e-08
3.40067e-08
-5.10115e-08
2.15124e-08
1.03104e-07
-3.24422e-08
8.21377e-08
-1.18692e-08
-2.02885e-06
-1.81648e-07
7.04806e-09
1.94257e-06
3.74431e-06
3.76661e-06
-9.53537e-06
3.99471e-06
-4.30188e-07
1.00947e-06
-1.0342e-06
-2.52694e-08
-7.1718e-07
3.59471e-06
6.7865e-07
2.0243e-06
3.95683e-06
-2.82129e-08
2.45337e-06
-2.91194e-06
3.56725e-08
1.53744e-06
-1.75892e-06
-9.05381e-09
-3.09583e-06
7.73669e-06
3.53144e-06
2.50817e-06
-8.94471e-06
3.13843e-06
2.90026e-07
-8.45906e-08
3.34216e-07
-1.19513e-06
-3.55031e-06
-3.35932e-06
9.07694e-06
-8.25835e-09
3.06662e-08
-1.30795e-06
-3.61761e-06
-1.63967e-07
-1.83373e-06
1.2391e-06
-1.19321e-08
8.03192e-07
-4.33217e-06
1.37248e-06
-4.63023e-06
2.2665e-06
4.71897e-07
-3.05432e-07
3.69141e-06
1.4066e-06
-9.66154e-06
2.14386e-06
-1.22517e-07
-2.74663e-06
6.88471e-06
-4.18486e-06
-8.20672e-10
2.89646e-07
-1.04332e-07
-7.15456e-09
-4.42764e-06
-1.13727e-06
-1.55752e-06
-2.19698e-07
-2.1114e-06
-4.95905e-06
2.21739e-06
-1.36229e-10
2.67934e-06
-9.46275e-06
-2.54618e-06
-1.85798e-07
7.72924e-06
7.76571e-06
1.17236e-08
2.11475e-07
9.47454e-08
-3.71287e-11
-2.74565e-10
2.18495e-10
1.16101e-10
-2.25199e-10
2.48826e-10
-1.45487e-11
1.06607e-10
-5.71738e-10
-1.89226e-10
-1.0906e-10
3.67636e-10
-1.37616e-10
-8.77943e-11
1.09258e-10
-9.27558e-11
2.42918e-10
-2.40478e-12
-2.25909e-12
-1.91743e-12
2.38554e-13
-2.20359e-12
-4.46627e-13
2.7374e-13
-3.8339e-12
-3.27482e-12
2.11676e-12
1.08713e-12
1.99562e-12
-1.0019e-11
4.63689e-13
-1.11173e-12
1.76854e-13
1.74496e-13
3.429e-12
-8.87801e-14
-3.99741e-12
1.81267e-12
-1.9754e-12
1.73888e-13
-5.81935e-12
9.91667e-12
-1.07581e-11
7.58597e-12
-5.29949e-13
1.29822e-12
-2.63648e-11
-5.35897e-13
-4.42626e-13
-1.42982e-12
2.12409e-14
-2.0282e-12
-3.74306e-12
-1.35182e-11
-2.85055e-12
-1.5581e-10
4.94138e-11
6.84674e-12
-1.36444e-10
5.36791e-11
-1.15232e-12
1.22231e-10
-4.14484e-10
-3.17888e-11
-4.48633e-11
6.75042e-11
-1.32156e-10
7.21038e-12
9.73783e-12
-1.96619e-11
2.00629e-13
-1.26257e-13
1.55893e-12
-2.48793e-12
3.09427e-13
2.25833e-12
-3.08226e-12
-1.13915e-12
-3.19988e-12
4.26109e-12
-1.06381e-11
-1.40249e-12
3.72577e-13
-5.33985e-12
4.23054e-13
3.54811e-13
-1.92706e-14
-7.6889e-13
-4.97282e-13
-3.94849e-14
-1.50801e-13
2.14774e-13
-2.18625e-13
-2.65568e-13
4.29471e-13
-1.74973e-13
-4.69971e-13
-1.28608e-15
8.57304e-34
3.72096e-14
5.75534e-15
9.42251e-34
9.71511e-14
1.12225e-14
-2.09604e-33
-1.56476e-33
5.15483e-14
1.6902e-13
-9.95733e-14
1.72233e-13
4.53234e-14
-4.90031e-14
2.30193e-13
1.64546e-13
0
0
0
0
1.27512e-13
3.39659e-13
-2.0104e-13
3.54533e-13
3.90006e-14
-1.23691e-36
-2.02909e-36
0
2.37712e-13
1.70673e-13
-3.90006e-14
7.3369e-13
-1.97503e-28
9.42177e-12
-2.21875e-13
-1.0289e-12
-1.67329e-13
-1.11807e-12
-1.70314e-12
1.41476e-11
-1.21026e-13
-9.81248e-13
-2.06235e-12
2.32884e-12
-2.24389e-14
6.5884e-13
-2.9815e-12
2.91491e-13
-4.88127e-13
-1.07696e-12
-1.32092e-12
1.27983e-13
-2.60675e-12
4.09834e-12
-2.00368e-12
3.99819e-17
1.60628e-15
-1.59688e-15
-8.16418e-18
3.74136e-14
-1.01437e-16
1.76531e-14
1.64698e-15
5.9687e-14
7.77192e-16
4.53401e-17
-8.99713e-16
9.09193e-15
-2.69809e-15
1.77377e-14
-3.71399e-18
-1.29267e-17
-5.03222e-17
-1.60422e-17
1.32424e-19
-6.30718e-20
-1.24296e-17
-4.89149e-17
3.07699e-17
-1.49531e-17
1.49042e-17
1.59367e-17
-3.59281e-17
-6.00803e-17
3.12085e-20
2.48727e-19
-1.20069e-19
-3.24405e-20
1.60989e-20
2.69713e-20
3.44825e-19
1.03409e-18
-1.19762e-18
-9.84664e-18
1.74311e-15
-1.94027e-16
-1.79121e-15
-2.5973e-15
-1.05392e-15
4.39797e-15
-1.39423e-16
-5.46983e-15
-3.37732e-14
5.5533e-15
2.58928e-14
6.89981e-15
-4.69516e-14
-5.64014e-15
9.19717e-15
2.49864e-13
-2.51109e-13
-6.00678e-16
8.63549e-16
-1.94184e-12
-1.79527e-14
-2.08646e-13
-6.3978e-13
1.24063e-15
2.25556e-16
-2.69979e-15
2.14787e-15
3.17205e-16
4.14634e-16
1.11018e-15
-1.48534e-15
8.32421e-16
1.64815e-15
-1.92528e-14
2.03414e-15
-2.2697e-13
2.98684e-09
3.95118e-11
-1.02037e-09
4.98856e-11
-2.81077e-09
-5.29579e-10