/*--------------------------------*- C++ -*----------------------------------*\
| =========                 |                                                 |
| \\      /  F ield         | OpenFOAM: The Open Source CFD Toolbox           |
|  \\    /   O peration     | Version:  v2012                                 |
|   \\  /    A nd           | Website:  www.openfoam.com                      |
|    \\/     M anipulation  |                                                 |
\*---------------------------------------------------------------------------*/
FoamFile
{
    version     2.0;
    format      ascii;
    class       volScalarField;
    location    "0.3";
    object      alpha.water;
}
// * * * * * * * * * * * * * * * * * * * * * * * * * * * * * * * * * * * * * //

dimensions      [0 0 0 0 0 0 0];


internalField   nonuniform List<scalar> 
6576
(
1
1
1
1
1
1
1
1
1
1
1
1
1
1
1
1
1
1
1
1
1
1
1
1
1
1
1
1
1
1
1
1
1
1
1
1
1
1
1
1
1
1
1
0.993428
0.992818
0.995247
0.984452
0.974124
0.995235
0.995247
0.995239
0.974238
5.65652e-47
8.35318e-47
5.00981e-47
5.65652e-47
4.44853e-47
1.08117e-47
4.0488e-47
2.57335e-45
2.57335e-45
2.57335e-45
2.6897e-45
2.59165e-45
2.57723e-45
2.57646e-45
1.96149e-43
1.0439e-43
1.0439e-43
1.04575e-43
3.22969e-42
1.28852e-42
1.18381e-41
0.00126165
0.00134702
0.00125733
0.00263709
0.00153223
0.00138972
0.00263958
0.00178792
0.000938812
0.0002891
0.00178792
0.00178792
0.00130293
0.000607161
0.0777326
0.143619
0.141364
0.138277
0.0533094
0.0984269
0.0440972
0.0462804
0.128052
0.139861
0.0402651
0.0146145
0.0360355
0.0463827
0.670671
0.670671
0.670671
0.612138
0.670671
0.552386
0.671414
0.947966
0.99876
0.999192
0.999373
0.999637
0.999488
-1.41453e-28
-1.71161e-72
-5.57128e-35
-7.5099e-73
-6.05893e-73
-2.70256e-38
2.29859e-28
0.28351
0.852582
0.968159
0.969057
0.908288
0.999977
0.999498
1.67799e-57
-1.27514e-79
2.09771e-105
-2.82564e-33
-8.12067e-32
-5.85424e-31
-3.67706e-31
3.51031e-09
2.41782e-09
7.72594e-09
1.17747e-08
5.99744e-09
2.36509e-09
1.28083e-08
1.75058e-08
9.98542e-09
1.58561e-08
2.00979e-09
3.16763e-09
1.47324e-08
6.88945e-09
2.82473e-09
1.14835e-09
1.11363e-09
1.77981e-08
1.07384e-08
9.87235e-09
1.7752e-08
4.72914e-09
2.35469e-09
4.15546e-09
3.51146e-09
1.41716e-09
2.31112e-10
9.92481e-10
2.32384e-10
2.33485e-10
7.09617e-10
3.12534e-10
2.57689e-10
5.34609e-10
6.29148e-10
4.86164e-10
5.34123e-10
1.11236e-10
4.4773e-11
1.55944e-10
1.34851e-10
1.03716e-10
1.43692e-10
2.00276e-11
5.66489e-11
2.2441e-10
2.07338e-16
2.07338e-16
2.07338e-16
2.0771e-16
2.07338e-16
5.73484e-16
5.73607e-16
2.74202e-15
2.50276e-16
6.41556e-18
9.48694e-17
6.36761e-18
8.17458e-18
2.06058e-16
6.41556e-18
1.50881e-15
1.49044e-13
1.87556e-13
1.59283e-13
1.19382e-13
1.6158e-14
7.62589e-15
1.6158e-14
4.38368e-14
8.87959e-16
2.4633e-14
5.21883e-14
5.80965e-18
2.10876e-16
1.10852e-15
3.9404e-27
7.68564e-23
1.54275e-20
7.23578e-21
2.43494e-23
2.20953e-23
2.33036e-23
1.67081e-13
3.05643e-14
6.77446e-14
1.09042e-13
1.34397e-14
2.97837e-14
3.61048e-14
3.02672e-13
1.08833e-13
5.8465e-13
3.69359e-13
5.55319e-13
5.55449e-13
1.8711e-13
7.58669e-13
9.25257e-13
1.36552e-12
5.55688e-13
2.14099e-14
7.15595e-13
8.87147e-13
1.01968e-11
1.06843e-11
1.05642e-11
3.98403e-12
1.49428e-12
9.00831e-12
4.39825e-12
2.04896e-10
2.00473e-10
1.2914e-10
2.14078e-11
7.73416e-11
2.45567e-12
7.68954e-11
1.37841e-10
3.5522e-12
1.84602e-09
1.10813e-09
1.84574e-09
6.3724e-10
1.78096e-09
8.01586e-10
1.25794e-09
2.66083e-05
5.45347e-06
3.18364e-07
1.92342e-05
4.28055e-05
4.19953e-06
4.62518e-06
0.999991
0.999991
0.999991
0.99999
0.99999
0.999993
0.999993
0.999979
0.999988
0.998962
0.999937
0.995886
0.997799
0.999234
0.996019
0.996804
0.922216
0.928985
0.922213
0.987524
0.956581
0.957314
0.956977
0.932581
0.89701
0.99994
0.999235
0.997412
0.99428
0.954234
0.986333
0.996702
0.954234
0.983402
0.994243
7.5532e-10
1.20562e-08
1.94014e-08
2.83725e-09
7.40995e-10
1.69146e-08
1.51802e-08
0.189255
0.048214
6.65652e-05
0.104257
0.00432936
9.81562e-05
6.65314e-05
6.65647e-05
6.7496e-05
3.05728e-10
4.39493e-11
4.08893e-11
2.13607e-11
5.90471e-11
2.50739e-10
2.14496e-11
0.910137
0.888392
0.677076
0.624846
0.275408
0.277786
0.891293
0.978346
0.990712
0.964108
0.995256
0.993696
0.996228
0.99623
0.994443
0.995071
0.999479
0.999714
0.99974
0.999718
0.999716
0.999114
0.992916
0.998887
0.997417
0.977174
0.977188
0.977174
0.919596
0.907398
0.83773
0.600878
0.999987
0.999983
0.99995
0.991922
0.999569
0.999913
0.999907
0.999877
0.999944
0.950864
0.950805
0.950773
0.942417
0.584756
0.894048
0.758041
0.0693884
0.0697186
0.0994853
0.0994793
0.0691586
0.0704009
0.0691788
0.000199078
0.000123245
0.00111306
2.6859e-05
1.05606e-05
1.32467e-05
1.05551e-05
0.000691768
3.87566e-05
1.67911e-07
1.15279e-07
1.14998e-07
2.0501e-07
4.60186e-06
5.91301e-07
1.18362e-06
0.000313497
5.3413e-05
0.000167783
0.000127803
4.90884e-05
0.000544148
5.85925e-05
8.75279e-05
0.000611748
0.0271348
0.0264801
0.149104
0.21256
0.0286976
1.24506e-05
0.0945615
0.977871
0.977847
0.977871
0.918396
0.976139
0.947698
0.977789
6.5284e-07
1.20424e-07
1.62983e-07
8.44564e-08
6.48714e-07
2.3234e-07
1.24446e-06
1.44999e-06
1.44999e-06
1.44999e-06
9.06891e-07
1.0574e-06
1.21477e-06
1.38458e-06
1.95989e-06
1.40422e-06
2.00446e-06
1.65299e-06
1.95989e-06
6.7973e-07
2.06818e-06
5.24469e-08
2.30725e-07
4.88203e-07
5.20281e-08
5.34235e-08
1.20485e-07
6.31163e-08
6.08874e-08
5.31817e-08
2.08048e-06
1.29187e-06
3.65804e-07
3.68589e-07
3.6567e-07
7.09311e-07
2.05497e-06
0.00161976
0.0156479
0.00319977
0.00149743
0.00219233
0.00155157
0.00387248
1.5085e-05
7.39912e-08
7.79853e-05
0.000173912
0.000203884
1.31067e-07
0.000209986
0.000159025
0.000165376
0.000673991
0.000128412
0.000183711
0.000146166
0.000170122
0.000921676
0.000171202
0.000143277
0.000770475
0.00156237
0.000872004
0.000102203
9.79331e-05
0.000118523
2.08468e-05
0.000596968
0.00203069
0.00209573
2.62994e-08
1.29207e-08
5.3361e-08
1.28799e-08
1.4534e-08
3.42992e-08
1.3764e-08
4.28564e-07
8.64678e-08
4.25263e-07
1.34313e-08
1.2661e-08
1.28799e-08
1.28799e-08
2.17857e-07
1.49858e-07
1.2973e-08
1.21768e-08
1.21989e-08
1.21989e-08
1.21768e-08
1.21782e-08
1.58674e-08
1.21782e-08
1.2185e-08
2.19221e-08
2.39352e-08
3.84805e-08
1.2771e-08
1.30609e-08
3.59266e-08
1.24327e-08
1.22878e-08
5.49093e-08
3.84805e-08
4.92722e-08
7.13673e-08
4.91658e-08
1.31836e-07
1.79638e-07
1.64577e-07
4.81027e-08
2.13803e-06
2.13871e-06
2.1384e-06
1.64299e-07
8.1295e-07
2.16248e-07
6.71728e-07
2.1384e-06
2.11856e-06
1.99276e-07
1.43776e-07
5.16592e-07
6.50759e-08
5.18467e-07
5.61179e-08
2.7448e-07
1.73009e-07
1.5181e-07
5.50092e-08
6.25204e-08
2.10346e-10
2.24092e-10
1.23432e-08
3.01005e-09
4.14454e-10
4.42571e-10
3.94773e-10
4.13812e-10
4.6066e-08
1.786e-08
1.66286e-10
1.66286e-10
6.75131e-11
2.36265e-12
1.65892e-11
4.3667e-11
5.0238e-11
5.02381e-11
2.51419e-11
9.3579e-12
2.76835e-11
1.56153e-11
2.4708e-11
1.90773e-11
1.6031e-11
3.68696e-12
4.50411e-12
8.8834e-12
1.46465e-11
4.16905e-11
3.67782e-08
7.03395e-08
4.98153e-10
7.24516e-08
1.65122e-08
1.6068e-11
9.68252e-05
1.66858e-05
4.02832e-05
1.11271e-07
6.05551e-06
8.75706e-06
3.15292e-06
1.48761e-12
6.54328e-13
9.9616e-13
3.35122e-13
1.11377e-15
5.39913e-16
5.39784e-16
6.54228e-13
1.51243e-12
1.4773e-12
1.41167e-13
2.18791e-12
2.63039e-13
7.66816e-13
1.48503e-14
6.87356e-13
1.25368e-08
1.17561e-08
1.97248e-08
1.14795e-08
3.23341e-08
1.15405e-08
1.14954e-08
7.78398e-07
1.31133e-07
7.86387e-07
2.94841e-07
1.76387e-07
1.86817e-07
1.76646e-07
2.98618e-07
5.36503e-07
1.53565e-06
1.53576e-06
5.93794e-07
2.95249e-07
4.12664e-07
0.807525
0.831902
0.733691
0.960232
0.961449
0.961062
0.960679
0.987376
0.962475
0.936138
0.975302
0.975247
0.978081
0.987294
0.975631
0.94505
0.712831
0.974945
0.392487
0.445974
0.392562
0.59166
0.392487
0.720545
0.721267
0.729329
0.911434
0.729329
0.808467
0.735706
0.789117
0.912659
0.90997
0.911621
0.736812
0.479088
0.617335
0.479251
0.881468
0.479201
0.720257
0.764082
0.883679
0.757683
0.757679
0.819138
0.940597
0.957937
0.89701
0.89701
0.956479
0.988002
0.994503
0.985017
0.965991
0.999086
0.993148
0.999033
0.97407
0.983991
0.897107
0.957321
0.998986
0.988129
0.996859
0.996859
0.996134
0.997585
0.995978
0.995875
0.999456
0.999476
0.99804
0.999073
0.994597
0.999704
0.991461
0.997702
0.996489
0.999686
0.999688
0.996772
0.998126
0.998395
0.999716
0.999715
0.97719
0.970231
0.976903
0.629414
0.649193
0.649193
0.649193
0.648535
0.641494
0.485123
0.756439
0.756546
0.756527
0.678711
0.756546
0.756376
0.756376
0.649046
0.596194
0.590308
0.756546
0.584713
0.618233
0.450635
0.448569
0.618644
0.618604
0.448569
0.448569
0.616486
0.609623
0.646495
0.647438
0.648768
0.497529
0.502863
0.482461
0.480552
0.503752
0.644209
0.500883
0.499784
0.500106
0.499819
0.500021
0.528726
0.528472
0.527455
0.594215
0.30951
0.582549
0.461425
0.515279
0.617927
0.618604
0.0681586
0.0856966
0.074797
0.0883746
0.0697171
0.0695036
0.0711266
0.126764
0.00104239
0.228606
0.00218787
0.231197
0.00104457
0.0632247
0.00449563
0.00106498
0.0098512
0.00719818
0.00106409
0.00661929
0.00365024
0.0207335
0.0228344
0.0226075
0.00726249
0.0231638
0.0406587
0.00978624
0.0106212
0.0180319
0.0482644
0.0466882
0.0465918
0.0280609
0.0482644
0.0327514
0.0961709
0.0327397
0.0697927
0.0431679
0.0377697
0.0327394
0.0327399
0.0530019
0.0379462
0.000982525
0.124849
0.0759639
0.126928
0.0854423
0.0568094
0.0186733
0.0287587
5.34867e-06
7.76513e-06
5.34814e-06
5.34867e-06
1.32998e-05
5.34867e-06
5.34814e-06
8.89912e-10
6.21679e-09
5.30653e-09
1.14455e-09
2.06936e-09
2.00842e-09
1.54637e-09
7.58981e-10
4.88942e-10
1.04028e-09
2.81242e-10
2.47999e-10
2.33615e-10
5.19558e-10
2.4047e-10
1.92008e-09
5.73947e-09
2.44413e-10
1.53484e-09
1.68918e-08
8.36573e-08
1.29077e-08
1.54411e-08
1.73057e-08
1.03704e-08
8.96299e-09
2.32985e-08
3.56967e-08
1.28671e-08
9.36548e-08
2.32714e-07
2.38864e-08
3.99371e-08
0.00215489
0.00162572
0.000299983
0.00112163
0.00115432
0.000245527
0.000520859
0.0448384
0.0510977
0.051111
0.0448297
0.0448427
0.0502264
0.0511115
0.0144944
0.00808959
0.0308943
0.0510473
0.051111
0.0492124
0.0511115
0.0429614
0.0350689
0.0350719
0.0497368
0.035864
0.0454752
0.039528
0.0438784
0.0505772
0.0503352
0.0196642
0.0154155
0.0503352
0.031229
0.0245793
0.0235603
0.0405703
0.0449275
0.0178252
0.0449366
0.0447603
0.00136041
0.00140768
0.00218878
2.15657e-06
2.15614e-06
2.15618e-06
1.80688e-06
7.1107e-07
1.60851e-06
2.15491e-06
2.05649e-08
2.52163e-08
1.78028e-08
1.63346e-08
1.78772e-08
2.64862e-08
1.56801e-08
1.57919e-08
1.44604e-08
3.34954e-08
3.80664e-08
7.91364e-08
1.5897e-08
1.54039e-07
1.71373e-08
1.45116e-08
4.37179e-08
1.02274e-06
6.8829e-07
2.13877e-06
6.8303e-07
1.75435e-06
2.13877e-06
2.78925e-07
2.30028e-08
3.55637e-08
2.20013e-08
1.10808e-07
1.82736e-08
4.15276e-08
1.74818e-08
1.74481e-08
1.74481e-08
1.74481e-08
1.74483e-08
1.74481e-08
5.86702e-10
2.24764e-09
-7.48894e-29
2.76909e-08
2.07824e-08
2.33538e-09
8.8183e-09
0
3.1739e-08
1.61678e-08
-7.37511e-32
1.30873e-08
4.86901e-09
0
1.95062e-07
5.46127e-08
1.24226e-08
1.12826e-08
5.53201e-08
2.16003e-08
3.08265e-08
4.30116e-08
1.90373e-08
3.56073e-13
7.46516e-10
4.00503e-10
1.43024e-12
2.03025e-10
3.75649e-11
3.70195e-11
6.30787e-13
1.05273e-14
1.02985e-12
1.64283e-17
3.20041e-13
4.39076e-13
6.9932e-13
3.94386e-15
2.08104e-16
1.35777e-15
2.50228e-16
7.56444e-14
3.44321e-12
1.73879e-11
2.63382e-11
2.71346e-11
1.77902e-11
1.73394e-11
1.13563e-11
8.99976e-12
6.85454e-09
3.56492e-08
9.0496e-12
1.9008e-11
8.99976e-12
1.24311e-11
1.23856e-11
9.97659e-12
9.98403e-05
0.000143367
0.000313482
4.87201e-05
0.00014273
4.83741e-05
0.000294429
0.000132079
4.83852e-05
1.34431e-17
1.10841e-17
1.10846e-17
5.48224e-17
2.52122e-16
4.64554e-17
2.06805e-16
5.1603e-14
6.625e-15
8.04355e-15
1.01114e-15
6.25709e-14
6.10745e-13
4.20978e-14
1.35036e-12
3.56866e-12
1.98369e-12
2.98342e-12
9.04893e-12
2.54613e-12
2.69136e-12
4.93984e-12
4.32908e-12
1.79138e-10
7.83101e-11
1.57422e-10
3.27162e-11
6.67668e-11
1.23674e-10
8.11955e-11
0.216558
0.116587
0.116587
0.117635
0.338259
0.25627
0.355853
0.306195
0.301042
0.705857
0.459505
0.352952
0.401138
0.597232
0.0394973
0.679813
0.3779
0.246845
0.246718
0.246861
0.246935
0.246565
0.383451
0.254298
0.253507
0.260014
0.253749
0.348851
0.554813
0.723118
0.363602
0.254298
0.758402
0.392487
0.7331
0.730537
0.479201
0.866938
0.911234
0.137244
0.161578
0.224492
0.170864
0.118643
0.276314
0.27722
0.464992
0.618644
0.618644
0.528851
0.52855
0.268904
0.273652
0.220786
0.227906
0.52855
0.499784
0.528771
0.528851
0.52827
0.528276
0.52827
0.525142
0.528276
0.527369
0.528242
0.436557
0.528276
0.152132
0.499264
0.409752
0.407789
0.413723
0.498994
0.499364
0.499266
0.51117
0.51117
0.51117
0.492427
0.478911
0.489565
0.00136488
0.00372653
0.00145468
0.0017369
0.0920584
0.00134881
0.00133524
0.00434333
0.00788284
0.00246831
0.00247076
0.0277386
0.00549563
0.00164493
0.00732649
0.0132083
0.00611395
0.00250519
0.00251288
0.0044264
0.00252024
0.0106132
0.0162209
0.0128061
0.00343071
0.00343221
0.00438716
0.00343237
0.330813
0.000715813
0.884371
0.150198
0.91276
0.000926665
0.455057
0.622331
0.887195
0.922166
0.908563
0.922322
0.840469
0.9129
0.000303544
0.000311992
0.000300838
0.000304637
0.000304637
0.000538586
0.000310322
0.000934683
0.000984286
0.00198619
0.00120648
0.000985973
0.00197541
0.00198613
0.000154566
0.000376526
0.000202155
0.000270285
0.000395189
0.000395418
0.000927157
1.91089e-08
1.91044e-08
1.9109e-08
8.1246e-09
8.12305e-09
8.11622e-09
1.25029e-08
9.65883e-08
1.05938e-08
5.32694e-08
1.35474e-07
6.88401e-07
1.06695e-08
3.65783e-08
3.35401e-08
1.71946e-05
4.56318e-05
4.54304e-05
1.47643e-06
2.44165e-05
8.13684e-08
2.50043e-05
1.35159e-05
5.09156e-05
1.35632e-05
1.36599e-05
5.09719e-05
2.64569e-05
0.00314862
0.00175032
0.000335623
0.0103484
0.00997727
0.00514935
0.000388332
0.00292088
0.0039058
0.00365521
0.000995135
0.00104781
0.00269188
0.00156399
0.00113943
0.00175393
0.0201098
0.0200175
0.0229487
0.0336573
0.0203165
0.0214411
0.0281251
0.0121477
0.0120333
0.0176875
0.0264079
0.0158804
0.0311586
0.0336469
0.0460088
0.0460088
0.0460088
0.0401076
0.0455716
0.0291919
0.0281369
0.0510683
0.0509255
0.045414
0.0297694
0.0471985
0.0450887
0.0510292
0.0275776
0.0317389
0.0271705
0.0510901
0.0510683
0.0510683
0.0508934
0.0511115
0.0448297
1.34969e-06
4.7191e-07
5.5185e-06
1.22832e-07
3.24826e-07
1.88469e-06
4.5518e-07
5.80818e-08
5.60485e-07
1.90786e-07
5.5351e-08
1.078e-07
9.46992e-07
5.0028e-07
2.61941e-07
2.64049e-07
2.72352e-07
4.15524e-07
1.82491e-06
1.63571e-08
1.63571e-08
1.64834e-08
1.00079e-07
4.39261e-07
5.64506e-08
5.1567e-08
4.96013e-07
1.90581e-06
8.56686e-08
2.13315e-06
5.53979e-07
5.78571e-08
6.74909e-07
4.31044e-07
2.13822e-06
1.15297e-06
4.33028e-07
8.33485e-07
3.65519e-07
5.31929e-07
4.86644e-07
6.67354e-07
1.40479e-06
1.18123e-06
2.12643e-06
5.18845e-07
4.28725e-07
4.25221e-07
5.18552e-07
5.18291e-07
4.04949e-07
5.18845e-07
1.34851e-07
2.28962e-08
2.3072e-08
5.13119e-08
3.32247e-08
3.32238e-08
2.35857e-08
2.76909e-08
2.24792e-08
2.18419e-08
1.08186e-08
-5.45721e-29
0
3.17992e-08
1.33561e-08
2.24832e-08
1.8728e-08
1.447e-08
0
3.18049e-08
-6.53861e-79
2.76419e-27
0
1.98778e-18
4.77509e-18
2.1418e-18
1.16897e-31
-5.52607e-61
-1.16687e-60
0
5.002e-20
3.93408e-19
-1.05569e-40
4.62584e-18
0
0
9.07525e-26
0
0
0
1.73016e-17
2.94791e-18
1.22262e-18
9.13469e-20
1.40948e-17
9.82426e-18
1.11686e-19
4.81073e-18
7.43003e-18
9.96248e-20
2.39335e-18
-4.6269e-128
9.89923e-16
1.01314e-15
-1.17114e-128
2.45687e-16
4.18351e-16
-4.2592e-100
5.65202e-15
1.10627e-16
7.02215e-15
1.08124e-17
3.42349e-15
1.39255e-17
1.61406e-15
4.96469e-06
9.4832e-07
2.61827e-06
2.50597e-06
1.56701e-07
1.88589e-06
3.20715e-06
9.93585e-06
1.64448e-05
1.64448e-05
1.89862e-06
9.81589e-06
1.39316e-06
4.64757e-06
4.49543e-06
2.55415e-06
2.05801e-05
1.94961e-06
1.95287e-06
3.18727e-06
8.71708e-06
4.45119e-05
2.05074e-05
0.000144797
7.05462e-06
1.73632e-05
2.18794e-05
0.000115246
7.82066e-05
4.16727e-06
0.000211565
0.000147259
4.02151e-05
9.33004e-05
0.000105332
4.81011e-05
3.12767e-05
1.66531e-07
1.13626e-08
2.03814e-07
3.15733e-10
4.20565e-09
7.18005e-09
4.18866e-09
1.22301e-16
2.10352e-17
5.65682e-16
2.464e-19
1.11685e-16
1.73467e-16
1.47542e-16
2.65389e-16
2.91143e-16
1.80616e-22
5.45841e-21
6.67687e-23
1.00008e-22
4.09851e-20
6.82039e-23
2.82277e-21
1.97808e-20
6.67687e-23
6.35494e-20
4.51557e-19
5.82721e-20
2.25161e-16
6.27214e-20
6.27214e-20
5.28447e-20
1.71712e-09
1.70816e-09
1.71712e-09
1.80005e-09
1.81994e-09
2.36729e-09
1.99129e-09
1.0622e-06
2.16012e-06
1.58228e-06
1.49742e-06
2.12845e-05
4.69245e-06
7.50556e-07
0.000146211
0.000502038
7.03835e-05
0.000390836
0.000405557
0.000805058
0.000610541
0.000402703
0.000411729
0.00132606
0.000180072
0.000180072
0.00017982
0.00144142
0.00217207
0.000598858
0.000579041
0.000552186
0.00227569
0.0013337
0.000221597
0.0251574
0.0249856
0.0251574
0.107335
0.0266191
0.0337917
0.0410017
0.0153491
0.0153491
0.0153491
0.0286388
0.0290522
0.0271229
0.0153737
0.143159
0.0258046
0.124067
0.0437388
0.140549
0.0129527
0.374556
0.372371
0.11919
0.36949
0.3241
0.0118394
0.000705259
0.111198
0.11817
0.362348
0.246861
0.51564
0.246565
0.00104196
0.0010421
0.00104193
0.0010421
0.00104212
0.00104204
0.00104199
0.499364
0.499328
0.361646
0.498954
0.428244
0.0695744
0.499328
0.499364
0.499364
0.445712
0.501262
0.500987
0.502639
0.501262
0.502639
0.50397
0.481434
0.326778
0.500418
0.30522
0.000139398
0.000139398
0.000138338
0.000191488
0.00014484
0.000138338
0.000136764
0.000139729
0.000140221
0.000140199
0.000139485
0.000139728
0.000202233
0.000139729
7.69982e-06
7.69982e-06
7.70532e-06
1.7353e-05
7.72142e-06
7.80082e-06
7.70127e-06
0.000173037
0.000193472
0.000458439
0.000136017
0.00226279
7.71959e-05
0.000118747
0.000366367
7.24241e-05
3.05784e-07
3.1897e-07
3.1897e-07
0.0447529
0.0477696
0.564072
0.174598
0.000164471
1.97949e-07
1.095e-05
0.0063713
2.12017e-07
3.88735e-05
7.38082e-08
3.55236e-05
0.000421196
1.12918e-06
3.51465e-05
1.08705e-07
7.8673e-08
3.10274e-08
1.48456e-07
3.10032e-08
3.10032e-08
3.10274e-08
1.47787e-08
4.92772e-09
3.38828e-08
1.18643e-08
4.90691e-09
9.99951e-09
6.28774e-09
1.68114e-06
4.42664e-06
5.08651e-06
1.66653e-06
1.66653e-06
1.67472e-06
1.69524e-06
1.00153e-05
1.31656e-05
1.17707e-05
1.05856e-05
2.88456e-05
0.000682887
1.23231e-05
0.0352992
0.0350279
0.0351054
0.0477712
0.0692016
0.0418266
0.0506493
0.0292819
0.0293176
0.0292809
0.0292311
0.0145457
0.0143848
0.0146379
0.0541908
0.0246653
0.0518101
0.0703864
0.0697957
0.0293176
0.0228149
0.0293176
0.00807056
0.0278976
0.0241763
0.0354179
0.0688189
0.0703864
0.0697304
0.020216
0.00143432
0.00624919
0.00112571
0.0150988
0.0336599
0.0211718
0.0336599
0.000751458
0.00101015
0.000678695
0.00180932
0.00155946
1.02046e-05
4.51724e-05
1.64304e-05
5.04248e-05
4.87026e-05
2.93385e-05
4.38618e-05
1.843e-06
8.89097e-06
8.70737e-07
5.65142e-07
5.13713e-07
1.93931e-05
1.868e-07
1.50596e-05
1.73564e-06
2.17717e-05
3.19604e-05
2.77356e-05
5.47631e-05
5.48099e-05
1.64834e-08
3.64718e-08
1.71308e-08
1.76518e-08
1.76518e-08
2.47319e-08
1.74729e-08
1.09113e-06
2.69188e-07
1.283e-06
1.44788e-06
1.02068e-06
1.24986e-06
1.22132e-07
2.58608e-15
5.29672e-15
1.23493e-15
1.35598e-14
8.60455e-16
8.38507e-16
8.6789e-16
3.97791e-24
2.01122e-17
6.84874e-18
-5.40513e-38
-2.9319e-73
2.76743e-35
6.22354e-17
3.97899e-17
6.45371e-16
2.26e-16
-5.27372e-41
0
1.27463e-16
-3.93385e-105
-1.28947e-104
-1.87781e-111
5.54826e-23
9.36503e-24
6.54163e-42
9.78726e-25
-1.31772e-98
6.10646e-23
3.1163e-28
2.04075e-32
0
-1.21701e-47
1.79643e-28
1.19974e-33
-1.07851e-49
0
1.0499e-33
-5.19763e-32
3.42442e-23
9.1358e-07
2.6011e-11
9.33757e-11
5.9833e-10
6.07627e-11
1.84101e-11
0.12412
0.68682
0.999975
0.999975
0.999977
0.988729
0.966337
5.44628e-06
2.41212e-05
6.50687e-06
2.38369e-09
8.64971e-05
7.20694e-06
0.121413
0.00259698
0.0193463
7.55707e-05
5.8531e-05
5.76097e-05
0.158763
0.00457871
6.31122e-06
7.37704e-08
1.2209e-09
1.99439e-10
3.17372e-10
1.88692e-12
6.54811e-24
1.04135e-07
2.64364e-06
2.58722e-05
4.31133e-06
2.67591e-06
1.19113e-05
0.000199397
4.51103e-05
1.38079e-05
1.42404e-05
5.35126e-05
1.65355e-05
2.58962e-05
5.39285e-05
1.81642e-05
4.36342e-05
8.16556e-08
8.21343e-08
1.54841e-06
1.27478e-06
2.39025e-06
8.17744e-08
8.13967e-07
1.88316e-08
5.88373e-09
3.52925e-09
2.53534e-09
1.96864e-09
1.47912e-09
1.96303e-09
3.6969e-09
3.42571e-09
1.09318e-09
1.32904e-09
5.26884e-10
8.12266e-10
3.91659e-10
1.37663e-15
1.0933e-15
1.46331e-15
1.0933e-15
1.87724e-15
1.0974e-15
2.23627e-15
7.28469e-24
7.38921e-24
7.68907e-24
3.1632e-23
5.21133e-24
1.90093e-23
1.21657e-21
6.04846e-06
1.16104e-06
1.34264e-06
1.06324e-06
8.73595e-05
1.37181e-06
4.6403e-07
0.00257819
0.000950641
0.000920043
0.000927757
0.00135311
0.000973931
0.000927757
0.00144068
0.00595094
0.00161652
0.00846017
0.00473687
0.00040627
0.0103117
0.010282
0.0103117
0.00984204
0.00734751
0.0102828
0.00744311
0.0103117
0.00814326
0.010087
0.0101019
0.00991104
0.00995347
0.0105531
0.0105531
0.0105547
0.0105531
0.00987361
0.0103
0.00978888
0.0102977
0.00916764
0.00896567
0.0105934
0.0162029
0.0105208
0.00847996
0.000211923
0.000516918
0.000210177
0.000423913
0.0014146
0.000483346
7.03835e-05
0.00936629
0.0279898
0.0260708
0.0153747
0.019266
0.0274527
0.00035414
0.00179586
0.00129805
0.000344109
0.00143656
0.0025809
0.000890001
0.0103756
0.0417718
0.024857
0.0259982
0.00324055
0.0130695
0.0103942
0.0101925
0.011895
0.0126478
0.0121975
0.00673037
0.0132064
0.00665383
0.00303416
0.00317094
0.0834751
0.00319838
0.00326632
0.00326633
0.00258409
0.0401698
0.000208781
0.0308766
0.0470776
0.00550631
0.00130031
0.167747
0.918174
0.918157
0.918174
0.918174
0.916545
0.91888
0.673621
0.444235
0.840019
0.787483
0.84204
0.840019
0.840019
1.04185e-06
9.90433e-07
9.51619e-07
4.82321e-06
1.9232e-06
3.69037e-06
9.41992e-07
8.48097e-07
8.36e-07
1.41857e-06
8.76996e-07
8.32347e-07
1.40625e-06
8.38817e-07
0.0264065
0.0786235
8.52618e-07
0.0786245
0.069558
8.51309e-07
0.0147776
0.0114173
0.0786189
0.0302096
0.0131534
0.0114379
0.0480253
0.0130335
0.0295027
0.0141986
0.064763
0.0141787
0.0668438
0.0141986
0.0355529
0.0238017
0.0236867
0.0270117
0.0278385
0.0442868
0.0259005
0.0707138
0.0709918
0.0710696
0.0710696
9.56943e-07
9.22326e-06
1.19741e-05
8.33389e-07
0.00107571
9.61239e-06
1.49711e-05
2.45112e-06
5.76147e-07
4.02794e-06
2.79258e-06
3.59431e-06
4.75294e-06
2.01187e-06
2.34911e-06
1.38633e-07
3.60814e-07
2.38857e-06
1.2545e-06
1.25479e-06
4.96788e-07
1.32987e-09
1.63814e-09
1.26526e-09
9.85059e-09
1.73057e-09
2.40513e-09
1.63437e-09
7.76899e-10
3.42622e-12
9.74466e-10
2.71351e-09
3.28219e-12
3.42622e-12
1.72738e-08
1.7189e-11
1.88666e-11
9.97659e-12
1.4608e-11
1.53065e-11
3.01844e-06
1.2012e-06
1.04177e-06
8.89226e-06
2.66467e-06
1.75108e-06
9.84834e-08
0.614111
0.616469
0.992021
0.768028
0.642814
0.0771249
0.840682
0.000185695
0.000362943
0.000321112
0.000354932
0.000196133
7.44209e-05
0.000354985
0.000206056
1.08164e-07
5.03249e-05
1.04135e-07
1.09532e-07
1.13693e-07
7.1715e-05
8.30693e-29
0
-1.27411e-39
1.27394e-12
2.38843e-12
6.81201e-13
-7.45378e-31
5.49015e-15
7.29682e-08
2.49685e-14
-3.83377e-27
-4.21109e-170
3.20567e-10
4.66673e-07
7.76282e-06
4.69572e-06
1.35117e-06
1.18781e-05
3.68791e-06
5.61516e-07
9.77345e-07
6.04978e-07
1.72947e-06
2.8979e-05
1.12095e-06
6.83187e-06
5.92632e-05
7.8097e-05
6.8678e-05
7.80662e-05
7.81052e-05
7.8097e-05
7.81005e-05
7.23766e-19
9.38681e-19
3.39453e-19
1.19162e-18
8.28119e-19
2.71938e-19
1.95029e-18
2.05995e-26
8.00415e-28
8.00415e-28
7.96691e-26
2.69046e-26
1.16459e-25
3.12212e-25
1.42604e-30
9.6269e-31
2.37302e-29
7.94301e-31
6.44815e-31
9.64268e-31
5.04241e-30
2.67329e-23
2.91801e-21
2.31792e-22
1.48374e-19
2.15983e-21
9.34037e-24
1.04185e-22
9.34037e-24
9.34037e-24
2.20411e-20
2.88623e-20
1.2924e-19
4.82375e-20
4.11561e-20
1.4808e-19
7.10465e-20
1.00667e-07
5.23102e-08
5.82162e-06
4.66136e-08
7.67592e-08
4.29538e-08
1.17466e-07
3.02002e-05
5.34402e-05
0.000126634
3.6615e-07
2.93423e-07
2.7513e-07
4.36156e-07
3.046e-06
2.85761e-07
5.97121e-07
0.00145824
0.000232892
0.000492985
5.71385e-05
0.000384557
9.90395e-05
0.00339289
0.00108749
0.00958884
0.00360048
0.00321437
0.00414619
0.00572996
0.00989805
0.00702953
0.000921867
0.0103157
0.00747128
0.0103065
0.00269721
0.00170861
0.00269512
0.000196578
0.000359361
0.000559965
0.000381943
3.45514e-06
2.53687e-06
4.17722e-06
5.05437e-06
1.14775e-05
4.52126e-07
8.93266e-06
0.0217676
0.021162
0.0238426
0.0169232
0.0972883
0.0331007
0.0327418
0.110758
0.122658
0.0864305
0.03274
0.0461858
0.000735103
0.0109182
0.00779596
0.00181192
0.00050582
0.000872633
0.000260126
0.097239
0.0327393
0.0456523
0.0782292
0.0973225
0.000142777
9.32542e-05
9.32542e-05
9.32542e-05
9.32542e-05
0.000337825
0.000800777
0.00337765
0.00133251
0.00897192
0.00897192
0.00897192
0.00193641
0.00340671
0.000183532
0.000375612
0.00129427
0.000185904
0.000201677
0.000579961
0.00146576
0.918174
0.842133
0.305665
0.953036
0.955074
0.955085
0.955085
0.955084
0.955014
0.955062
0.954927
0.919141
0.954927
0.674708
0.955084
0.938158
0.954057
0.954051
0.954047
0.954051
0.954051
0.929052
0.70304
0.903171
0.954922
0.817098
0.00895683
0.0089538
0.0089538
0.0575934
0.0151157
0.0089538
0.00895882
0.0089538
0.00991964
0.00896417
1.82074e-06
1.29829e-06
3.33272e-05
1.22403e-06
6.03214e-06
1.83992e-05
3.32789e-05
0.000237184
0.000237324
7.30784e-05
0.000122587
0.00016537
0.000168632
0.000237298
8.751e-06
5.1158e-06
7.91727e-06
0.000209679
4.77723e-05
2.39201e-08
1.8265e-07
0.000191126
4.08204e-05
7.69446e-05
4.88536e-05
4.04281e-05
3.48448e-05
0.00011291
0.000125574
9.84009e-07
0.000213959
0.000528093
3.3113e-05
0.00458267
1.56879e-07
0.0123404
0.00223201
0.00711268
0.0165995
3.80278e-05
0.000827329
0.0121068
0.000289716
0.000179938
8.5336e-05
8.5336e-05
0.000198781
8.53617e-05
8.53423e-05
2.46875e-07
8.16445e-06
2.10927e-05
2.05164e-06
2.58271e-06
4.12028e-06
1.5666e-07
2.38049e-07
7.3569e-07
1.56706e-07
1.5666e-07
2.44568e-07
1.56706e-07
1.56714e-07
1.5666e-07
1.56731e-07
2.80222e-07
9.48717e-07
5.07957e-06
1.04724e-07
1.23497e-07
7.69461e-08
8.01788e-08
6.50314e-05
1.95724e-05
5.41552e-05
6.62287e-05
1.94296e-05
6.7379e-05
7.83435e-05
4.84974e-07
4.33782e-06
4.63758e-07
1.62842e-06
1.66637e-06
1.62842e-06
3.05059e-06
1.48939e-05
3.24494e-06
3.13772e-05
7.12596e-06
1.9056e-06
4.1159e-05
4.4224e-12
1.52789e-11
1.30143e-10
4.37438e-12
1.00929e-11
4.52772e-12
5.03424e-11
1.12218e-11
8.59788e-12
4.80173e-20
4.04483e-16
1.37928e-11
1.02196e-10
5.17204e-29
1.09708e-34
1.05511e-34
7.60575e-28
4.01347e-27
5.70822e-35
1.01749e-34
5.28004e-27
3.57252e-28
2.06744e-26
1.84712e-26
2.06744e-26
1.83596e-26
1.60982e-26
3.47468e-26
1.07053e-25
4.01391e-21
7.01616e-20
2.6379e-21
3.30297e-20
1.91458e-20
5.19565e-20
6.9788e-22
3.0349e-20
1.37991e-20
2.7414e-20
2.61525e-21
4.27072e-21
2.345e-21
2.64432e-21
1.20061e-15
7.1208e-15
4.74487e-15
1.22692e-14
4.26238e-15
1.04411e-13
1.29489e-11
1.10235e-15
1.06964e-14
1.48884e-15
2.33939e-10
4.18096e-08
2.69985e-10
1.27035e-10
1.07617e-10
1.18048e-10
5.71507e-06
4.15569e-07
4.51222e-05
3.38993e-11
6.92802e-10
2.09112e-10
1.44492e-11
7.10346e-11
1.29125e-09
1.99301e-10
1.07188e-10
1.72498e-10
1.67356e-10
4.02861e-10
2.33307e-10
2.15461e-10
2.37688e-10
1.08441e-08
6.20695e-10
6.20697e-10
3.33554e-08
6.21067e-10
7.81727e-10
6.20696e-10
1.48507e-08
7.76635e-09
2.19856e-09
1.03996e-08
1.48507e-08
1.2409e-08
9.66058e-09
2.11211e-08
3.90333e-08
1.42704e-08
2.76633e-08
1.11642e-08
1.49586e-08
1.1164e-08
0.00297513
0.0015626
0.00354494
0.00323479
0.00157879
0.00324762
0.00749586
7.07177e-05
9.53755e-05
1.13364e-05
6.1323e-05
5.66599e-05
1.32982e-05
2.17545e-05
0.0022278
0.000191688
0.00012098
3.35342e-05
2.89951e-05
0.00023737
0.000237359
0.00023737
0.000237375
0.000302032
0.000510899
0.000354078
0.00223115
0.0030017
0.000738004
0.00312651
0.00136723
0.0182453
0.00193708
0.00049046
0.00178339
0.00044549
0.00103872
0.0015513
0.00155305
0.000703673
0.954057
0.954015
0.954011
0.953144
0.953144
0.953144
0.953063
0.937204
0.953144
0.953144
0.951043
0.951043
0.951043
0.951029
0.586704
0.884962
0.952544
0.952582
0.952542
0.952548
0.952557
0.948272
0.751986
0.953144
0.953144
0.754268
0.0548123
0.00574054
0.289815
0.0149483
0.00570034
0.0383592
0.00197691
0.0191762
0.0187142
0.0192069
0.00956142
0.00923611
0.0163124
0.0061015
0.0205555
0.010181
0.0168476
0.010181
0.010181
0.0102125
0.0101937
0.00616845
0.0061131
0.00726591
0.00924194
0.0210339
0.020906
0.194941
0.261358
0.040656
0.213285
0.0345903
0.261535
0.160038
0.0720572
0.186585
0.0720572
0.220358
0.150975
0.264151
0.0772288
0.323566
0.242582
1.1323e-05
3.72824e-05
0.000112425
0.000141708
0.000321254
3.86925e-05
1.14855e-05
3.2476e-05
2.1298e-05
8.54283e-05
1.61013e-05
1.00952e-05
5.22814e-05
3.77726e-05
5.51379e-07
6.76939e-07
7.40335e-07
2.2144e-06
1.26892e-06
7.78699e-07
1.35361e-06
9.24469e-12
1.33269e-10
2.88799e-11
1.76548e-17
1.76548e-17
1.76548e-17
2.02598e-17
2.30247e-17
4.27905e-17
2.47188e-17
8.05974e-20
5.54957e-20
1.02908e-18
2.09453e-18
9.39871e-18
8.11772e-20
1.30476e-19
2.22973e-19
1.72769e-18
4.80173e-20
5.47627e-20
8.06294e-20
1.25648e-23
1.18563e-23
3.37499e-23
1.57189e-32
1.42001e-28
1.54106e-23
3.37442e-23
1.1715e-27
3.1324e-23
1.1715e-27
4.33093e-37
2.30189e-31
9.76074e-31
1.546e-32
1.54263e-32
1.46606e-35
2.57215e-37
3.67506e-37
2.707e-37
7.53641e-37
1.21202e-36
1.33707e-36
3.4603e-37
6.37949e-36
2.97988e-38
2.75041e-36
6.00551e-36
9.54386e-35
1.05904e-36
1.72966e-38
5.64076e-26
2.70828e-23
1.78002e-26
2.02421e-26
1.56194e-26
1.52023e-26
4.87724e-24
6.51815e-23
4.87724e-24
4.42424e-22
3.03403e-23
4.87724e-24
5.58592e-24
1.19339e-22
6.25937e-20
1.33187e-20
4.01837e-17
2.11772e-17
7.90312e-19
1.1344e-15
4.53561e-18
5.32263e-20
1.02556e-15
2.01173e-14
4.0578e-15
4.25528e-16
5.02938e-16
4.58019e-15
6.48911e-16
2.14973e-15
3.33854e-15
6.56196e-10
4.6213e-11
1.35532e-11
4.7882e-12
2.33772e-11
1.59642e-11
2.45789e-11
6.63625e-14
1.19012e-12
1.01951e-13
1.15869e-13
1.6354e-14
1.60992e-13
1.41717e-12
1.77855e-11
1.39573e-11
1.12687e-11
2.29324e-11
1.06485e-11
1.00968e-11
2.39243e-11
2.64017e-19
3.94042e-17
1.55001e-18
5.41117e-18
7.54704e-18