/*--------------------------------*- C++ -*----------------------------------*\
| =========                 |                                                 |
| \\      /  F ield         | OpenFOAM: The Open Source CFD Toolbox           |
|  \\    /   O peration     | Version:  v2012                                 |
|   \\  /    A nd           | Website:  www.openfoam.com                      |
|    \\/     M anipulation  |                                                 |
\*---------------------------------------------------------------------------*/
FoamFile
{
    version     2.0;
    format      ascii;
    class       surfaceScalarField;
    location    "0.3";
    object      phi;
}
// * * * * * * * * * * * * * * * * * * * * * * * * * * * * * * * * * * * * * //

dimensions      [0 3 -1 0 0 0 0];
oriented        oriented;


internalField   nonuniform List<scalar> 
13152
(
1.02084e-06
2.03214e-05
-1.69903e-06
-1.96432e-05
1.87469e-05
-1.70874e-05
-6.38611e-07
-3.46498e-06
4.25332e-05
-3.46442e-05
3.54329e-05
-2.48768e-06
2.12185e-05
-7.55059e-05
2.85377e-05
-2.44067e-05
6.05056e-05
-1.60924e-05
-2.95437e-05
-2.84482e-05
7.40844e-05
3.87592e-07
-1.67651e-05
2.85034e-07
-2.99242e-05
7.68092e-07
7.84323e-06
5.15451e-06
-2.97628e-05
7.80689e-06
3.21383e-07
-5.08594e-06
-1.55554e-05
-2.98556e-05
-8.65367e-06
-1.46162e-05
-5.13783e-06
2.84077e-05
-8.09049e-08
-8.66361e-06
9.08448e-08
-1.41389e-05
-5.58205e-07
5.67458e-06
-3.05708e-05
1.62326e-05
-2.93091e-05
2.98458e-05
2.93747e-05
-4.92606e-07
3.53946e-08
-1.52694e-05
-2.99175e-05
9.72611e-08
-7.49497e-05
3.33925e-07
1.59895e-05
3.02313e-05
-5.1522e-08
7.46285e-05
3.57653e-05
1.26548e-05
2.54303e-05
-7.38504e-05
3.85604e-07
-7.52167e-07
3.61318e-05
1.24018e-05
2.71484e-07
-1.87356e-05
7.36707e-05
7.79018e-05
2.91603e-05
-7.36267e-07
-2.93861e-05
9.61981e-07
-1.64132e-05
-2.68751e-05
7.24486e-05
1.68997e-07
-1.73184e-05
-8.08028e-06
8.00894e-06
2.40337e-07
5.30451e-06
-3.07032e-05
-4.96737e-06
-1.38988e-05
-2.90489e-05
-1.37969e-05
1.38444e-07
2.91706e-05
2.6007e-07
2.35272e-05
-5.68666e-07
-6.2338e-06
-1.67248e-05
-1.24671e-05
1.41856e-06
3.45758e-05
-1.01321e-05
-2.90371e-06
-2.00412e-05
-1.28478e-05
3.43076e-05
-2.80028e-06
-2.34748e-05
2.89624e-06
-3.08685e-06
-9.94148e-06
1.62717e-06
-1.63464e-06
-5.35632e-06
-5.86432e-06
-1.12435e-05
-1.22354e-06
1.32536e-05
-4.62721e-06
-7.40282e-06
2.02081e-05
-7.33324e-06
-1.40984e-05
-1.52815e-05
-2.27104e-05
4.68973e-06
2.04049e-06
-1.40635e-05
4.77258e-07
-4.14734e-07
-1.52697e-05
4.65402e-07
-3.59395e-05
-4.72669e-06
-8.47396e-06
-1.12313e-06
1.43238e-05
-4.18696e-07
-4.48177e-06
1.73774e-07
-8.5654e-06
-3.27258e-07
1.57568e-05
1.14366e-05
-3.57588e-05
1.52022e-05
2.27394e-07
-7.31752e-06
2.13966e-05
-3.62681e-07
1.22808e-05
1.14367e-05
1.07457e-05
-3.44632e-05
-1.87875e-07
1.09325e-05
1.53619e-06
1.12981e-05
-4.9281e-08
-1.57492e-06
1.08057e-05
1.70173e-06
1.11547e-05
-1.98394e-06
-1.24699e-05
3.45737e-05
-1.36449e-06
-6.14891e-06
-2.40874e-06
-6.04498e-06
1.46026e-05
4.60945e-06
-3.48727e-05
2.41143e-05
1.55941e-05
-1.33935e-05
3.22582e-05
-8.45161e-06
-5.86792e-05
-1.70106e-05
4.32238e-05
-4.17279e-05
4.03114e-05
-6.35731e-05
9.32443e-06
3.5924e-06
-1.12039e-05
-1.71291e-06
-3.82107e-06
-3.18862e-06
1.63341e-05
-3.90881e-06
3.68014e-06
8.7542e-06
1.10615e-05
-3.10196e-05
1.5748e-05
-8.70671e-06
-1.00524e-05
2.26117e-05
-2.8997e-06
-6.16793e-06
4.10984e-06
9.53655e-06
-7.47847e-06
-1.53171e-06
-2.84148e-06
-1.79473e-06
4.00843e-06
-1.4303e-06
-2.54718e-06
4.15073e-07
6.14054e-06
-1.50992e-05
1.11217e-05
1.46075e-06
-3.88716e-06
-4.10189e-06
-2.31061e-05
-5.1621e-05
-5.97325e-06
8.07003e-05
-7.03897e-06
4.62348e-06
-2.06906e-05
-3.83756e-05
-2.02844e-05
-2.87412e-05
1.29582e-05
2.04064e-05
9.3574e-06
-5.87894e-05
4.74209e-05
-7.64391e-05
5.44058e-05
1.25961e-05
1.77385e-06
-1.44654e-05
9.54331e-08
-2.0399e-05
-5.26826e-06
3.82634e-05
5.24798e-06
-2.38732e-05
-1.13384e-05
-3.75566e-05
4.36268e-05
-4.72204e-05
2.14165e-05
-5.15017e-05
1.91931e-05
-0.000122595
8.91956e-06
5.00666e-06
1.27952e-05
-2.67214e-05
-1.16039e-06
2.9395e-06
7.14045e-06
-2.0392e-07
4.05019e-06
4.43878e-06
1.12959e-05
1.59129e-06
2.64356e-06
1.27819e-05
-5.76454e-05
5.74705e-05
6.75073e-07
-5.00181e-07
8.63939e-05
5.04117e-05
7.9495e-05
9.40665e-06
0.000134458
5.08881e-06
1.81299e-05
2.7193e-05
2.77366e-05
5.68472e-05
-1.83108e-05
5.54541e-05
4.9415e-07
2.68035e-05
1.29538e-06
-2.26954e-05
-5.4035e-06
-2.59223e-05
-2.72732e-05
7.9999e-05
1.48387e-07
-2.47753e-05
-2.58955e-05
2.66016e-05
-5.57748e-07
2.38379e-05
-7.45087e-05
-2.99565e-06
2.32408e-06
-1.85316e-06
-1.36533e-05
-0.000229481
8.20638e-05
0.000161071
-0.000146631
5.37903e-05
7.9187e-05
0.000166528
0.000251211
5.34307e-05
2.31936e-06
-1.95976e-06
-2.32049e-05
0.000158699
0.000161323
7.52432e-06
0.000389329
1.28414e-05
-3.03172e-06
-1.36087e-05
3.79896e-06
-6.92975e-06
-1.02421e-05
3.00133e-05
-1.1589e-05
1.62743e-06
1.84479e-05
7.85819e-06
-3.99148e-05
1.30772e-05
9.16963e-06
-1.77193e-06
4.607e-06
-5.50278e-06
7.97727e-07
6.95315e-06
-1.27553e-05
5.00442e-06
1.36545e-05
-1.38469e-05
9.90186e-07
-1.15314e-05
3.21391e-05
1.18473e-05
1.48812e-05
-4.05754e-05
1.52738e-05
-2.43633e-06
6.98706e-06
-3.24467e-06
9.11295e-06
2.61137e-05
3.618e-05
1.54136e-05
-7.77072e-05
-4.34128e-06
2.87534e-06
2.75796e-05
4.57727e-05
-1.39341e-05
3.6918e-05
-3.34954e-05
-5.4731e-07
-1.36173e-05
7.81149e-05
-4.97129e-05
8.18683e-05
-6.77947e-05
-3.92419e-05
-2.23596e-05
-5.13164e-06
6.67331e-05
5.16274e-06
-2.28541e-05
-2.15505e-05
-1.90512e-05
1.85438e-06
-8.32519e-06
-5.97066e-06
9.16422e-06
-3.47584e-06
-2.77034e-05
2.87524e-05
-2.26018e-06
-4.55434e-05
2.01313e-05
1.04755e-05
5.14353e-06
-1.08795e-05
1.93042e-05
-1.97656e-05
-2.06402e-05
1.35177e-05
2.68881e-05
-1.48094e-05
5.50275e-05
-5.99837e-05
2.31018e-05
-5.85514e-05
2.93609e-05
-3.73937e-05
-2.42311e-05
8.04801e-05
-4.43946e-05
7.5191e-05
-5.86865e-05
-4.72526e-05
-1.41349e-05
1.18182e-05
4.95692e-05
9.45431e-06
-3.67658e-06
-5.30303e-05
7.9613e-06
-1.26418e-05
-2.7122e-05
1.859e-06
3.70812e-05
5.63329e-06
-3.64318e-05
-4.7797e-05
-3.30733e-06
5.90657e-05
-2.66162e-05
-3.38226e-05
3.65588e-05
-5.75417e-05
3.51105e-05
-9.68968e-05
-1.05507e-05
8.26906e-05
2.4757e-05
6.62594e-05
1.1057e-05
-0.000174213
-1.00109e-05
6.57195e-05
-2.8538e-05
2.23618e-05
8.88668e-05
2.43509e-05
-4.18318e-05
0.000107841
-9.63946e-05
-2.14569e-05
-1.29499e-05
0.00018651
-2.97763e-05
3.91882e-05
-0.00010182
4.2843e-06
-5.35073e-05
6.25318e-05
-1.33088e-05
-5.95289e-05
5.31331e-06
5.84999e-05
6.75508e-05
-0.000180587
4.73496e-05
-6.31179e-05
2.10816e-05
-6.83637e-05
-1.31233e-05
1.75561e-05
-1.89552e-05
7.16501e-06
-8.79452e-05
-6.56281e-06
8.7343e-05
-9.79912e-05
8.58751e-05
1.92812e-05
8.09493e-05
-0.000266886
9.45296e-05
-8.35691e-05
-1.75234e-05
-7.86423e-05
0.000260515
-9.72135e-06
1.69541e-05
-1.23411e-05
-9.32704e-05
-5.45881e-06
9.18297e-05
6.89943e-06
0.000138288
4.96874e-05
-0.000281246
0.000146991
-1.41619e-05
-0.00012485
-5.02063e-05
-0.00013166
1.37097e-05
0.000178157
-0.00026013
0.000274942
0.000129869
0.000126411
0.000134106
-0.000390386
1.83306e-06
0.00012385
4.18613e-06
0.000125871
2.37384e-06
-0.000139864
-0.000114815
0.00038055
-0.000127407
-1.0084e-05
1.31204e-05
-6.4216e-06
2.21551e-05
-5.03271e-05
-3.36647e-06
4.84399e-05
5.25373e-06
7.28109e-05
2.97919e-05
-0.00015293
8.01373e-05
-1.06929e-05
-6.42598e-05
-3.04028e-05
0.000143103
-8.03443e-05
2.13382e-05
9.80968e-05
-0.000148649
0.000147831
-5.87814e-05
-7.90462e-06
4.14771e-05
2.5209e-05
4.63937e-05
3.79273e-05
4.45651e-05
-6.07602e-06
1.44481e-05
4.06949e-05
-1.72157e-05
2.93895e-05
2.65357e-05
-5.43889e-05
0.000128343
-1.977e-05
4.09729e-05
9.46326e-06
-4.33287e-05
-7.10741e-06
-4.73368e-05
-2.9084e-05
0.000117394
-6.98602e-05
3.19867e-05
6.22945e-05
3.05585e-05
-0.000136182
7.62687e-05
-8.31686e-05
0.000130353
-0.00012247
-2.06497e-05
4.27696e-06
-4.4555e-05
6.09277e-05
4.02434e-05
-1.61656e-05
-4.47275e-05
-5.44293e-05
9.89496e-05
-1.66018e-05
4.36423e-05
-4.32061e-05
6.72028e-05
-0.000128532
3.57281e-05
-4.6515e-05
5.83758e-05
2.50749e-05
3.02488e-05
-3.07041e-05
-2.46196e-05
7.49182e-06
-4.24006e-05
-4.66492e-05
8.43898e-05
8.33399e-06
4.66039e-05
-8.56421e-05
5.04571e-05
-6.67428e-05
1.9428e-06
2.2518e-05
2.21431e-05
2.08663e-05
3.15336e-05
3.91759e-07
-2.1926e-05
-2.37394e-05
6.10576e-06
2.85295e-05
-2.67417e-05
-7.89359e-06
2.43373e-05
-3.21657e-05
-4.04788e-05
9.33456e-05
1.431e-05
3.94283e-05
3.28653e-05
-2.64489e-05
-9.98776e-06
1.72504e-05
-1.76013e-05
6.28631e-05
-1.46301e-05
-6.91003e-05
2.08673e-05
-9.06425e-05
-1.28225e-05
0.000166328
-6.35239e-05
-4.17488e-05
0.000126912
1.55562e-05
-0.000211568
8.47421e-05
6.30368e-05
-0.000123136
0.000195056
-0.000171104
-5.48335e-06
2.56022e-08
5.06103e-06
3.96714e-07
5.28792e-06
1.21424e-06
-1.19855e-05
1.70432e-06
3.60919e-06
-3.2558e-06
6.64889e-06
1.66794e-06
6.23841e-06
-8.27997e-06
3.37918e-06
-1.36583e-05
1.19834e-05
-8.82173e-06
1.58101e-05
3.88561e-06
-1.13055e-05
1.71277e-06
-1.95713e-06
8.4418e-07
1.9803e-06
-8.67353e-07
4.87426e-06
7.50865e-07
-7.58225e-06
4.2989e-07
5.28854e-06
1.92892e-06
7.28391e-06
-8.46197e-06
9.13229e-06
-5.22306e-06
1.08881e-05
-3.17432e-06
2.5309e-05
-2.29412e-05
-6.24159e-06
-1.05607e-05
3.97435e-05
2.92267e-06
-2.09306e-05
-4.93336e-06
-6.36699e-06
3.04806e-06
7.16978e-06
2.16029e-06
-1.56971e-05
6.23738e-06
3.98045e-06
3.31292e-05
-1.22231e-05
-4.18367e-05
-1.69326e-05
3.95011e-05
2.27605e-06
-1.23388e-05
-8.41912e-06
4.46412e-06
6.18848e-06
-1.82349e-05
-1.6263e-06
-3.89979e-06
1.0375e-06
1.39256e-05
-1.14332e-05
-3.52992e-06
6.39072e-06
-6.1473e-06
7.94082e-07
-1.27733e-05
3.30896e-05
2.34665e-06
1.17864e-06
-9.67259e-06
3.20491e-06
-6.41748e-08
-2.18612e-06
-7.38228e-06
-1.24407e-05
4.54512e-06
6.92177e-06
3.57553e-06
-1.50424e-05
3.5596e-06
1.19334e-05
-1.09479e-05
2.47941e-06
8.00196e-06
-5.7762e-06
7.27062e-06
1.0439e-05
1.02869e-05
-1.24875e-05
3.00149e-06
9.7648e-06
1.82741e-05
5.68743e-05
1.37648e-06
-5.55753e-05
-2.67541e-06
-3.65055e-05
-1.9588e-05
0.000112968
-2.76343e-05
-7.49471e-06
1.44469e-05
-1.74386e-05
-5.25837e-05
-1.85144e-05
1.33733e-05
3.2729e-05
1.66577e-05
-7.7021e-05
3.93974e-05
-1.41631e-05
-5.86373e-06
2.67468e-05
-6.64457e-06
-3.76691e-06
-8.15429e-07
1.41109e-06
3.17125e-06
8.31498e-06
5.07858e-07
-1.25897e-05
7.7769e-06
-2.77344e-07
3.69004e-06
-6.12536e-07
-1.6664e-06
-2.51601e-06
9.3773e-06
8.12383e-06
-8.22851e-06
1.33848e-05
-5.02869e-06
-1.99879e-05
1.53504e-05
9.6662e-06
-1.5739e-05
1.3356e-05
-2.64575e-06
2.29663e-05
-5.86932e-05
-2.26084e-05
-9.75615e-06
4.57206e-05
-2.62561e-05
1.00197e-06
4.24118e-06
-7.531e-06
9.83546e-06
7.55398e-06
1.5042e-05
1.48519e-05
-3.74479e-05
-2.3816e-06
3.48548e-06
6.45011e-06
2.23266e-05
9.88325e-06
-1.63137e-05
9.91591e-06
-1.80195e-05
3.43528e-05
-5.73462e-06
-1.85472e-05
7.96814e-06
-1.35642e-05
-1.01899e-05
-2.64043e-05
3.51668e-05
-3.00996e-05
-7.70035e-06
4.64308e-06
1.52372e-05
-1.218e-05
1.14844e-05
9.48049e-06
-2.86652e-05
1.2337e-05
3.79043e-06
-2.14886e-06
5.59641e-06
1.17897e-05
5.51876e-06
1.81286e-06
-1.04814e-05
-8.09186e-06
3.09103e-05
-1.52523e-05
8.56133e-06
2.52667e-06
-1.22602e-05
3.12167e-08
4.19983e-06
-8.49426e-07
-4.62765e-06
1.27724e-06
-3.038e-06
-2.26392e-06
9.50175e-06
1.14404e-06
-5.03147e-06
-6.18412e-06
-1.51799e-05
1.91001e-05
-2.06972e-05
9.88542e-06
-2.25337e-05
8.49788e-06
-4.82624e-05
-3.30802e-06
-5.1744e-06
1.01504e-05
-2.18844e-06
-4.99856e-06
3.87898e-06
-6.96614e-06
1.10129e-05
-2.99646e-05
-2.26562e-06
-2.03001e-05
-7.0172e-06
1.60118e-05
7.06207e-06
-2.96278e-05
3.92384e-06
1.5787e-05
5.1443e-06
-1.01679e-05
-2.21837e-05
2.72073e-05
-1.52296e-05
-4.12287e-05
6.16026e-05
-1.53968e-05
-1.00007e-05
1.08433e-05
2.81238e-05
-5.43639e-05
3.80603e-05
-3.72177e-05
2.48731e-05
-3.79781e-05
4.07498e-05
2.93227e-05
-1.19576e-05
-3.45057e-05
1.71405e-05
-3.50887e-05
-4.6929e-05
0.00011134
-1.78198e-05
-2.92264e-05
-2.31386e-06
4.36905e-05
-5.91965e-05
4.53557e-05
-7.68959e-05
1.01685e-05
-1.34069e-05
2.10185e-05
-7.76335e-06
-4.57489e-06
-4.74036e-06
1.70786e-05
1.67081e-06
-1.13547e-06
-8.29868e-06
-4.18714e-06
1.28307e-06
-2.73538e-06
5.85302e-06
-4.2531e-06
-1.63657e-06
-9.39746e-06
-1.17435e-06
2.80811e-06
4.21929e-06
1.98505e-06
-4.79595e-06
9.89871e-07
-3.19195e-06
-9.42347e-07
-1.81029e-06
-5.0539e-06
-3.90159e-06
1.07658e-05
-1.98277e-06
-5.59056e-06
5.76304e-06
-5.66497e-06
-1.3717e-06
5.55886e-06
1.89257e-06
-1.31164e-05
8.13539e-06
-3.94826e-06
4.18199e-06
-7.87999e-06
8.4158e-06
1.35952e-07
4.78801e-06
2.21627e-06
-7.14023e-06
1.6558e-06
-2.27005e-06
7.50203e-07
-7.42759e-07
7.18656e-06
7.61856e-06
-9.37838e-06
-5.10231e-07
-1.69678e-07
8.53844e-06
2.31379e-06
-1.48347e-06
-1.02087e-05
3.88458e-07
1.75565e-06
-1.5688e-06
1.21451e-06
-8.36005e-07
1.6624e-05
2.54771e-06
-1.58208e-05
-3.35093e-06
-2.16376e-05
-1.54613e-05
5.37229e-05
-1.85083e-05
-5.81597e-07
1.94806e-05
2.35394e-05
-5.88407e-05
2.15868e-05
-5.45708e-06
2.28981e-06
3.83602e-06
7.32117e-06
1.90705e-06
-4.07322e-05
-2.40457e-06
4.12297e-05
-4.28942e-05
3.97745e-05
5.02673e-06
3.87857e-05
-0.000122412
4.57926e-05
-4.15984e-05
-6.59877e-06
-3.81687e-05
0.000125191
-3.55869e-06
5.16446e-06
-6.37138e-06
-3.21822e-05
-8.35114e-06
6.75779e-06
3.37755e-05
1.80204e-05
5.88321e-05
-0.000109035
3.98424e-05
-3.01731e-05
4.07824e-05
-3.95761e-05
5.55143e-06
-3.65516e-05
0.00011111
-7.61335e-06
2.68694e-05
-4.32262e-06
-4.14638e-05
5.26065e-06
5.01649e-05
-1.39618e-05
4.77164e-05
4.26609e-05
-0.000131841
4.44968e-05
8.48029e-06
-3.22195e-05
5.04921e-05
2.43883e-05
6.84934e-05
-5.0548e-05
-8.48357e-06
0.000121474
5.04889e-05
-3.04799e-05
5.72101e-05
2.88807e-05
-5.56109e-05
0.000101714
-6.44333e-06
-0.000125751
1.84771e-05
0.000140447
-0.000116387
4.99641e-05
9.53036e-05
-1.72522e-05
-0.000154746
9.48282e-05
-0.000118524
0.000163269
0.000182567
2.45652e-05
-0.000128936
-7.81969e-05
-0.000123225
-8.03312e-07
0.000306595
1.94584e-05
-0.000118118
5.07602e-05
-2.98418e-05
-0.000149854
-3.45775e-05
8.45344e-05
-0.000184556
0.000148101
5.59131e-05
5.07801e-06
-0.000307752
-4.88775e-05
0.000162401
-7.36413e-05
0.000215737
1.30755e-05
-0.000174456
-5.43565e-05
-0.00014729
-4.99641e-05
0.000412991
1.45814e-05
-0.000148796
-0.000233922
0.000211156
3.73468e-05
5.51948e-05
-0.000437914
-0.000282019
0.000443211
-0.000401281
-5.02223e-05
-5.49893e-06
-2.42469e-06
5.81459e-05
8.62444e-05
9.31735e-05
-0.00022964
0.000105159
-2.44142e-05
2.79837e-05
-2.59059e-05
-4.50253e-06
-1.88194e-05
0.000104949
1.24886e-05
5.4779e-05
9.88286e-05
-2.32855e-05
0.000101666
1.27054e-05
-9.10864e-05
0.000147572
-0.000108678
-6.21791e-05
-7.63193e-05
0.000325557
-9.22602e-05
8.05505e-05
7.23881e-05
-0.000255735
1.97765e-05
-5.6067e-05
2.40076e-05
-3.19847e-06
-7.55829e-05
-2.11365e-06
8.0895e-05
-0.00012267
0.00013623
-1.67584e-05
0.00011864
-0.000316893
3.5231e-05
-3.44905e-05
-2.85419e-06
-2.38723e-05
0.000139998
-2.00296e-05
0.000132387
6.41195e-05
3.15954e-05
7.10749e-05
1.928e-05
-0.00012195
-3.42688e-06
3.39054e-05
1.11694e-06
7.41414e-05
-6.49337e-06
2.08518e-05
0.000117956
-0.000119528
0.00010984
-5.50833e-05
-0.000132911
-2.1448e-05
-6.30352e-05
-0.000145414
0.000348447
-1.7698e-06
-1.47962e-05
4.9911e-06
-0.000107136
-1.73832e-05
-4.89752e-05
-0.000278061
-8.22336e-05
-9.9188e-05
-2.4338e-05
0.00020576
-5.8249e-07
-9.1326e-05
9.67489e-06
-2.37835e-06
-9.73922e-05
0.000117332
-0.00013726
-7.13973e-05
-0.000178514
0.000271507
-0.000159797
-2.10953e-05
-0.000394449
4.95085e-06
0.00010916
-0.000110789
-3.32141e-06
4.80871e-05
-5.40444e-05
1.09081e-05
-6.71876e-05
0.000224434
0.000154349
0.00019886
-0.000463998
0.000171615
-2.05873e-05
-3.30298e-05
0.000177845
0.000147716
-0.000160942
2.41337e-05
2.65786e-05
-0.000100323
5.22993e-06
9.77791e-05
-2.68607e-06
0.00015826
7.52946e-05
-0.000333878
0.000140651
2.28392e-05
-4.04906e-05
-3.79499e-06
0.000142065
-3.89411e-05
-4.23566e-06
-1.58729e-05
-4.26477e-05
5.47256e-05
-6.79223e-05
1.31084e-05
6.98811e-05
-6.25088e-05
0.000167884
-0.000182925
-0.000173163
-0.000129386
2.34539e-05
-0.000151654
-4.59184e-05
-0.00010379
-0.000123159
-1.0462e-05
-0.000155969
-0.000104762
-3.89319e-06
4.86481e-06
0.000146301
-0.000313572
-1.35611e-05
-8.78097e-06
9.19592e-05
-3.29741e-05
-5.02042e-05
0.000144725
-5.27114e-05
-0.000100795
-0.000155133
-9.98281e-05
-3.48452e-05
2.70339e-06
-8.32291e-07
1.82499e-05
-0.000105806
0.0001071
-0.000243983
9.97545e-06
1.59298e-05
-3.15511e-05
-1.45887e-05
3.02099e-05
-7.29782e-05
4.32409e-05
4.56671e-05
-2.70668e-05
-7.74625e-05
2.48414e-05
-1.88205e-05
-2.06096e-05
-1.12437e-06
5.61757e-05
1.00096e-05
2.28173e-06
-3.11118e-05
-5.54437e-06
1.44296e-05
-1.81659e-05
5.58625e-05
-4.29508e-05
-2.91393e-05
-2.34939e-05
-2.95923e-05
8.22256e-05
-1.43163e-05
-7.10377e-05
5.62147e-05
-2.55645e-05
-1.22457e-05
1.83953e-05
4.30668e-05
-8.70267e-05
5.30474e-05
-4.68977e-05
6.08129e-05
-8.87838e-05
8.42679e-05
-3.22921e-05
3.17603e-05
2.88821e-05
-2.83503e-05
7.8464e-05
-2.70412e-06
-0.000108052
2.31976e-05
-8.21017e-05
4.36153e-06
0.000106622
-4.29891e-05
-6.7463e-05
7.28007e-05
-0.000118494
0.00010036
-3.40514e-05
-3.45979e-06
-4.65735e-05
8.40847e-05
3.07312e-05
-2.70462e-05
-3.77364e-05
-7.10038e-05
9.82752e-05
-2.81578e-05
8.64416e-05
-8.533e-05
4.24512e-05
-0.000108345
5.72735e-05
-8.58261e-05
9.71416e-05
1.65821e-05
-2.48213e-05
-2.37902e-05
3.20293e-05
-5.93545e-05
5.40106e-05
-5.26422e-05
8.50438e-05
-8.66909e-05
9.33338e-05
5.48922e-06
-1.1305e-05
-2.72817e-05
3.30974e-05
-2.20462e-05
-3.80957e-05
6.56311e-05
-1.01575e-05
-2.31937e-05
-1.10955e-05
3.14016e-05
-3.04637e-05
4.58254e-05
-8.01145e-05
2.18245e-05
-2.85186e-05
4.03682e-05
3.82393e-05
-1.02639e-05
-5.63177e-05
2.83423e-05
-3.88961e-05
-2.80397e-05
0.000105175
-4.0878e-05
-8.28194e-06
5.55845e-05
2.84414e-05
-0.000124904
7.45028e-05
-2.72002e-05
-7.13494e-05
0.000117812
-9.92256e-05
0.000119791
-1.10554e-05
-0.000131657
2.29216e-05
-9.39481e-05
-5.74095e-05
0.000271148
-9.12913e-05
-1.37123e-05
0.000131609
5.0064e-05
-0.000272965
0.000166647
-4.87498e-05
-0.000180442
0.00028968
-0.000262035
1.90774e-06
3.04991e-07
1.07616e-06
-3.28889e-06
3.2923e-07
-6.34908e-07
2.21342e-06
2.68852e-06
-2.0543e-06
3.5234e-06
-4.74664e-07
-3.68365e-06
7.61816e-07
4.975e-06
-2.32038e-06
5.77071e-06
-1.71888e-06
8.78202e-07
-5.79923e-07
-4.73968e-07
1.75689e-07
-1.44441e-06
2.58773e-08
2.29674e-06
-1.68984e-06
-3.34491e-07
-1.24334e-07
-1.01349e-07
-2.48283e-07
8.7456e-07
-8.23203e-07
-1.35333e-07
2.22007e-07
-1.88024e-07
3.67574e-07
3.7166e-07
-1.63929e-07
5.57382e-07
-1.63176e-06
9.32618e-07
-1.98952e-09
9.81034e-07
-1.91166e-06
3.51755e-07
4.24793e-08
5.38387e-07
-1.9537e-07
5.45136e-07
-3.01211e-06
-1.0913e-06
4.14588e-06
-7.58744e-07
-1.27232e-06
1.6916e-07
-1.45583e-06
-4.4449e-08
3.76137e-06
-5.21647e-06
-4.94666e-06
6.40175e-06
-3.99092e-06
-4.18644e-06
1.19387e-05
-4.70266e-06
-4.50473e-06
5.31762e-06
4.2631e-06
-1.42834e-05
1.09762e-05
-1.01633e-05
-1.58421e-05
2.26318e-05
-1.65257e-05
-1.34474e-05
-5.59744e-06
1.42249e-06
1.76224e-05
1.84026e-07
1.33971e-06
-1.49712e-05
2.58263e-06
-7.99608e-06
-2.27373e-05
-1.88699e-05
4.30296e-05
-3.30265e-07
-2.10674e-05
-2.06983e-05
4.411e-06
-2.90247e-05
2.68549e-05
-6.26432e-06
-2.31205e-05
2.5299e-06
-1.70796e-05
-1.0737e-05
5.46714e-05
-9.16657e-06
-1.41774e-05
-1.15643e-05
2.49177e-05
-2.25201e-05
6.90556e-06
-3.26474e-05
3.04287e-05
-4.66437e-05
4.46093e-05
-1.7394e-05
-1.64788e-05
-1.77042e-05
5.1577e-05
-1.05454e-05
-3.31645e-05
2.63159e-05
-1.27563e-05
-1.42679e-05
-3.18323e-05
-3.02229e-05
4.4351e-05
-1.50421e-05
-4.99548e-05
-1.02095e-05
-3.27697e-05
-3.95195e-05
-9.57069e-06
6.63306e-06
2.69506e-05
-2.40129e-05
8.98218e-06
1.81003e-05
-3.66532e-05
6.14956e-06
9.46566e-06
8.16704e-06
-2.6024e-05
2.40065e-05
-3.05074e-05
4.814e-05
2.95909e-05
2.84354e-05
-3.9926e-05
2.0349e-05
3.61924e-05
-2.05842e-05
2.29955e-05
-3.07425e-05
-4.73643e-05
-3.06953e-05
-7.46626e-07
7.88062e-05
6.07389e-06
-2.94317e-05
-2.77897e-05
3.16829e-06
8.55641e-06
-7.20273e-06
-2.91434e-05
1.11183e-05
6.06323e-07
1.19171e-05
1.16253e-05
-3.07451e-05
4.07299e-05
-1.76944e-05
4.86502e-05
-6.64566e-05
8.86334e-05
-1.85255e-05
-2.63451e-06
2.96354e-05
-8.47539e-06
1.08817e-05
2.29896e-05
-5.23969e-05
-2.81492e-06
1.10621e-05
9.99399e-06
-1.93741e-05
6.56523e-06
-8.69162e-06
2.97477e-05
1.29126e-05
3.21151e-05
-1.53923e-05
2.5228e-05
1.06741e-05
-2.75446e-05
5.09681e-05
-2.16907e-05
-4.27995e-06
-2.81081e-05
6.21357e-05
-3.10097e-06
5.38623e-06
5.77077e-06
4.02965e-06
-1.29014e-05
1.10624e-05
9.46113e-08
6.81635e-06
-2.44774e-05
3.54422e-05
-1.75635e-05
5.83021e-05
-1.04117e-05
-2.7074e-06
1.33085e-05
-1.89425e-07
1.44407e-05
1.46487e-05
-2.77768e-06
1.45109e-05
1.61466e-05
-4.27559e-06
-1.35161e-05
4.41736e-05
-4.4832e-06
6.54331e-06
7.93019e-06
1.63088e-06
-1.61044e-05
-3.49152e-06
8.20202e-06
1.83281e-06
-9.58581e-06
5.449e-06
-2.3652e-05
1.32788e-05
1.03911e-05
8.56059e-06
-3.22305e-05
2.93494e-06
1.8312e-05
2.91224e-06
1.04138e-05
2.09496e-05
1.85212e-05
8.14271e-06
3.11189e-05
1.2848e-05
8.58551e-06
3.14045e-05
1.24262e-05
4.55903e-06
1.49604e-05
-7.01405e-07
-2.14273e-05
-1.35432e-05
-3.26362e-05
-6.38259e-06
-1.06388e-06
9.25377e-06
-4.25079e-06
-4.56243e-06
-8.71212e-06
-1.68251e-05
-4.49636e-06
-1.147e-05
1.14039e-05
-8.89884e-06
-4.30964e-06
6.78704e-06
-1.17083e-05
-1.19038e-05
-1.68629e-05
4.29085e-06
-3.00526e-05
-1.17271e-05
-1.78244e-05
-1.824e-06
7.38818e-06
1.08297e-05
-2.68412e-05
-2.71855e-06
1.17242e-05
2.04751e-05
-3.69666e-06
5.2506e-06
1.04295e-05
4.78349e-06
9.46462e-06
-1.79448e-05
3.16287e-06
6.87123e-06
3.97801e-06
-8.99296e-06
8.17782e-06
-1.5992e-05
8.56513e-06
-1.50925e-05
1.00016e-05
3.21645e-06
7.94621e-06
1.25166e-05
9.79991e-06
4.21791e-05
-4.12793e-06
-6.6743e-05
2.86918e-05
-2.94242e-05
-3.9193e-05
0.000110796
-2.25021e-07
-3.33271e-05
-3.14575e-05
3.04244e-05
8.08054e-07
6.13909e-06
-7.09237e-05
-5.1207e-05
4.24384e-05
-0.000111811
-8.0279e-06
-2.02605e-05
5.01402e-06
2.32744e-05
4.38086e-06
-1.2746e-05
3.37238e-07
-3.07954e-05
1.49158e-05
-1.30151e-05
-1.17989e-05
2.9828e-05
-3.81954e-05
1.24343e-05
6.44795e-05
1.9635e-06
-9.72384e-05
3.49366e-05
4.44586e-05
5.58309e-05
-9.20628e-05
7.89687e-05
-1.00066e-05
-1.49814e-05
2.76493e-06
1.76116e-05
1.664e-05
-3.79132e-06
-1.53421e-05
2.49343e-06
-3.46464e-05
-1.02705e-06
5.23134e-05
-4.79655e-06
-3.36412e-05
1.85803e-05
-6.19406e-05
2.80182e-05
-4.16479e-05
5.92011e-05
-3.31936e-05
3.37174e-05
-5.32039e-06
3.03117e-06
-6.9866e-05
5.40142e-05
-0.000112924
4.60837e-05
-1.60374e-05
-1.65029e-05
-5.77527e-06
3.83155e-05
-1.45987e-06
-1.51492e-05
5.71638e-07
-1.71547e-05
1.67528e-05
-5.52342e-05
2.33322e-05
5.34159e-05
4.20708e-05
-0.000130149
-0.000124974
-2.00662e-05
-3.36811e-05
3.83765e-06
2.35725e-05
1.40315e-05
3.07365e-08
-1.45553e-05
4.93033e-07
-2.8121e-05
-8.96695e-06
5.11194e-05
2.5778e-07
-2.8348e-05
9.80881e-06
-5.10748e-05
2.67107e-05
-5.19941e-05
5.28359e-05
-5.36091e-05
1.87274e-06
-0.000133032
-5.59969e-05
-1.99997e-05
-4.89777e-05
3.32541e-06
-6.94352e-05
1.01129e-05
-2.19947e-05
3.55321e-05
-0.000127393
7.06062e-05
-0.000147998
-8.98273e-06
1.01536e-05
-1.18767e-05
3.87101e-05
7.13767e-05
1.46984e-05
-0.000124785
2.23598e-05
-1.41267e-05
3.0477e-05
4.33524e-05
5.0384e-05
5.6596e-05
-6.06098e-05
-1.06157e-05
9.76887e-05
-7.59909e-05
0.000108728
-0.000121902
-6.62221e-05
-5.32832e-05
-3.00017e-05
0.000149507
2.38717e-06
-9.32172e-05
2.4608e-05
-5.24816e-05
1.58562e-06
7.1457e-05
2.92215e-05
-0.00015316
7.91262e-05
-6.08362e-06
8.62005e-05
-0.000150196
0.000135325
-1.52003e-05
-2.49335e-06
3.75416e-06
1.39395e-05
8.85305e-06
7.52134e-06
-3.15747e-05
5.09564e-06
1.26405e-06
-6.29399e-06
8.23262e-07
9.22487e-06
9.2482e-06
-8.02091e-06
-3.88221e-06
9.80109e-06
6.63001e-06
-5.24475e-06
-6.70221e-06
-8.03402e-06
1.9981e-05
4.88503e-06
-1.68141e-06
-8.44838e-06
-1.00017e-05
8.18448e-06
-1.74614e-05
1.2548e-05
3.23202e-06
1.61987e-06
-2.75297e-05
1.52458e-05
-2.36276e-05
1.97597e-05
1.02678e-05
3.16987e-06
5.2469e-06
-1.86846e-05
-1.99918e-06
5.04796e-06
7.21904e-06
-1.28591e-06
2.45659e-06
-6.60061e-06
-3.28844e-06
1.4937e-05
3.76052e-06
-5.11424e-06
7.49458e-06
-5.01997e-06
6.66272e-06
-2.25077e-06
-1.75199e-05
1.9597e-06
1.7811e-05
-3.06518e-06
-5.89975e-07
1.40438e-06
-7.39089e-06
-1.31942e-05
-2.91104e-06
-2.71707e-06
5.03814e-06
-5.91582e-06
4.40915e-06
-3.84913e-06
-7.84759e-07
1.91682e-06
-1.20889e-06
-8.55606e-06
4.92582e-06
-1.35256e-05
6.10076e-06
-1.19748e-05
-4.1796e-06
5.21569e-06
1.09387e-05
-1.7801e-06
-8.68388e-06
-1.51081e-06
-6.24172e-06
2.82017e-07
5.6855e-06
5.8838e-06
4.96612e-06
1.0014e-06
2.35045e-06
3.86425e-06
-3.30903e-07
3.56676e-07
6.95989e-06
3.31305e-06
-8.13267e-06
8.88542e-06
6.28775e-06
7.49527e-06
9.2283e-07
-1.47059e-05
2.60765e-06
8.93806e-06
-5.25804e-06
1.36067e-06
8.74215e-06
5.93703e-06
8.78412e-06
-1.37984e-05
4.62704e-06
1.02478e-05
8.24659e-06
1.89809e-06
2.16157e-05
1.54694e-05
2.09657e-05
8.66699e-06
-4.51021e-05
-3.62073e-07
5.23256e-07
1.53083e-05
2.13339e-05
-7.30226e-07
1.99072e-05
-2.82219e-05
8.83799e-06
-9.92998e-06
4.51454e-05
-2.91715e-05
-4.87263e-05
-1.36103e-05
-1.40762e-05
-1.92534e-05
4.69398e-05
-9.34094e-06
-4.28486e-05
3.85793e-05
-1.48657e-05
-8.55141e-06
-3.51088e-05
-3.52728e-05
5.11282e-05
-2.55504e-05
-5.2407e-05
1.03432e-05
-5.07594e-05
-3.3481e-05
9.61241e-06
1.16914e-05
-3.21833e-05
5.33227e-06
-2.34232e-05
3.15692e-07
1.6708e-05
2.8458e-05
5.43304e-05
-2.22565e-05
2.73706e-05
1.98902e-05
-2.50043e-05
8.48852e-05
-2.28802e-06
-0.000104854
1.41163e-05
9.81394e-05
-3.86376e-05
1.69285e-05
4.15993e-05
-1.61574e-05
-4.74845e-05
5.6592e-05
-7.50375e-05
8.76367e-05
-6.41078e-05
-0.000115033
-4.43735e-06
0.000183578
-2.45055e-05
1.96304e-05
-5.92327e-05
-5.58442e-05
-8.36941e-05
-0.000106915
7.60802e-05
5.04653e-05
6.48858e-06
-0.000172636
0.000120852
-0.000170208
0.000192495
-0.0001024
-8.91986e-06
9.09798e-05
2.03403e-05
9.0302e-05
7.4932e-05
-0.000267634
9.46009e-05
-1.32188e-05
1.28687e-05
9.26361e-05
-3.05728e-05
9.36613e-05
1.01872e-05
-0.00011256
0.000300822
-3.31424e-05
-3.9738e-05
-3.54825e-06
1.47283e-07
4.3139e-05
7.31195e-05
7.48377e-05
-0.000187695
7.80566e-05
-8.48531e-06
2.19976e-05
-2.12815e-05
-5.68796e-07
-1.41008e-05
7.92374e-05
1.33805e-05
4.01757e-05
7.73363e-05
-2.43098e-06
6.56819e-05
-6.5343e-05
2.09214e-06
7.53471e-05
-6.6362e-05
-1.1416e-05
-6.09004e-05
0.000201929
6.79071e-05
6.16199e-05
-0.00019487
6.1514e-05
5.94164e-06
-1.06837e-05
6.55526e-06
-3.3983e-05
-9.15916e-05
-8.48255e-05
0.0002104
-2.29012e-07
9.01817e-07
-3.46558e-05
-8.8227e-05
-3.59357e-06
-4.6421e-05
4.79042e-05
-5.81342e-07
2.06179e-05
-0.000101695
6.73507e-05
-0.00013496
8.18247e-05
3.34302e-05
-6.59435e-06
6.92511e-05
3.179e-05
-0.000202736
7.16684e-05
-2.99862e-06
-0.000112736
0.000217834
-9.87596e-05
-1.69749e-05
0.000103184
-4.38052e-06
-3.33682e-07
-9.84693e-05
-4.82213e-05
-7.82354e-05
-5.56398e-06
-4.70379e-05
-0.000111496
0.000125492
-1.95602e-05
5.95349e-05
-0.000218069
-7.22326e-05
-6.33663e-06
0.000171466
0.000224725
6.13004e-06
0.000116706
5.64063e-05
-1.7247e-05
-0.000139646
0.000102713
5.41804e-05
-0.000114312
0.000115765
-1.87004e-05
8.0345e-05
-0.000334303
-0.000144908
-8.54949e-05
0.000346168
-0.000104468
-5.91405e-05
4.09512e-05
-6.50742e-05
5.81691e-05
-0.000123627
-0.000111661
-9.85903e-05
9.50453e-06
-0.000107823
-2.53082e-05
1.11092e-05
-0.000113265
-0.000132969
0.00010855
3.55291e-05
9.59426e-05
-0.000342177
2.13655e-05
-3.32458e-05
3.13248e-05
7.57251e-06
9.40838e-05
-6.02029e-06
-9.56361e-05
8.52633e-05
-9.83365e-05
2.06457e-05
-9.91103e-05
0.000278457
-8.53605e-05
9.86475e-05
-1.93072e-05
0.000111418
-0.000292414
-1.15287e-05
2.46098e-05
-1.19915e-05
8.58987e-07
-5.18954e-05
-0.000110398
-0.0002681
-3.64389e-06
-7.29396e-05
6.2653e-05
1.39305e-05
-6.37535e-05
6.1259e-05
-1.14942e-06
5.6885e-05
-0.000193578
-5.86625e-05
-6.14326e-05
0.000181354
-6.16518e-05
1.83989e-06
4.7423e-06
-9.50911e-06
5.96272e-06
-5.74989e-06
5.28368e-05
-5.54218e-05
8.33488e-06
8.80694e-05
-8.38439e-05
-6.018e-05
-9.28454e-05
3.19917e-05
-0.000171257
-7.21246e-05
2.02795e-05
-0.000132978
2.0638e-05
2.18099e-05
-8.68533e-07
-4.15793e-05
-2.99725e-05
-2.25892e-06
-8.54448e-06
1.2117e-05
-1.24413e-05
-1.82441e-05
2.84265e-05
-8.86885e-06
-2.79814e-05
-1.88609e-06
-1.15443e-05
5.45172e-06
7.97868e-06
-1.29736e-05
9.43134e-06
1.65619e-06
2.81629e-05
2.09474e-05
2.18253e-06
6.84064e-06
-3.57145e-06
1.00242e-05
1.58964e-06
-1.10549e-05
4.92421e-05
1.67331e-05
1.18048e-05
1.62607e-05
3.11692e-06
-3.11825e-05
4.50035e-06
1.35897e-05
-6.28523e-06
1.79315e-05
2.82962e-06
1.68277e-05
2.76057e-05
-4.13165e-05
2.09245e-05
9.4929e-06
-3.48053e-05
7.36612e-05
-4.3699e-06
5.01172e-05
-1.13441e-05
-3.59128e-05
-2.86028e-06
-3.31577e-05
-3.76185e-05
0.000120893
-1.4747e-05
-2.97547e-05
-4.87101e-05
5.02931e-05
-1.633e-05
1.26856e-05
-9.11505e-05
1.79502e-05
-1.91503e-05
-3.47127e-05
-2.38253e-05
4.1569e-06
-7.54102e-05
0.000101878
-8.18749e-05
2.038e-05
8.27594e-05
-4.22056e-05
-6.09338e-05
5.00929e-05
-5.33799e-05
2.36669e-05
-1.3266e-05
0.000146118
8.81584e-05
3.06839e-05
-0.000172222
4.43623e-05
-4.48769e-05
7.59732e-05
-5.63986e-05
-4.3173e-05
-4.87794e-05
-3.05179e-05
7.25541e-06
-4.05814e-06
-4.63703e-05
-7.13117e-05
2.97877e-05
-6.65214e-05
8.00194e-05
2.96486e-05
-0.00014254
-8.66803e-05
7.21654e-06
6.00963e-05
-6.11174e-05
-6.19542e-06
7.43459e-05
2.17375e-05
0.00017363
8.9001e-05
-0.00019195
-1.90145e-05
0.000119936
-7.04941e-06
-0.000131901
-9.08762e-05
-5.14001e-05
0.000262212
-5.06437e-06
-9.28612e-05
-0.000140857
0.000155157
-1.93642e-05
5.19576e-05
-0.000285676
-0.000180572
0.000284329
9.54094e-05
-9.73959e-06
-9.49516e-05
9.28179e-06
-0.000155837
-2.17185e-05
-0.000145924
-1.96522e-05
0.000139154
2.52885e-05
-0.000259394
0.000126645
2.17909e-05
4.1558e-05
3.76932e-05
-5.39626e-05
3.52644e-05
0.000132938
-4.33083e-05
5.68542e-05
-0.000151539
1.4966e-05
4.28589e-07
-1.59883e-05
5.93746e-07
-8.98153e-06
-3.57118e-06