/*--------------------------------*- C++ -*----------------------------------*\
| =========                 |                                                 |
| \\      /  F ield         | OpenFOAM: The Open Source CFD Toolbox           |
|  \\    /   O peration     | Version:  v2012                                 |
|   \\  /    A nd           | Website:  www.openfoam.com                      |
|    \\/     M anipulation  |                                                 |
\*---------------------------------------------------------------------------*/
FoamFile
{
    version     2.0;
    format      ascii;
    class       volVectorField;
    location    "0.3";
    object      U;
}
// * * * * * * * * * * * * * * * * * * * * * * * * * * * * * * * * * * * * * //

dimensions      [0 1 -1 0 0 0 0];


internalField   nonuniform List<vector> 
6576
(
(0.0338973 -1.48152 -0.0687017)
(-0.095178 -1.5373 0.0802925)
(-0.0345039 -1.56805 0.0120202)
(0.0456058 -1.45041 -0.0639284)
(-0.00537941 -1.50779 0.00499854)
(-0.0836895 -1.60057 0.081647)
(-0.0183077 -1.54824 0.032623)
(0.0161549 -1.49787 0.00303527)
(0.0186258 -1.24867 -0.00981193)
(0.0184894 -1.45842 0.00110101)
(-0.0117374 -1.5109 -0.0163535)
(-0.0177869 -1.55217 -0.010392)
(-0.00216782 -1.55235 0.00709892)
(0.00772965 -1.48791 -9.97164e-05)
(0.0623232 -1.45632 0.0233087)
(0.00792443 -1.82205 -0.0342705)
(0.0699039 -0.860243 0.0343271)
(0.0172197 -1.72009 -0.0170758)
(0.0582702 -1.56291 0.0657425)
(0.0184034 -1.47984 0.0037417)
(0.0507603 -1.37655 0.0516596)
(0.00199035 -1.53317 0.0152325)
(0.0106517 -1.46848 0.00881217)
(-0.00491058 -1.49992 -0.0122688)
(0.00159677 -1.59419 0.0214121)
(0.0558218 -1.53013 0.0582225)
(0.065288 -1.49347 0.0686552)
(0.000758815 -1.45687 0.0140722)
(-0.0058421 -1.57952 -0.0317565)
(0.00760469 -0.96331 -0.00866866)
(-0.0572325 -1.57873 0.0665879)
(-0.0283117 -1.45721 -0.0100423)
(-0.0129175 -1.55592 0.00032331)
(0.012883 -1.45819 0.0322053)
(0.0172745 -1.46672 0.0352951)
(-0.0195488 -1.25743 0.0098515)
(0.00220935 -1.64153 0.0115967)
(-0.0147877 -1.56905 0.0103718)
(0.0185726 -1.47994 0.0248616)
(0.0107719 -1.47793 0.019134)
(0.00240645 -1.3124 0.0320526)
(-0.017875 -1.4773 0.00610178)
(-0.00108216 -1.40699 0.0062092)
(0.281988 0.590207 0.32237)
(0.168125 0.654589 0.193612)
(-0.0919385 0.509679 -0.077463)
(-0.0201238 0.625135 0.191789)
(0.132111 0.599903 0.342538)
(-0.0929901 0.357932 0.0644209)
(-0.0810818 0.477991 -0.0275688)
(-0.179627 0.530266 -0.0415917)
(-0.0726271 0.458348 0.0867812)
(-0.00836094 0.679299 -0.0301143)
(0.00401417 0.681095 0.0198742)
(0.00199208 0.674012 -0.00317226)
(-0.00577471 0.686831 0.0255848)
(-0.00944847 0.667747 -0.0119663)
(-0.0149586 0.665546 -0.00475371)
(-0.000593942 0.679232 0.0126786)
(-0.0105436 0.671668 -0.00886233)
(-0.0236757 0.669933 0.0183067)
(0.00557114 0.68045 -0.0209807)
(0.00306326 0.67334 0.0149541)
(0.0115399 0.666925 0.00135461)
(0.000804278 0.681796 0.0244886)
(-0.0159697 0.688124 0.0373531)
(-0.00168064 0.651025 0.0361365)
(0.00851404 0.645567 0.0266801)
(0.00147052 0.63689 0.0022158)
(0.0250127 0.657891 0.0318557)
(-0.0114488 0.667931 0.0500837)
(0.00425551 0.653969 0.0276045)
(-0.023944 0.666418 0.0513885)
(0.222995 -0.262011 0.0304387)
(0.32601 -0.616241 0.522984)
(-0.0908484 -0.22449 -0.711864)
(0.268328 -0.838527 0.245417)
(0.16334 -0.836349 -0.358622)
(-0.0968924 -1.27298 -0.7077)
(-0.0548186 -1.3754 -0.301726)
(0.000295376 -0.576762 -0.0223481)
(-0.174182 -0.126047 0.0288955)
(-0.201198 0.238085 0.107642)
(0.0519849 -0.609199 0.512398)
(0.00863145 -0.545962 0.230262)
(-0.100871 -0.291314 0.256255)
(-0.125819 -0.15196 0.291331)
(0.0553867 0.163848 -0.824428)
(-0.00394152 0.0809562 -0.0962994)
(0.00541185 0.281977 0.247844)
(0.0595103 0.287462 0.281048)
(0.298007 0.301474 -0.583464)
(0.302789 0.214664 0.217637)
(0.392753 0.0850173 -0.624929)
(0.072933 0.56792 1.38078)
(-0.0260734 0.485078 1.21982)
(-0.0724049 0.520773 1.84033)
(0.361174 0.492333 0.2446)
(0.128124 0.0533963 0.985304)
(-0.0757361 0.077327 1.52733)
(0.134728 0.267632 1.09728)
(0.0971915 -0.107596 2.64167)
(0.0792584 0.248595 1.98288)
(0.0301615 0.497885 1.50968)
(-0.040998 0.36133 2.12263)
(-0.0618407 0.099792 2.61873)
(0.0317278 0.435417 1.86471)
(-0.0306433 0.156539 2.2033)
(-0.0862456 0.167645 0.407776)
(-0.0059428 0.267174 0.388228)
(0.0585698 -0.0655238 0.256429)
(-0.0959835 0.280684 0.514112)
(0.0200449 0.000205919 0.17883)
(0.115146 0.0386028 0.267982)
(0.00849471 -2.41867 0.00644495)
(-0.00211688 -2.57144 0.00880884)
(0.0172906 -2.55384 -0.00147008)
(-0.0216772 -2.60199 0.0424037)
(-0.0143286 -2.63109 0.0442803)
(0.000810933 -2.59685 0.00525205)
(0.00324318 -2.55302 0.0280712)
(0.0355431 -1.33541 0.034731)
(0.0731561 -1.53736 0.0822553)
(-0.0150715 -1.54262 0.0285933)
(-0.00253444 -1.51296 -0.0171468)
(-0.0686843 -1.46864 -0.0273426)
(0.0866207 -1.62426 0.116009)
(-0.0823097 -1.38699 0.0170191)
(0.0521747 -7.61631 -0.0182391)
(0.0414086 -7.47504 0.00330156)
(0.0147617 -7.39015 -0.0100508)
(0.00592548 -7.41884 -0.083181)
(0.059392 -7.54714 -0.0673013)
(-0.0976741 -6.73086 -0.0200348)
(-0.0226557 -7.31939 -0.0320847)
(0.0147892 -0.114143 0.796773)
(-0.0239304 0.063465 0.592546)
(0.241782 0.310246 0.411444)
(0.00472623 -0.13387 0.725002)
(-0.0653847 -0.198853 0.781278)
(-0.144594 -0.104306 0.641112)
(0.0633204 -0.0321626 0.561355)
(0.160583 0.274516 0.547543)
(-0.00129166 -0.032563 0.823088)
(-0.064246 0.0581285 0.596623)
(0.00791154 0.148676 0.718979)
(-0.0920443 0.0406291 0.811376)
(-0.202636 0.0643269 0.542667)
(0.0828536 0.267541 0.485196)
(-0.0505249 -0.231266 1.51273)
(-0.00863785 -0.249814 1.57102)
(-0.0391374 -0.270823 1.67135)
(-0.0503875 -0.028017 1.31706)
(-0.0502133 -0.0899263 1.46636)
(-0.097259 -0.109439 1.51948)
(-0.0714659 0.0113507 1.35578)
(0.0652916 -0.243764 1.16116)
(-0.0291079 -0.359728 1.13003)
(0.0201837 -0.10911 1.11922)
(0.125455 -0.158286 0.947569)
(0.117245 -0.327405 0.778451)
(-0.00993252 -0.324234 0.813608)
(0.0079971 -0.13778 0.940828)
(0.107539 -0.0794432 0.518759)
(0.0644837 0.0187231 0.767798)
(0.0184193 -1.04289 1.40286)
(-0.0287266 -1.09943 1.48565)
(-0.0407423 -0.911652 1.13725)
(-0.135431 -0.412005 1.37291)
(-0.0609725 -0.662895 1.4793)
(-0.0583616 -0.771382 1.39043)
(-0.0653542 -0.476982 1.16393)
(-0.167563 -0.833746 0.917508)
(-0.0838232 -0.928871 0.806647)
(0.0226706 -0.829352 1.15001)
(-0.0883454 -0.704223 0.679804)
(0.0416096 -0.924387 0.634856)
(0.219159 -1.0501 0.649246)
(0.186232 -1.27959 0.587111)
(0.198107 -0.851594 0.449239)
(0.2121 -0.636069 0.473896)
(0.00572176 -3.09813 0.473711)
(0.0492322 -3.30436 0.39542)
(0.0194541 -3.12326 0.569533)
(0.0419497 -3.29151 0.415424)
(0.0691014 -3.48489 0.331693)
(0.0280144 -3.819 0.391562)
(0.0552686 -3.44409 0.469605)
(0.0839886 -3.45 0.415729)
(0.0424212 -3.63172 0.364988)
(-0.0350664 -3.45109 0.29556)
(-0.0343927 -3.37115 0.351954)
(-0.00995681 -3.38094 0.317401)
(0.145706 -3.25929 0.381343)
(0.048684 -3.26437 0.396114)
(0.0825492 -3.25237 0.344162)
(0.00933307 -3.27729 0.346454)
(-0.017231 -4.99246 0.437612)
(-0.0239689 -4.99312 0.383872)
(-0.0519064 -5.0169 0.335228)
(0.0386332 -4.83029 0.270506)
(0.0227022 -4.89645 0.341616)
(-0.047413 -4.97292 0.34309)
(-0.0410253 -4.85606 0.265874)
(0.0191232 -5.29373 0.347865)
(0.0271679 -5.18004 0.286896)
(0.0187078 -5.62453 0.287179)
(-0.0553008 -5.03946 0.332982)
(-0.0855606 -4.68785 0.295852)
(-0.0245871 -4.91348 0.288281)
(-0.0103981 -5.18024 0.295694)
(-0.136505 -7.26633 -0.159141)
(0.237081 -7.04849 0.102895)
(0.117648 -6.716 -0.210569)
(-0.322074 -7.3651 -0.602521)
(-0.590821 -7.80123 -0.734121)
(-0.602478 -7.83989 -0.695342)
(-0.182027 -7.15297 -0.319113)
(-0.0133033 -2.81593 0.231389)
(0.00665656 -2.84193 0.227716)
(-0.00787469 -2.92307 0.205476)
(0.0185747 -2.70198 0.363838)
(0.074191 -2.66374 0.43847)
(0.0432927 -2.73762 0.357499)
(-0.00513006 -2.78914 0.309001)
(0.0509989 -2.6603 0.451383)
(-0.00915927 -2.67429 0.389303)
(0.00603926 -2.5198 0.505754)
(-0.129902 -2.5918 0.451234)
(-0.101187 -2.42474 0.486061)
(-0.0790452 -2.43057 0.52399)
(-0.0901749 -2.56312 0.452828)
(-0.0288361 -2.3953 0.404661)
(-0.0366257 -2.22005 0.505248)
(0.0371241 -2.08832 0.60389)
(0.0163632 -2.51792 0.505943)
(0.0494691 -2.79005 0.425024)
(0.00834642 -2.42624 0.494128)
(0.0278149 -2.25836 0.582563)
(-0.0153816 -2.03098 1.15114)
(0.0211665 -2.53792 1.07954)
(-0.125998 -1.92363 1.12462)
(-0.030445 -2.2751 0.883778)
(0.0109724 -2.40535 1.05505)
(-0.112736 -1.61968 0.986653)
(-0.0393587 -1.95305 1.08496)
(-0.011908 -1.38631 1.36762)
(-0.0140454 -1.17556 1.46218)
(-0.0184903 -1.29206 1.51592)
(-0.0564104 -1.59405 1.27624)
(-0.0842855 -1.54052 1.2734)
(-0.0441592 -1.60526 1.29441)
(-0.0697696 -1.54678 1.29466)
(-0.0693111 -1.28635 1.32061)
(-0.0612599 -1.49049 1.53313)
(-0.00873636 -0.412199 1.53202)
(-0.0607821 -0.2577 1.69043)
(0.071381 -0.235613 1.7344)
(-0.0304561 -0.526915 1.5502)
(-0.0280253 -0.496307 1.53328)
(-0.0198107 -0.342646 1.67604)
(0.104125 -0.198795 1.82351)
(-0.0354417 3.99741 1.04672)
(-0.0712244 3.07227 0.815606)
(-0.0286741 2.48797 0.766831)
(-0.0581242 3.9515 1.11372)
(-0.0279261 4.15539 1.12977)
(-0.114959 3.56107 0.935606)
(-0.125712 3.27818 0.908589)
(-0.00850918 -0.00562241 -0.616272)
(-0.197269 -0.0403086 -0.719807)
(-0.0101845 0.0875782 -0.332438)
(0.0149275 -0.0147441 -0.604031)
(-0.115372 0.0242554 -0.636068)
(0.0504865 0.211811 -0.29591)
(0.11725 0.143653 -0.319354)
(-0.0489138 0.196166 -0.546624)
(-0.0229289 0.106073 -0.518421)
(0.0259445 0.404242 0.0328807)
(0.0270418 0.318562 -0.031738)
(0.00423199 0.39762 0.0228768)
(0.0212396 0.370383 -0.0277092)
(0.0860767 0.464951 0.0250678)
(-0.061717 0.44278 -0.112804)
(0.00586102 0.463943 -0.0397013)
(-0.0339402 0.731455 -0.129763)
(-0.078345 0.738737 -0.0795766)
(-0.00473464 0.658769 -0.291724)
(-0.0380243 0.621195 -0.141624)
(0.0548724 0.624174 -0.195785)
(-0.109314 0.694325 -0.0547304)
(-0.0372015 0.732447 -0.0678086)
(-0.0883984 0.659292 0.0443613)
(0.0742808 0.701204 -0.027754)
(0.0313932 0.36722 -0.0462824)
(0.0866867 0.379403 -0.018351)
(0.0211046 0.374244 -0.0395952)
(0.00477807 0.559015 -0.0544692)
(-0.00910182 0.482074 -0.0108245)
(-0.00506651 0.620788 -0.0399039)
(0.000417098 0.411163 -0.0277707)
(-0.0221927 0.506113 0.0728863)
(-0.018843 0.636886 -0.0432672)
(-0.025768 0.496414 -0.0750292)
(-0.0600413 -0.285525 -0.17188)
(0.023545 -0.321458 -0.195055)
(-0.00235769 -0.481129 -0.229128)
(0.0316686 -0.163157 -0.327103)
(-0.151254 -0.230641 -0.197299)
(-0.0995464 -0.299078 -0.208971)
(0.0558318 -0.289508 -0.303742)
(0.0883643 -2.09986 -0.0247143)
(0.0234216 -2.10803 -0.0653083)
(0.00717645 -1.51451 -0.193232)
(-0.00285609 -2.05126 0.201597)
(-0.105961 -2.16132 0.198028)
(0.14654 -1.34007 0.33048)
(-0.281964 -1.87433 0.309689)
(-0.594785 -1.84278 0.714577)
(-0.634981 -1.33498 0.965046)
(-0.00181301 0.0694002 -0.186443)
(0.0126729 -0.116909 -0.245868)
(-0.010648 0.00873914 -0.293456)
(0.0760397 -0.0305317 -0.137992)
(-0.00903622 0.0941117 -0.182996)
(0.147701 -0.189008 -0.297309)
(0.0602429 0.0220488 -0.269398)
(0.107825 0.761144 -0.176514)
(-0.00929092 0.637205 -0.241917)
(-0.00783303 1.10343 -0.0884795)
(0.0325487 0.877109 -0.130934)
(-0.0709726 1.46535 0.0554403)
(0.042437 1.63669 -0.194358)
(0.206908 0.817402 -0.202811)
(-0.00338798 0.704706 -0.196707)
(0.00572154 0.626258 -0.309169)
(0.0392016 0.679502 -0.199299)
(0.0277706 0.613564 -0.20494)
(-0.0836612 0.650502 -0.199322)
(0.05302 0.595037 -0.148872)
(-0.0935129 0.667518 -0.0974692)
(0.0241593 0.628504 -0.186495)
(0.0905981 0.576971 -0.201998)
(0.00636273 0.528134 -0.22272)
(-0.0139263 0.550839 -0.256949)
(-0.00202215 0.593191 -0.235904)
(0.0140424 0.503937 -0.228696)
(-0.00205752 0.529301 -0.238062)
(0.0230907 0.57473 -0.203697)
(-0.0181346 0.5864 -0.174407)
(-0.00658597 0.507972 -0.167964)
(0.0251114 0.529968 -0.203006)
(0.044689 0.0656273 -0.990402)
(-0.0585182 -0.102097 -0.573589)
(-0.170098 -0.0560852 -0.217762)
(-0.210693 -0.00870805 -0.958782)
(-0.0381805 0.298835 -1.16145)
(-0.197477 -0.029565 -0.711113)
(-0.0489816 0.221507 -0.821798)
(-0.0451722 0.0420892 -0.334162)
(-0.0787453 0.0598942 -0.376312)
(-0.0443938 -0.014624 -0.267344)
(-0.133211 -0.136515 -0.516336)
(-0.0928751 -0.00065593 -0.572134)
(0.051492 0.303817 -0.463524)
(0.0108933 0.158046 -0.54619)
(-0.000855545 0.357966 -0.225346)
(-0.0358463 0.139271 -0.304969)
(0.0591437 0.978158 -0.501588)
(-0.0842877 1.13545 -0.530581)
(0.00708379 0.645052 -0.651413)
(0.0381021 0.952662 -1.01883)
(0.102467 0.704314 -1.00267)
(-0.00677045 1.33238 -0.712597)
(0.0980252 1.05254 -0.74683)
(0.345011 2.26012 -0.281039)
(0.239332 2.09045 -0.544737)
(-0.0701268 1.53151 -0.845902)
(0.124169 1.60347 -1.19663)
(-0.0614504 1.56847 -0.709652)
(0.330637 2.16285 -0.651947)
(0.404204 2.12225 -0.321253)
(0.0765473 0.348595 -0.169641)
(-0.0272663 0.305856 -0.0399851)
(0.0395449 0.251856 -0.0991568)
(0.0366752 0.128383 -0.0966262)
(-0.206762 0.208035 -0.0368505)
(0.0104912 0.19164 -0.122334)
(-0.0988468 0.250212 -0.0025108)
(0.0987265 0.235547 -0.0435322)
(0.0526514 0.244025 -0.176638)
(0.0817291 0.252664 -0.219904)
(0.0250752 0.122325 -0.172924)
(-0.0138571 0.0718511 -0.257907)
(-0.0934975 0.0499411 -0.137436)
(0.00801151 0.0880048 -0.261938)
(-0.0160622 0.0935735 -0.11362)
(0.111743 0.198817 -0.171338)
(0.100985 -0.0737934 -0.0528581)
(-0.0244502 -0.0509974 -0.063964)
(-0.0285021 -0.052952 -0.152778)
(-0.0763248 -0.38423 -0.0257584)
(-0.065108 -0.157087 -0.0243558)
(-0.00515684 -0.330209 -0.0455555)
(-0.0491338 -0.130281 -0.0959038)
(-0.0159555 -0.0310884 -0.172842)
(0.0835367 -0.172849 -0.0534156)
(0.112981 -0.908598 -0.287618)
(-0.170115 -1.16862 -0.161946)
(-0.0871299 -1.26052 -0.0516756)
(0.0774882 -1.09211 -0.127717)
(-0.134083 -1.2977 -0.0670013)
(0.386478 -0.798678 0.120282)
(0.16473 -0.923305 0.0149119)
(-0.00333477 -2.30805 -0.111945)
(0.0159341 -2.28021 -0.0777229)
(0.000109619 -2.31107 -0.0870976)
(-0.0139491 -2.42956 -0.125328)
(-0.00354147 -2.35724 -0.115338)
(0.00905089 -2.28979 -0.0886647)
(-0.0130085 -2.37943 -0.111344)
(-0.0320809 -0.330235 1.62835)
(0.077438 -0.815003 2.04611)
(0.0288278 -0.529523 1.94086)
(0.359159 0.248938 2.42654)
(0.057274 0.186471 2.08496)
(0.27566 -0.256074 2.38474)
(-0.0142871 -0.038986 2.16602)
(0.0549583 0.130561 2.35513)
(-0.23057 -0.164565 2.47296)
(-0.139906 0.493171 2.4821)
(-0.417582 0.958455 2.04599)
(0.322235 0.87391 2.38254)
(0.128251 1.0698 2.36063)
(-0.394753 1.43238 1.95102)
(-0.000276264 3.40502 1.64436)
(0.376393 1.85289 2.40914)
(0.351411 2.67873 2.05676)
(-0.0416369 3.40528 1.76378)
(-0.146297 2.78882 2.03267)
(0.204376 2.51241 2.57269)
(0.196603 3.04539 2.20729)
(0.0572468 5.2252 1.44544)
(0.0936214 5.72145 1.26735)
(0.0170699 6.17667 0.954365)
(0.0490638 5.24865 1.31872)
(0.108952 5.62565 1.1762)
(0.0114116 6.18117 0.973458)
(-0.0141596 5.72383 1.08836)
(0.0505362 5.66522 0.991305)
(0.0958411 5.10545 1.13598)
(0.087246 6.84451 1.07547)
(0.139967 7.81938 1.02267)
(0.0612086 8.70266 0.691487)
(0.188032 8.86547 0.68292)
(-0.0850009 8.33895 0.484575)
(0.0630314 8.2817 1.08854)
(-0.0277812 7.61598 1.1131)
(0.0978783 3.51775 0.0990119)
(0.206402 4.46324 0.200209)
(0.317328 4.45125 0.102752)
(-0.285902 4.97862 -0.0551487)
(-0.0251538 4.89995 -0.0534353)
(0.16992 4.59686 0.242719)
(0.33891 4.74266 0.106124)
(-0.0812022 5.33501 0.923712)
(-0.204109 7.10973 1.20917)
(0.00395857 5.99818 0.84275)
(0.235551 4.42164 0.189642)
(-0.190393 4.87848 0.660067)
(-0.338159 5.79595 0.992687)
(0.158258 4.61188 0.189057)
(0.00703042 6.2942 0.17184)
(-0.0325561 6.21909 0.301281)
(0.0581027 5.99697 0.148644)
(0.0687266 6.5576 -0.127529)
(0.0144768 6.61466 0.0620775)
(0.0205638 6.22082 0.196506)
(0.10677 6.0584 0.0786573)
(-0.0487542 5.90803 0.0719633)
(-0.266741 6.26889 -0.119817)
(-0.0243223 5.94368 0.276736)
(0.111272 5.59961 0.108996)
(-0.0778086 5.69592 -0.00308576)
(0.0159464 5.89247 0.198186)
(0.155456 5.85685 0.205052)
(0.10669 6.59829 0.003174)
(0.0332166 5.17397 -0.00123086)
(0.184908 6.53845 0.0642429)
(0.0811314 5.19694 0.147107)
(0.0321069 3.84418 0.0917091)
(-0.023406 5.3505 0.133847)
(-0.0831556 7.76736 0.1397)
(-0.104652 8.76264 0.416864)
(-0.063392 6.97381 -0.100315)
(-0.0437238 8.26736 0.391721)
(-0.0720546 7.39654 0.360739)
(-0.0332585 6.59464 0.362393)
(-0.101334 7.31452 0.388789)
(-0.0136393 8.03234 0.183122)
(-0.0187789 8.89317 0.392493)
(0.0551956 8.59089 0.251602)
(-0.0549494 8.81356 0.55312)
(-0.0362537 8.44516 0.417933)
(-0.040169 9.03409 0.545311)
(-0.00399157 8.64693 0.397793)
(-0.0674579 9.05402 0.414505)
(-0.0795211 8.00326 0.202077)
(-0.0658425 8.85903 0.50043)
(0.00837861 6.21932 0.277172)
(0.00324634 6.25822 0.392672)
(0.035378 6.40698 0.3977)
(-0.0124389 6.05608 0.197839)
(-0.0174326 5.89312 0.183688)
(0.00655765 6.06581 0.324809)
(-0.0508002 6.01942 0.355407)
(-0.033659 6.06959 0.371338)
(0.0278596 6.20378 0.389546)
(-0.0114905 5.90594 0.217051)
(-0.0159653 6.11178 0.407039)
(-0.00559442 5.86574 0.219117)
(0.0264507 5.54288 0.201362)
(-0.0166879 5.84475 0.283369)
(-0.00651872 5.84346 0.173289)
(-0.0173014 5.91898 0.348688)
(-0.00595369 5.69527 0.270496)
(-0.0158653 6.18723 0.390687)
(0.0309022 4.77229 -0.100553)
(0.0339295 4.91984 0.155135)
(0.0304783 4.62356 -0.085162)
(0.0424332 4.75188 -0.197782)
(-0.0322248 4.97876 -0.00327132)
(-0.0123511 4.60577 -0.0980029)
(0.113623 4.22245 -0.223554)
(0.0283003 2.00151 0.378956)
(0.194845 1.98493 0.828152)
(0.159843 1.44812 1.25359)
(-0.509634 0.115648 0.391162)
(-0.0664174 1.10515 0.272928)
(-0.673776 0.254065 0.804665)
(-0.249501 1.04598 0.449196)
(0.0536257 1.67308 0.875023)
(-0.148906 1.04914 1.12988)
(-0.123536 -0.552056 1.65784)
(0.0641795 -1.12939 1.6905)
(0.00049583 -0.365317 1.24835)
(0.0829429 -1.5511 1.66616)
(-0.125302 -0.781873 1.30996)
(0.0309144 -1.55559 1.71872)
(-0.166783 -0.936046 1.72524)
(-0.00774987 -1.7097 1.77532)
(0.170387 -2.03156 1.33851)
(0.061253 -1.88013 1.59001)
(-0.258376 -2.21767 1.4499)
(-0.149616 -2.73439 1.25493)
(-0.0716406 -2.19489 1.16693)
(-0.170997 -2.07885 1.4236)
(0.242966 -1.37803 2.04782)
(-9.53231e-05 -1.98741 1.68876)
(-0.15449 -1.37361 1.84053)
(0.106363 -2.30393 1.6205)
(-0.149089 -1.98069 1.61117)
(-0.227899 -1.5653 1.70032)
(0.113593 -1.74281 1.81967)
(-0.00384333 -0.994603 1.66906)
(-0.0509244 -1.05448 1.17303)
(-0.120217 -1.2773 1.04271)
(0.0188401 -1.62354 1.52753)
(0.0396233 -1.41038 1.71442)
(0.0314038 -1.13388 0.573694)
(0.00126539 -1.22952 0.489554)
(0.023102 -1.27274 0.5545)
(-0.0364573 -1.59628 0.574589)
(0.0898488 -1.47473 0.697256)
(-0.0181239 -1.47059 0.541973)
(0.0806463 -1.3957 0.641648)
(-0.019223 -1.61826 0.540034)
(0.0623776 -1.9377 0.602652)
(0.0321732 -2.34661 0.543224)
(0.0116729 -2.31845 0.554913)
(0.0415649 -2.66821 0.523472)
(0.0762813 -2.15352 0.594006)
(-0.0159644 -1.86078 0.547372)
(0.00476834 -4.53715 0.365303)
(0.115286 -4.98328 0.707043)
(0.00150131 -5.29397 0.873742)
(-0.0758305 -5.06555 0.457077)
(0.145392 -5.92639 0.97659)
(0.14453 -5.30206 0.784167)
(-0.0727843 -4.88138 0.377294)
(-0.0374788 -0.0776079 -0.0624418)
(-0.00644417 0.0134379 -0.116281)
(0.0429727 -0.0315939 -0.035259)
(0.0162567 0.071234 -0.059542)
(0.0304109 0.0530596 -0.0677711)
(0.0821942 0.018053 -0.0210509)
(0.0557184 0.0198433 -0.0340391)
(0.00172868 0.0302187 -0.0117459)
(0.00883198 0.0396615 -0.0218871)
(-0.0315666 0.0448198 -0.00207207)
(-0.012412 0.0064857 0.0142292)
(0.0139506 0.0154585 0.014681)
(-0.0318653 -0.0035289 0.0297682)
(-0.00400144 0.0261496 0.0320526)
(0.00931163 0.0373109 0.00592463)
(-0.0366458 0.0203269 0.00648293)
(0.0310303 -0.0309095 -0.0337201)
(-0.0163473 -0.0127215 -0.0111796)
(-0.00144071 0.0441608 -0.0123844)
(0.00926232 -0.0839498 -0.0490959)
(0.114926 -0.150571 -0.103978)
(-0.00485663 -0.00723815 0.0213385)
(0.0267883 -0.0368183 0.0224449)
(0.106591 -0.146007 -0.268956)
(-0.0556115 -0.166193 -0.214463)
(4.02072e-05 -0.298378 -0.299953)
(0.0520478 -0.0758502 -0.360654)
(-0.00710407 -0.187205 -0.241948)
(0.0449262 0.0322822 -0.438055)
(0.266293 0.244417 -0.594527)
(-0.00605572 -0.178941 -0.357254)
(0.189683 -0.279747 -0.299783)
(-0.0197535 -0.00459965 -0.236909)
(0.227699 -0.352786 -0.863255)
(0.310153 -0.541675 -0.675989)
(0.0934465 -0.18379 -0.884442)
(-0.00999069 -0.20102 -0.537847)
(0.230561 -0.122275 -1.10474)
(0.134549 -0.167568 -1.02456)
(-0.100937 -0.447085 -0.644293)
(-0.00926395 -0.422757 -0.642082)
(-0.139315 -0.268863 -0.497117)
(-0.104861 0.00784091 -0.767412)
(-0.0924143 -0.138841 -0.816737)
(-0.0147379 0.542432 -0.956133)
(-0.00289232 0.45833 -1.00786)
(-0.0106088 0.750004 -0.87375)
(-0.0600027 0.471896 -0.827383)
(-0.0234146 0.390003 -0.908304)
(-0.0286214 0.615607 -0.692591)
(0.00138435 0.484446 -0.753833)
(-0.0106245 0.679413 -0.470614)
(0.00910488 0.687962 -0.327014)
(-0.00468814 0.885836 -0.585771)
(0.0250384 0.851052 -0.459154)
(-0.0730682 0.897428 -0.489186)
(-0.0136911 0.752425 -0.363186)
(-0.0138124 0.697005 -0.430186)
(-0.0124597 0.764951 -0.445158)
(-0.0957674 0.78245 -0.466422)
(0.168767 1.47788 -0.380593)
(0.0758819 1.17031 -0.453541)
(-0.0569865 1.66387 -0.227134)
(-0.128418 1.25531 -0.210278)
(0.211268 1.53385 0.117438)
(-0.137445 1.39008 -0.0685168)
(0.0977363 1.67437 0.173118)
(-0.0334997 1.26192 -0.375717)
(0.0789876 1.55233 -0.195015)
(0.18458 0.890896 -0.115891)
(-0.00321893 1.01326 -0.146823)
(0.0342862 1.41847 0.0934954)
(-0.314254 0.983618 -0.398885)
(-0.0961452 1.15963 -0.252126)
(0.106658 1.00374 -0.246684)
(-0.192612 0.951401 -0.412955)
(-0.0924559 0.943403 -0.353706)
(-0.290802 0.91446 -0.340857)
(-0.092449 1.12764 -0.260317)
(0.00517367 0.845618 -0.170275)
(0.0843525 0.771856 0.301086)
(-0.0345998 0.971331 0.436723)
(-0.190087 0.871666 -0.196828)
(-0.130442 1.30656 -0.210326)
(-0.173238 1.13046 -0.264163)
(0.129666 0.485706 0.174858)
(-0.0321279 0.743154 -0.0612418)
(-0.209904 0.733 -0.0883021)
(0.0205158 0.994578 -0.0357842)
(0.0253957 0.832489 0.0881138)
(0.25366 0.642583 0.214473)
(0.00601669 0.604741 0.00644114)
(-0.0078374 0.712448 0.165433)
(0.0505199 0.579871 -0.0115099)
(-0.0668513 0.682755 0.0299239)
(-0.0384924 0.644031 -0.12789)
(-0.0310236 0.61764 -0.163862)
(0.00581762 0.602613 -0.145889)
(-0.0140726 0.617959 -0.186057)
(0.00219456 0.592359 -0.172155)
(0.0134669 0.601649 -0.144215)
(0.0131092 0.589425 -0.149783)
(0.0264753 0.615619 -0.146252)
(1.08467e-05 0.637025 -0.0259532)
(-0.00408521 0.829678 0.00732832)
(-0.0640444 0.699857 -0.0766727)
(-0.0541179 0.60297 -0.176088)
(-0.0471809 0.628191 -0.136877)
(0.00730465 0.686024 -0.120305)
(0.00425534 0.49107 -0.0483167)
(-0.0224346 0.527037 -0.0994656)
(0.0777648 0.556904 -0.154359)
(-0.0249607 0.5276 -0.212771)
(-0.0159544 0.510091 -0.261081)
(0.117347 0.640896 -0.104058)
(-0.00434996 0.575421 -0.227494)
(-0.0129357 0.553597 -0.309296)
(0.0522477 0.638537 -0.149958)
(0.00707259 0.518281 -0.138733)
(0.0403845 0.519983 -0.195562)
(0.00126863 0.678523 -0.0905668)
(-0.00831545 0.531016 -0.216611)
(-0.0106088 0.596414 -0.174343)
(0.057698 0.22902 -0.203007)
(-0.0390587 0.263425 -0.35953)
(0.0003451 0.292493 -0.225827)
(-0.0091106 0.45913 -0.149925)
(0.0243755 0.494566 -0.204512)
(0.0151415 0.480854 -0.267147)
(0.0354655 0.364794 -0.186784)
(0.0107918 0.0433993 -0.708871)
(-0.217981 -0.0398611 -0.786707)
(-0.141313 -0.183484 -0.585296)
(0.119301 0.549377 -2.09153)
(0.0270386 0.399109 -2.12901)
(-0.0506266 0.142897 -2.28746)
(0.0438103 -0.0768481 -2.47078)
(-0.0441211 0.0995603 -2.6112)
(-0.00504254 0.263727 -2.33467)
(0.0100424 0.38943 -2.34373)
(0.0557782 0.275891 -1.19465)
(0.284473 -0.224392 -1.63468)
(0.0156963 0.680694 -1.34853)
(0.0872292 0.333406 -1.54173)
(0.157812 0.0630569 -1.61946)
(0.0278449 0.565726 -1.80218)
(-0.0322729 0.804788 -1.62023)
(0.131975 0.143705 -1.65152)
(0.189994 0.532313 -1.70058)
(0.00785364 0.238445 -0.939391)
(0.187932 0.00349478 -0.672292)
(-0.0894432 0.227106 -1.10694)
(0.0161455 0.213241 -2.81443)
(0.0220551 -0.0198679 -2.47542)
(0.00391995 -0.00182895 -1.90078)
(-0.0750987 0.277606 -2.82721)
(-0.109581 0.00896041 -2.75453)
(0.0599951 -0.198487 -2.28127)
(-0.0412308 0.21044 -2.65743)
(-0.0585221 0.229017 -2.73926)
(-0.0349149 0.0346803 -2.65259)
(0.0857992 0.0751648 -1.72637)
(0.0535181 0.152997 -1.79788)
(0.114893 -0.0479943 -1.45034)
(-0.020765 0.163578 -2.12283)
(0.0622716 0.167442 -2.29227)
(0.000889008 0.0215028 -2.30929)
(-0.0521481 0.192727 -2.30491)
(0.136144 0.127936 -1.78551)
(-0.0111193 0.11241 -1.83899)
(0.0852361 0.340508 -2.14576)
(-0.00932613 -0.0315633 -2.78366)
(-0.0494487 0.0416793 -2.44818)
(-0.00087688 0.0720085 -2.13397)
(0.0625413 -0.00737826 -2.64145)
(-0.0517995 0.0977867 -2.53362)
(-0.03674 0.0835192 -2.44543)
(0.060507 -0.0193703 -2.43802)
(-0.112645 0.057138 -2.32981)
(-0.152716 0.190882 -2.4632)
(0.024117 -0.480473 -1.52932)
(-0.047799 0.0657936 -2.3425)
(-0.0491068 0.146964 -2.68419)
(-0.113887 0.17369 -2.66977)
(-0.0875696 0.116686 -2.59066)
(0.125083 0.314736 -2.4923)
(0.112246 1.02708 -2.03145)
(0.230825 0.767079 -2.30693)
(-0.451878 0.161623 -1.9258)
(-0.31168 0.651457 -1.78575)
(-0.216962 0.671652 -2.02369)
(-0.31932 0.207292 -1.95043)
(-0.0176448 0.149752 -2.88776)
(-0.847768 0.880118 -2.57129)
(0.075276 0.0462415 -2.97796)
(-0.101936 0.339582 -2.76322)
(0.153057 0.171901 -2.91975)
(-0.711557 0.966223 -1.87513)
(-0.0707201 0.366163 -2.6323)
(0.035129 -0.217254 0.240295)
(0.122558 -0.0572116 0.634304)
(-0.0364318 -0.082177 0.407508)
(0.11061 -0.0380682 0.0563823)
(0.139606 0.196917 0.171937)
(0.0617883 0.131074 0.112885)
(0.0620548 0.172282 0.28136)
(-0.0426459 0.137543 0.417678)
(0.014422 0.117941 0.171695)
(0.126776 0.18179 0.164233)
(-0.0624301 0.0370423 0.743795)
(-0.158994 -0.0711031 0.500178)
(-0.125581 0.0849017 0.398328)
(-0.318275 -0.013409 0.71295)
(0.0767617 0.141911 0.376244)
(-0.0296474 0.113512 0.363841)
(0.000880231 0.164652 0.0661242)
(0.0703144 0.274026 0.336109)
(0.0724306 0.168104 0.397372)
(0.046296 0.118054 0.225849)
(0.0414605 0.331456 0.158831)
(-0.0996545 0.335361 0.23891)
(-0.0521703 0.071538 -0.0570802)
(0.0214873 0.420579 0.276805)
(-0.0364939 -0.110175 0.105202)
(0.134066 -0.0617794 0.279797)
(-0.16532 0.169694 0.30887)
(0.0185273 0.218087 0.306899)
(-0.171333 0.195983 0.426988)
(-0.201216 0.311445 0.370046)
(-0.014203 0.280156 -0.28325)
(0.138478 0.405828 0.0643673)
(-0.0182484 0.17841 -0.0814127)
(-0.0366883 0.350263 0.186619)
(-0.0395141 0.239639 -0.0298548)
(-0.0387593 0.367341 0.174455)
(-0.0869292 0.300452 -0.1161)
(0.0516266 0.392084 0.065834)
(-0.0784551 0.232757 -0.321481)
(-0.117083 0.0135161 -0.280965)
(-0.0229656 0.121256 -0.265804)
(-0.0214911 0.10686 -0.448714)
(-0.104543 0.0496555 -0.254869)
(0.0764232 0.234939 -0.104161)
(-0.0102346 0.095112 -0.347882)
(0.0901828 0.152744 -0.320139)
(0.00959593 0.0166207 0.840814)
(-0.00849344 0.010486 0.900993)
(-0.00135751 0.0181773 0.718149)
(-0.0896523 0.196551 0.896307)
(-0.0154877 0.162616 0.850528)
(0.0321425 0.143025 0.768082)
(-0.0291619 0.112889 0.873891)
(-0.0520404 -0.443149 0.853545)
(-0.0343764 -0.704719 0.922844)
(0.0127534 -0.348578 0.766784)
(-0.0863915 -0.683933 0.931029)
(-0.0215538 -1.04039 0.965045)
(-0.00430453 -0.94473 0.925015)
(-0.0523831 -0.571037 0.856298)
(0.0618001 -0.296616 0.600813)
(0.0463913 -0.398005 0.849006)
(-0.00862241 -0.20708 0.826968)
(0.0109184 0.161144 0.905623)
(0.01916 0.0247675 0.982709)
(0.0283608 2.05585 1.5099)
(0.0468057 1.30948 1.95242)
(0.0374199 1.94842 1.76227)
(-0.0509626 2.21306 1.6036)
(-0.0341884 1.74676 1.59372)
(-0.0748724 1.08599 1.70958)
(-0.0600438 1.64881 1.68824)
(0.0760567 3.44146 1.49856)
(0.0133131 3.70236 1.15351)
(0.0691523 3.02072 1.6212)
(0.120711 3.64071 0.931292)
(0.0491716 3.27485 1.13722)
(0.0569778 3.30495 1.43776)
(0.0921174 3.55961 1.26747)
(0.0359272 5.26451 0.44149)
(-0.0909484 5.12931 0.335659)
(0.0486648 5.23121 0.495532)
(-0.385232 5.05092 0.14586)
(-0.268084 5.59749 0.202947)
(-0.240339 5.6173 0.23224)
(-0.259958 5.34168 0.320145)
(0.0233253 2.59801 0.0901452)
(-0.0402623 3.53151 0.101753)
(-0.028116 3.4631 0.139283)
(-0.0592006 4.19755 -0.0742251)
(-0.014885 3.79858 0.00448284)
(-0.0395958 3.95383 0.0433874)
(-0.0210185 3.79034 0.11686)
(-0.0356911 3.67339 0.127124)
(0.089474 4.03708 0.18887)
(0.00125028 3.78937 0.194649)
(-0.021958 3.58434 0.156437)
(-0.0224626 3.57004 0.205249)
(-0.0270443 3.77554 0.169347)
(-0.0706982 3.62713 0.219047)
(0.0313071 3.91847 0.0619206)
(0.0132757 3.30895 -0.03625)
(-0.00605222 3.71625 0.124387)
(-0.0158732 4.11955 -0.0161741)
(-0.0304025 3.82535 0.0165802)
(-0.0503748 3.77037 0.0914698)
(-0.105203 3.93696 -0.0494423)
(-0.0185004 4.12518 0.0891962)
(-0.00247624 3.81393 0.0868891)
(0.0247896 4.04041 0.105074)
(-0.0816492 3.88627 0.187573)
(-0.105943 4.08767 0.312556)
(-0.0413443 3.79659 0.203078)
(0.00214386 3.87473 -0.0301182)
(0.140561 4.36025 0.154086)
(-0.050438 4.28641 0.536486)
(0.0183824 4.3761 0.427953)
(-0.0828173 3.99564 0.216953)
(0.0781264 4.188 -0.018704)
(-0.0551485 4.01299 0.101675)
(-0.0429056 4.12302 0.171932)
(0.226951 5.02195 0.324256)
(0.0706847 5.15432 0.154226)
(0.00663845 5.15958 0.138903)
(0.0244962 6.35893 1.00046)
(0.0193184 6.5248 0.945098)
(0.0826217 6.33886 1.07234)
(-0.00905163 6.49745 1.05934)
(-0.0286829 6.52053 1.15021)
(0.0672942 6.42544 1.15246)
(0.0513144 6.39164 1.07881)
(0.0157419 6.31381 0.44234)
(0.0603497 6.25552 0.428766)
(-0.00905386 6.37227 0.547055)
(0.00510581 6.46947 0.651276)
(-0.0220063 6.44025 0.746042)
(-0.0166262 6.43515 0.653296)
(-0.0451886 6.40275 0.582197)
(-0.00277569 5.3001 0.30511)
(-0.0932933 5.37176 0.378632)
(-0.0685556 5.26351 0.259784)
(0.0187177 5.43974 0.338439)
(-0.0236603 5.50497 0.551041)
(-0.0906934 5.54104 0.452117)
(-0.0487546 5.36088 0.259376)
(-0.0312227 4.84361 0.00389994)
(0.0502141 4.95841 0.179127)
(-0.0650887 5.08206 0.137557)
(0.0359159 3.71818 0.226546)
(-0.00488124 3.51516 0.162409)
(0.0204432 3.64237 0.315904)
(-0.00833842 3.41071 -0.0400822)
(0.0598141 3.39465 -0.0970794)
(-0.00284952 3.55566 0.19018)
(-0.0162404 3.59899 0.0826208)
(-0.0144823 3.14953 -0.374138)
(0.0585691 3.48897 -0.185877)
(-0.0510984 2.76613 -0.376617)
(-0.0435407 3.21159 -0.272927)
(-0.0152976 2.36627 -0.467855)