/*--------------------------------*- C++ -*----------------------------------*\
| =========                 |                                                 |
| \\      /  F ield         | OpenFOAM: The Open Source CFD Toolbox           |
|  \\    /   O peration     | Version:  v2012                                 |
|   \\  /    A nd           | Website:  www.openfoam.com                      |
|    \\/     M anipulation  |                                                 |
\*---------------------------------------------------------------------------*/
FoamFile
{
    version     2.0;
    format      ascii;
    class       surfaceScalarField;
    location    "0.15";
    object      alphaPhi0.water;
}
// * * * * * * * * * * * * * * * * * * * * * * * * * * * * * * * * * * * * * //

dimensions      [0 3 -1 0 0 0 0];
oriented        oriented;


internalField   nonuniform List<scalar> 
49400
(
-5.66151e-06
-1.7681e-09
5.61911e-06
4.41719e-08
1.30574e-05
3.5987e-06
-2.23176e-05
1.28514e-05
2.04158e-07
-3.42816e-06
1.73089e-05
-8.26166e-06
2.02098e-05
-2.00393e-05
-2.07708e-05
5.09311e-05
-3.56779e-07
8.06087e-06
1.95815e-05
-4.99599e-05
-1.56622e-07
-6.14458e-07
-1.22905e-05
2.30674e-07
1.21487e-05
-8.89145e-08
2.62998e-05
1.15636e-05
-5.0154e-05
2.59161e-05
-1.31299e-05
1.5137e-06
2.37649e-05
-1.32617e-05
4.28935e-08
2.94764e-05
-3.11745e-05
5.69062e-05
-2.68315e-05
4.62402e-07
2.63902e-05
-2.10898e-08
9.20253e-06
1.56035e-05
-5.16376e-05
5.28977e-07
9.13596e-06
4.1178e-05
2.26943e-05
-4.82688e-05
1.73262e-05
5.0242e-05
7.65538e-06
-7.3919e-06
2.65502e-07
-3.72009e-06
2.05114e-05
6.25533e-06
9.04708e-06
1.98614e-05
8.82446e-06
4.88127e-07
-1.99963e-05
4.93322e-05
3.53224e-07
-1.20589e-14
7.16812e-14
-2.33436e-14
-4.25161e-14
1.78335e-13
-3.69335e-14
-1.66924e-13
-2.3061e-14
-2.32015e-14
-2.84371e-14
4.33469e-15
-4.58021e-15
1.26343e-14
-7.8754e-14
-2.66241e-14
2.1528e-15
-3.80787e-14
4.96702e-12
2.04961e-12
8.8915e-13
-9.04142e-12
-6.54062e-13
1.28212e-12
3.82137e-12
1.16824e-12
-7.27644e-14
-9.44078e-13
-1.28509e-13
2.1374e-12
-5.98892e-13
-5.10883e-13
-1.47109e-12
2.39819e-12
-1.42195e-12
1.63703e-09
3.33822e-10
-8.36682e-10
-2.69029e-10
-1.01503e-09
-1.2347e-09
4.82334e-09
-3.69699e-09
3.72518e-09
-7.76442e-10
1.88096e-09
-1.5273e-09
5.5462e-10
-1.01594e-09
2.53187e-11
-5.13067e-10
-1.3595e-09
-7.53944e-13
-7.79278e-13
3.18676e-13
1.15158e-12
-4.22987e-13
7.67248e-13
-1.31749e-12
2.27778e-14
-1.46716e-12
-1.89153e-12
-1.29094e-13
3.27972e-12
-6.06511e-13
-2.73871e-12
-5.8262e-13
8.48778e-13
-1.28862e-12
-1.86804e-08
-1.73507e-08
-5.1219e-09
4.26006e-08
-3.33287e-09
-3.52296e-08
2.18284e-08
-2.01767e-08
4.04762e-10
3.92402e-08
2.38547e-08
-9.58134e-08
5.31794e-08
1.51998e-08
6.62817e-09
-3.12627e-09
5.79181e-08
4.14708e-16
4.67585e-17
7.3722e-15
-2.0922e-15
2.43014e-15
2.8015e-15
-5.66472e-15
2.08767e-15
-8.56498e-17
-1.7425e-13
-3.95917e-15
1.6471e-13
-8.47227e-15
-7.46165e-14
2.95074e-15
-8.00976e-15
1.46232e-15
-5.36238e-12
-2.00861e-11
3.35808e-12
2.27149e-11
-4.8275e-12
1.01934e-11
-7.92703e-12
-4.31817e-12
-1.87376e-11
-1.83144e-11
9.82164e-13
2.76698e-11
8.47341e-14
-2.09092e-11
1.00943e-11
-1.11273e-11
1.71155e-11
-2.09452e-06
-1.07757e-05
-5.56548e-06
1.86917e-05
9.53882e-08
-2.18754e-06
-2.32736e-08
-1.33124e-05
2.61519e-06
2.66193e-06
2.61338e-06
-7.43057e-06
2.6301e-06
-6.55939e-14
-1.03915e-05
7.57887e-06
-2.10993e-05
2.39276e-12
-2.08049e-14
-2.56888e-12
-2.22676e-13
-1.71157e-12
-4.66998e-13
2.66335e-12
-2.59807e-12
-1.02715e-13
2.92982e-12
5.5681e-12
-7.52278e-12
2.24532e-12
-3.08924e-13
-1.36909e-12
1.93088e-12
-6.25473e-13
-6.7745e-21
-1.26742e-21
2.74706e-21
4.87269e-21
3.45485e-21
8.37178e-22
-1.15935e-20
-2.3429e-22
2.08572e-21
8.11685e-22
-6.78776e-22
-3.10106e-22
-3.12418e-22
3.20131e-21
1.04127e-21
-8.52939e-22
3.41213e-21
1.21214e-23
3.25468e-24
-1.04052e-22
-3.69057e-24
-1.00779e-23
-1.42744e-23
1.48981e-23
-6.55444e-23
8.82962e-24
9.731e-23
9.9966e-23
-6.64039e-22
2.33464e-23
-2.55848e-25
-3.70927e-23
1.41828e-23
-1.02291e-22
3.41682e-17
3.81606e-17
3.26832e-17
-1.91803e-16
2.61001e-18
2.5612e-17
-4.29973e-17
7.26559e-18
1.10807e-18
-3.60251e-18
-9.67994e-18
1.01972e-17
-1.38804e-17
1.57177e-18
-5.31066e-18
4.49489e-18
-5.27276e-18
1.48146e-46
2.25292e-47
-1.792e-45
1.03072e-47
-1.54948e-45
-2.8524e-46
5.28253e-46
5.56706e-47
-2.48928e-44
-4.32444e-44
4.7901e-45
3.93594e-46
2.62734e-44
-4.41576e-43
1.56912e-45
1.8341e-45
1.68029e-45
2.41761e-48
5.38259e-47
1.62794e-46
2.69256e-47
1.53066e-46
4.67827e-48
2.26754e-49
-3.78635e-47
-2.88044e-50
-1.98392e-47
-5.10851e-48
6.68563e-48
1.33033e-48
-3.22892e-46
-4.12088e-46
4.70864e-47
5.08143e-48
3.323e-46
-4.69645e-45
-1.44737e-47
6.38408e-48
-4.31729e-49
3.77345e-47
4.86461e-46
-1.71948e-48
-3.68907e-45
1.04872e-46
-7.77316e-46
-6.10155e-49
-5.38844e-48
-1.00313e-49
-4.83984e-47
1.62581e-38
1.94676e-38
1.4205e-38
-1.71904e-37
-2.66105e-41
1.12763e-39
3.99955e-41
2.70247e-39
-3.26418e-43
-3.66945e-40
-5.18397e-40
5.64216e-40
-2.89288e-39
4.84182e-41
2.08045e-39
-2.41736e-39
8.93177e-40
3.05242e-22
-3.66162e-23
-3.09247e-22
1.51302e-22
-1.21246e-22
-7.70805e-23
5.48883e-22
-1.0021e-22
-2.6901e-23
5.8907e-22
1.46412e-22
-9.23969e-22
3.31167e-22
5.21606e-22
-1.18757e-22
4.28484e-22
-3.67724e-23
2.67186e-09
-1.20586e-09
-3.58365e-09
3.22521e-09
-3.62125e-09
-1.05319e-09
8.59709e-09
-4.1898e-10
-2.52761e-09
2.97356e-10
4.55798e-10
-8.29422e-10
2.07237e-09
-3.23802e-09
-5.14689e-11
-3.93143e-10
-1.18554e-09
-2.57548e-10
5.64762e-10
1.4418e-09
-1.6363e-09
9.2881e-10
1.60195e-09
-2.76541e-09
1.29223e-09
3.78793e-10
-6.71453e-10
-1.68761e-09
3.89714e-09
-1.7051e-09
1.69508e-09
2.78245e-10
-6.01834e-10
2.17653e-10
2.54982e-09
7.47081e-11
-2.78716e-09
-3.24318e-10
-4.61995e-09
-2.58804e-09
9.85547e-09
-3.90086e-09
-5.41158e-10
2.19353e-09
1.21143e-09
-5.97708e-09
2.71517e-09
-6.81884e-10
-2.42378e-09
2.61313e-09
-5.04148e-09
-3.16005e-11
-1.60398e-10
6.32642e-12
1.17713e-10
-2.16346e-10
3.13218e-10
-5.09736e-10
1.64874e-10
-6.90441e-10
9.40726e-11
-8.89105e-11
5.74739e-13
-6.14105e-11
2.7217e-10
-7.71671e-11
2.0984e-10
-5.62534e-11
-1.92121e-11
-1.32766e-11
1.46338e-11
2.30232e-11
2.0573e-11
8.21065e-12
-6.97891e-11
-7.13172e-12
2.63805e-11
4.63868e-11
-1.35289e-11
-1.29071e-11
-7.02928e-12
9.09536e-11
1.13495e-11
-2.66391e-11
1.69508e-11
-8.15741e-12
-7.01643e-11
-7.59561e-11
1.0278e-10
-6.60371e-11
-8.92353e-11
9.58387e-11
-1.09632e-10
-1.19017e-10
1.26367e-10
1.72763e-10
-4.68243e-10
2.7837e-10
-4.01395e-10
2.64719e-11
7.27866e-12
1.60551e-10
4.1076e-13
2.09773e-14
-3.79441e-13
-9.13058e-14
-3.69791e-13
-4.36245e-13
1.39871e-12
2.15004e-13
-6.51795e-13
-1.83921e-12
1.02525e-12
9.45658e-13
3.91328e-13
-3.25276e-12
-3.96323e-13
1.24342e-12
-4.50232e-13
6.71309e-09
3.85227e-09
5.85249e-09
-1.53623e-08
-9.85163e-10
1.01392e-08
2.68639e-12
6.07722e-09
-1.69566e-09
-1.36948e-08
-8.09783e-09
3.28694e-08
-1.50469e-08
2.33754e-09
5.08451e-09
-1.35205e-08
4.07357e-09
-1.04323e-05
-1.41652e-05
-8.78269e-06
3.30578e-05
-1.2899e-07
-2.5388e-08
-9.18365e-06
-1.39687e-05
-6.55411e-07
-1.06951e-05
1.14649e-05
-4.05481e-08
8.94129e-06
-2.82007e-05
9.99794e-06
-1.53891e-05
1.2361e-05
-2.18903e-10
4.65326e-11
4.55323e-10
-5.19796e-11
4.08026e-10
-4.60788e-10
-1.86144e-10
6.69473e-11
4.37273e-10
-1.28759e-10
-2.74095e-11
6.50929e-10
1.23859e-10
-2.89104e-10
1.27135e-10
-1.96575e-10
2.34736e-10
1.69754e-11
2.04316e-11
1.70263e-13
-6.06745e-11
4.29358e-12
6.57202e-12
-1.03911e-11
3.40812e-12
9.12923e-12
-2.08668e-11
-1.97786e-12
1.76018e-11
-2.27476e-11
-3.30118e-11
-3.3723e-11
1.99935e-11
-9.40116e-11
-3.6878e-09
-2.69301e-09
-7.45125e-10
7.21685e-09
1.04768e-09
-1.77656e-09
-2.1021e-09
-2.94324e-09
1.45487e-09
4.54688e-09
8.28943e-10
-8.19654e-09
1.50112e-09
2.4718e-09
1.66345e-09
-2.32252e-09
2.03486e-09
-1.31848e-09
-8.51981e-11
1.87134e-09
3.99897e-11
1.28668e-09
1.32166e-09
-3.92904e-09
1.62157e-09
-3.31906e-10
-2.15426e-09
-8.55587e-10
4.18631e-09
-2.05311e-09
9.48222e-11
1.58875e-09
-2.3221e-09
2.35227e-09
1.49463e-11
-1.25886e-10
-5.3939e-11
5.48905e-11
-1.10158e-10
2.48481e-11
3.17979e-11
-3.68508e-11
-3.63625e-10
1.05128e-10
-3.63144e-11
-2.12536e-10
-3.43144e-12
9.90815e-11
-8.95763e-11
6.63337e-11
-2.57901e-10
-1.86056e-08
1.04854e-08
-1.07084e-08
1.06262e-08
5.46409e-10
-5.66613e-09
-2.44386e-08
4.03622e-09
6.76046e-11
-4.37255e-09
-1.22644e-08
-4.21592e-08
1.10797e-08
-5.02439e-08
-3.2122e-07
-7.37542e-07
3.3755e-07
7.2797e-07
-7.28595e-07
5.28462e-07
-1.14125e-07
6.38801e-07
-2.09031e-06
5.35762e-07
3.33192e-07
-9.69425e-08
1.36369e-06
8.76338e-07
6.69e-08
-6.15616e-08
4.17716e-08
4.80272e-08
6.35892e-09
-1.04661e-08
6.19246e-08
3.14295e-08
6.01178e-09
-8.74652e-09
5.80987e-08
8.65254e-09
5.98847e-09
-1.45317e-08
-2.42812e-08
8.47717e-09
6.20184e-08
-2.12842e-09
-6.02655e-09
7.56052e-09
6.94304e-09
1.19271e-09
5.61634e-11
-3.3383e-09
-7.97673e-09
7.70948e-09
1.53069e-09
-1.43518e-09
-5.60554e-09
-3.61089e-09
-2.94975e-11
-1.12525e-09
5.77459e-09
7.45584e-10
9.96169e-10
2.09186e-09
-5.03867e-09
-6.45135e-10
6.84339e-10
2.94485e-10
4.61529e-10
-4.40644e-10
1.78437e-11
-1.343e-09
2.03083e-09
-7.92071e-10
1.63566e-09
-7.62931e-10
2.36655e-10
-7.13049e-10
-1.40221e-08
1.10397e-08
5.13304e-09
-4.9123e-09
2.69947e-08
-1.28924e-08
-3.61091e-08
-4.72947e-09
3.81142e-08
-7.54829e-09
7.00828e-09
3.93189e-09
-3.15173e-09
-1.15538e-08
1.97747e-08
-3.78311e-08
1.70182e-08
4.50422e-09
6.75888e-10
-6.04891e-09
2.61682e-09
-2.6107e-09
-3.64799e-09
1.00429e-08
-2.77589e-09
6.5271e-10
2.31108e-09
2.37085e-09
-6.81723e-09
2.71895e-09
1.31408e-10
-3.2255e-09
2.47303e-09
-5.9768e-09
6.68557e-11
8.32028e-10
-5.82519e-12
-4.02017e-10
9.41031e-10
-8.14247e-10
4.74473e-10
-3.3687e-10
2.52173e-09
-6.44305e-10
1.08137e-09
-1.15012e-10
6.60869e-10
-2.10089e-09
5.97548e-10
-8.34081e-10
1.25882e-09
2.89543e-10
2.34925e-10
1.68571e-10
-8.9418e-10
1.12406e-10
-1.2051e-10
3.06951e-10
2.64057e-10
6.50683e-11
2.952e-10
-2.64422e-10
-1.48697e-10
-9.02463e-11
6.75629e-10
-3.25338e-10
5.21375e-10
-4.26928e-10
-1.87947e-09
-8.57689e-09
2.83343e-10
1.08767e-08
-1.97005e-08
2.20567e-08
-2.64176e-09
1.31865e-08
-4.0241e-08
7.69475e-08
-6.9722e-08
-3.23171e-09
-1.4336e-08
1.03549e-07
-5.06619e-08
5.88271e-08
-1.00722e-07
-4.93944e-10
-1.00585e-09
-9.17446e-10
2.83919e-09
-5.32552e-10
-7.29814e-10
1.10028e-09
-6.05601e-10
-5.01993e-10
7.39399e-11
7.19871e-10
-1.34768e-09
1.01765e-09
-1.28941e-09
1.31622e-10
-1.28681e-10
2.95101e-10
-1.24263e-13
-8.16893e-14
-9.19025e-14
3.38084e-13
-1.78589e-14
-4.07528e-14
-2.52554e-14
-7.55804e-14
-3.32751e-14
-4.9917e-15
2.04095e-14
-8.51258e-14
1.75413e-13
-7.03628e-13
7.42406e-14
-7.84871e-14
5.57885e-13
-2.04277e-28
-1.02606e-27
-2.5373e-28
5.51489e-28
3.66342e-29
-9.14048e-28
-5.98684e-29
-1.0744e-26
3.371e-28
1.68888e-26
4.74541e-27
-8.70177e-26
2.41636e-27
1.94695e-27
1.03436e-27
-4.84267e-28
1.00763e-27
5.72292e-27
-1.83962e-28
5.85712e-28
-5.83298e-26
-3.00478e-27
-2.9455e-27
3.97639e-27
-1.57546e-26
-1.02589e-28
-7.39526e-26
1.26851e-26
2.99035e-27
3.79038e-26
-4.67663e-25
-1.20887e-26
5.19531e-27
-4.19427e-26
6.33439e-31
8.97023e-30
-5.5538e-29
-9.77717e-33
3.00571e-29
2.74946e-30
-3.49019e-28
-1.13824e-29
1.52983e-29
-4.84066e-28
7.60265e-29
1.30264e-29
3.37967e-28
-3.68683e-27
-3.37487e-29
1.99066e-29
-4.07937e-31
2.28533e-37
1.83269e-37
1.82137e-37
-2.17497e-36
2.3015e-40
3.19414e-38
-1.86018e-39
1.31952e-38
1.63438e-41
-8.01674e-39
-6.7595e-39
7.72162e-39
-6.09332e-38
5.42742e-40
-4.22491e-38
1.32631e-38
-2.2278e-37
4.05298e-42
1.58441e-43
-3.18388e-41
-1.39841e-43
-1.62787e-41
-4.199e-42
6.28936e-42
3.74508e-43
-2.30064e-40
-3.3499e-40
4.44287e-41
1.84483e-43
2.45044e-40
-3.17957e-39
-2.67548e-41
1.30608e-41
-4.67915e-41
1.90782e-44
1.94241e-42
-1.52504e-41
1.56808e-44
3.95398e-44
-5.85067e-43
1.34184e-45
-7.98512e-43
6.66473e-43
5.64546e-43
3.98383e-43
7.03874e-44
2.85172e-45
-6.48927e-42
4.0176e-43
-9.90686e-41
8.00351e-41
-5.52304e-38
7.27596e-39
-1.7161e-41
-4.34123e-38
4.2238e-41
2.92426e-39
4.75103e-38
-5.65276e-37
7.96038e-40
-6.75937e-39
9.29168e-41
-1.04094e-39
1.19317e-39
-3.40021e-39
1.46541e-39
-9.57115e-40
-2.86889e-40
4.30243e-44
3.45094e-43
1.84601e-41
3.46961e-40
2.47716e-40
-3.21771e-39
4.50576e-41
-7.98607e-44
6.06873e-42
-5.03016e-41
7.51849e-43
-8.36503e-42
8.81949e-42
3.5896e-41
-5.44448e-41
1.43475e-41
-7.48672e-30
1.25968e-30
6.3072e-30
-6.72926e-31
1.19103e-29
5.37216e-30
-2.29152e-29
9.87967e-30
4.10058e-30
-5.32982e-30
-3.56815e-30
1.47958e-29
-6.17439e-30
-3.90119e-32
6.21706e-30
-6.65787e-30
1.27161e-29
-4.15214e-20
1.67052e-20
2.7836e-20
-2.59293e-21
8.13091e-20
1.00084e-20
-1.29313e-19
3.58492e-20
6.35171e-20
-9.05205e-21
-4.19155e-21
4.17479e-20
-7.6138e-21
-2.88777e-21
1.17636e-20
-8.01907e-21
4.45457e-20
-6.7187e-17
-2.82517e-16
1.52933e-16
2.23773e-16
-2.08304e-16
2.05959e-16
-3.0735e-17
4.67512e-16
-9.34432e-16
1.38677e-16
-6.08816e-16
6.58245e-16
-2.42834e-16
6.36425e-16
-1.95515e-16
1.81092e-16
-3.07692e-16
1.14169e-05
1.13437e-07
-1.13768e-05
-2.24277e-07
-1.0882e-05
-8.28791e-06
3.14239e-05
-8.06699e-06
1.01319e-07
1.29857e-05
9.1995e-06
-3.36072e-05
1.34074e-05
-6.8875e-07
-5.75078e-06
1.09022e-05
-5.0105e-06
-3.1694e-10
1.42209e-11
1.44577e-10
-4.34339e-11
4.54299e-10
3.16603e-10
-1.75798e-09
1.91783e-10
3.26013e-11
-1.25996e-10
-1.41094e-10
3.01971e-10
-4.09109e-10
1.05488e-10
2.65114e-10
-5.98012e-10
1.51851e-10
1.6787e-10
2.3417e-10
-1.75337e-10
-3.55618e-10
1.29023e-10
9.95565e-11
-1.21758e-10
7.78617e-13
2.64536e-10
-3.67757e-10
9.6908e-11
3.32505e-10
3.32069e-11
-5.32763e-10
-1.87903e-10
2.12539e-10
-4.24709e-10
-1.21287e-09
-1.45089e-10
1.88452e-10
6.15353e-10
7.63525e-10
-9.35994e-11
-3.09546e-09
-6.79719e-11
2.50541e-10
3.72043e-10
-6.12244e-10
-2.79602e-10
-1.63645e-11
3.19476e-10
1.01779e-09
-2.53997e-09
7.02481e-10
3.84363e-09
1.34954e-08
1.22487e-08
-2.89952e-08
-3.80397e-10
2.72248e-10
3.34249e-09
1.69556e-08
2.79514e-09
3.95442e-09
-1.52677e-09
-1.6231e-09
-1.60153e-09
9.24701e-09
2.20468e-09
-5.46881e-09
7.542e-09
-7.14361e-09
1.33396e-08
-4.91706e-08
6.5832e-08
-3.46727e-08
7.79728e-09
-5.18042e-10
-1.77756e-09
1.52822e-08
4.65121e-09
1.06128e-08
-8.8494e-10
-5.25321e-09
-8.44834e-10
-5.21559e-09
-6.58615e-09
2.28418e-08
-5.43707e-09
-6.63462e-10
1.38069e-09
5.48469e-09
-1.21363e-08
6.45776e-09
-3.50314e-09
-8.59776e-10
2.35401e-09
-8.12151e-10
-1.5232e-09
-3.45876e-09
5.45644e-09
-9.01533e-10
5.76273e-09
-8.09808e-09
1.64051e-09
-1.02161e-08
-8.70625e-10
-9.62431e-10
-6.50698e-10
-1.86165e-10
1.805e-09
2.13591e-10
-6.2609e-10
-5.41948e-10
-7.24952e-10
1.58937e-10
9.17127e-10
1.88259e-10
-1.81351e-09
8.52901e-10
1.40735e-10
7.35657e-10
-1.16769e-09
1.40761e-09
-2.48491e-11
5.51761e-10
9.34298e-11
-2.42422e-10
2.74026e-10
-1.59575e-10
-1.8543e-10
-1.32182e-10
1.06533e-09
-6.76458e-10
4.30909e-10
5.98768e-10
1.06228e-10
-9.83747e-10
1.80687e-10
-2.68555e-10
5.05174e-10
-2.91898e-10
3.72634e-10
6.99424e-10
-1.02484e-09
8.18123e-10
-6.64986e-11
-1.36403e-09
4.82133e-10
5.56195e-10
-2.75071e-09
2.7826e-11
2.96786e-09
-8.10923e-10
-3.91969e-09
1.39488e-09
-2.50288e-09
1.45961e-09
-4.1678e-09
2.76333e-09
3.88391e-09
-8.82299e-09
7.05306e-09
-1.27337e-08
-4.02609e-09
-1.29999e-09
7.66765e-09
-1.0153e-09
2.83148e-09
-1.0186e-09
2.01342e-08
-3.17263e-08
6.69726e-09
-6.72997e-09
5.88808e-09
1.56508e-10
-1.11316e-11
-5.11212e-11
4.50355e-11
-8.07335e-11
-4.28412e-11
3.08087e-10
-4.94753e-11
-2.3884e-11
1.20142e-10
2.92839e-11
-1.67013e-10
2.49802e-10
1.72636e-11
-5.13079e-11
3.32236e-10
-5.81183e-11
1.15926e-16
-2.29706e-16
-9.13609e-16
9.12405e-16
-2.98674e-16
-2.14173e-16
5.1951e-16
-1.172e-16
-6.0811e-16
-1.69343e-16
3.64278e-16
-6.51161e-16
1.34733e-15
-2.85537e-15
3.52945e-18
3.20036e-17
2.20075e-16
3.52839e-21
-2.99718e-22
-2.62717e-20
1.27052e-21
-1.64576e-21
-1.428e-21
2.98219e-21
-5.8962e-21
-1.62456e-22
3.95174e-20
9.57061e-21
-1.50308e-19
6.86435e-21
7.55942e-21
-6.19945e-21
4.80486e-21
-1.44579e-20
-3.33273e-23
-1.07138e-22
-4.41392e-23
7.37487e-23
2.41178e-24
-1.51078e-22
-6.89546e-25
-9.27684e-22
1.39017e-23
1.33369e-21
5.90997e-22
-6.73478e-21
2.65018e-22
7.07161e-23
1.49206e-22
-1.27941e-22
1.25792e-22
-1.58595e-29
-1.67452e-29
-1.38773e-29
1.42948e-29
-1.29452e-30
-8.95705e-29
5.48893e-31
-2.87193e-28
-1.08426e-30
6.7887e-28
6.66212e-28
-5.38703e-27
1.06051e-28
4.17709e-30
-4.43753e-29
4.35362e-29
1.00482e-28
-2.77674e-37
1.06549e-35
-8.23116e-35
1.79544e-36
1.06549e-35
-1.46063e-34
6.41893e-38
-8.44924e-36
9.33187e-36
2.13e-34
1.2143e-34
-1.50657e-33
3.20417e-35
-1.94403e-37
9.34036e-35
-3.83904e-34
3.66288e-35
-2.00464e-22
-3.19888e-22
-1.99385e-22
7.37462e-22
1.89085e-23
-1.86155e-22
-1.24087e-23
-3.04621e-22
4.36125e-23
4.35954e-22
2.20955e-22
-8.40669e-22
4.11052e-22
1.64084e-22
1.43851e-22
-6.92968e-23
4.09692e-22
-2.52893e-20
-3.86946e-20
-1.69729e-20
9.88204e-20
4.47892e-21
-1.17299e-20
-6.87084e-21
-1.88134e-20
1.35139e-20
2.50288e-20
6.46302e-21
-3.69509e-20
2.69343e-20
2.93536e-20
9.68317e-21
-8.33094e-21
3.27482e-20
-4.87733e-11
-5.0334e-12
8.43047e-11
1.51152e-11
2.58011e-11
5.8375e-11
-1.33686e-10
3.35791e-11
-8.80836e-12
-5.71751e-11
-3.22964e-11
1.99632e-10
-4.43348e-11
1.29725e-11
-5.42986e-12
1.92482e-11
1.65725e-13
-3.45515e-11
-1.43867e-10
3.02855e-11
1.07537e-10
-7.23196e-11
5.60749e-11
-8.07277e-11
5.82286e-12
-2.69061e-10
-1.54822e-10
6.62655e-12
1.42949e-10
-9.84154e-11
-2.56359e-10
-2.22688e-10
1.65298e-10
-5.07242e-10
-4.7103e-11
1.29864e-11
6.89085e-11
-3.14174e-11
4.20707e-11
5.67301e-11
-1.42555e-10
1.51449e-11
4.61717e-11
6.20843e-11
-1.7522e-10
1.35118e-10
-8.8305e-11
2.01054e-10
8.50736e-11
-1.53357e-10
7.12973e-11
-2.36502e-10
-1.83018e-10
-5.84731e-11
3.83476e-10
1.88831e-10
-2.76412e-10
-3.20313e-10
1.14996e-10
-2.67968e-10
-4.64278e-10
1.66893e-10
3.10413e-10
2.6424e-10
-9.93429e-10
2.52132e-10
-3.38664e-10
3.00089e-10
1.32011e-10
4.71004e-10
-6.24815e-10
-4.86445e-10
2.59962e-10
-7.14771e-10
1.24405e-10
1.58802e-11
3.87211e-10
8.47489e-10
-2.15437e-11
-2.17151e-09
1.74695e-10
4.36292e-10
-1.04314e-09
7.54902e-10
-2.48017e-09
-2.85743e-10
-4.78335e-10
4.58015e-11
4.31699e-10
9.88373e-11
-1.12018e-10
-5.80533e-10
-4.44105e-13
-7.84759e-10
-3.27944e-10
1.72163e-10
1.26938e-10
3.36707e-10
-1.36481e-09
1.87345e-10
-1.49891e-10
2.73494e-10
-4.75706e-09
-6.49305e-09
5.28231e-09
2.00968e-08
1.93818e-09
-2.6541e-09
-1.84594e-09
2.86967e-09
-2.97414e-09
-2.07581e-08
-6.85643e-09
1.00988e-07
1.74878e-08
-3.59135e-08
1.17161e-08
-7.00654e-09
9.07178e-09
4.1802e-08
2.79184e-07
-5.03353e-08
1.86606e-07
-6.83315e-07
1.4651e-07
7.36645e-07
-2.32627e-07
3.87027e-07
5.28251e-08
-1.54053e-07
-1.10674e-08
2.81378e-07
1.81156e-07
-1.3259e-07
1.07273e-06
-4.36279e-07
-3.51416e-10
1.97388e-09
4.16339e-10
-3.16486e-09
1.19202e-09
-3.71825e-09
9.57427e-10
-2.13568e-09
4.09107e-09
-3.33472e-09
2.65726e-09
4.41542e-10
5.81375e-09
-1.33955e-08
1.90544e-09
-7.2942e-10
1.77116e-09
-4.50272e-08
-3.46494e-09
3.85608e-08
8.83144e-09
3.12055e-08
3.87076e-08
-1.16027e-07
-3.79472e-09
2.97738e-08
1.06949e-07
-1.03551e-07
3.50781e-10
-2.80917e-08
1.65713e-07
5.91755e-08
-1.30212e-07
6.87851e-08
1.66525e-07
-1.7827e-05
1.82957e-05
-5.45495e-07
-1.43692e-05
1.44357e-05
5.12272e-08
1.08474e-05
-4.30434e-05
-1.73292e-05
-1.05318e-05
4.24162e-05
-1.7245e-05
1.2747e-07
-1.49039e-05
2.26491e-05
-2.13013e-05
-3.67246e-08
-1.45889e-09
2.98114e-08
4.18932e-09
3.14659e-08
1.94142e-08
-8.60274e-08
-1.49022e-10
3.01696e-08
4.25721e-08
-3.33463e-08
-9.36642e-09
-2.01282e-08
9.28781e-08
3.1618e-08
-4.55445e-08
4.13017e-08
9.21004e-13
5.77545e-13
8.9542e-14
-2.43599e-12
-1.3121e-13
1.75033e-13
4.71793e-13
-7.01907e-15
1.91254e-13
1.42314e-13
-1.12943e-13
-1.67592e-13
-1.9142e-14
2.14319e-13
-2.42765e-13
2.382e-13
-4.79093e-13
-1.31384e-20
-3.13892e-20
-1.12194e-20
2.72437e-20
2.76214e-21
-4.57225e-20
-9.12883e-22
-2.17637e-19
1.10291e-20
3.79511e-19
1.18873e-19
-1.38474e-18
7.68651e-20
6.43116e-20
5.40483e-20
-7.18241e-20
5.75011e-20
-1.59373e-23
-3.7175e-26
1.30003e-24
5.53908e-26
1.86514e-23
1.24448e-23
-1.2114e-22
3.63853e-24
2.20418e-25
-2.71298e-24
-2.66203e-24
2.27794e-24
-1.41099e-23
1.88957e-25
6.55261e-24
-3.4678e-23
7.29761e-25
-2.1033e-26
1.10182e-23
-8.32958e-23
4.96367e-24
-2.34157e-23
2.10749e-25
5.88879e-24
9.19874e-23
-8.59307e-22
-1.37709e-22
2.46788e-28
2.47236e-29
-4.10571e-27
-3.29635e-29
-3.04255e-28
-2.01139e-28
2.78244e-28
-1.77364e-27
4.97473e-29
1.11299e-26
1.01989e-26
-7.52201e-26
1.84559e-27
2.15472e-29
-2.02781e-27
1.75495e-27
2.80541e-28
1.48954e-26
1.4337e-27
-1.38499e-25
-2.44146e-27
-1.54266e-25
3.04683e-26
2.67755e-27
-6.93739e-25
7.89679e-27
-2.39539e-29
-9.68748e-30
-1.86153e-29
1.68617e-29
4.64479e-31
-1.36988e-28
8.27748e-31
1.93897e-28
-7.78681e-28
5.74461e-29
-1.60587e-18
9.02145e-19
2.14615e-18
-1.50072e-19
2.17663e-18
4.75803e-19
-3.4616e-18
1.46241e-18
2.41756e-18
-7.87071e-19
-7.42484e-19
4.41274e-18
-3.95394e-19
-2.23257e-19
3.18473e-19
-2.52152e-19
1.36041e-18
-1.25312e-12
4.87198e-12
-3.06699e-12
6.33457e-12
4.87218e-12
2.3654e-13
-5.58431e-12
4.55013e-12
1.31931e-11
6.28753e-12
-1.25299e-12
-1.14553e-11
1.54165e-13
1.32317e-11
2.65348e-12
-3.29263e-12
9.82408e-12
-1.33433e-11
-4.2365e-12
1.00019e-11
5.20542e-12
9.4385e-12
2.3256e-11
-4.58685e-11
1.48834e-11
-1.10635e-11
-6.80305e-12
-1.98864e-11
3.50716e-11
-3.422e-11
3.64136e-11
8.92474e-12
-1.3037e-11
6.22032e-12
1.73923e-11
1.65565e-11
2.56115e-12
-3.36387e-11
1.44724e-12
-1.57173e-12
5.65862e-12
5.13873e-12
4.43846e-12
-5.3454e-12
-2.27497e-12
-1.52265e-12
8.1749e-12
-6.17805e-12
7.03129e-12
-1.05186e-11
-1.49741e-15
3.61552e-15
-1.28152e-14
2.2144e-15
8.12812e-15
-3.38075e-15
-3.00624e-14
-8.50476e-15
1.0408e-14
-3.92699e-14
3.05317e-14
-5.52262e-14
3.57843e-14
-1.89891e-13
-5.73852e-15
1.04373e-14
-7.17829e-16
5.27449e-13
-9.73444e-13
2.44329e-12
-4.64271e-12
-6.90987e-13
1.14011e-13
3.92102e-13
7.93263e-13
-3.98113e-12
1.50793e-13
-4.11801e-13
1.13325e-13
-1.07815e-12
9.09622e-13
1.0914e-13
-1.42551e-13
1.4968e-13
1.64362e-10
3.35399e-10
-2.42443e-10
-3.11717e-10
3.86388e-10
-1.63767e-09
1.42077e-09
-8.70308e-10
1.59971e-09
1.05522e-10
6.23443e-10
-1.29034e-09
9.07355e-10
-1.14455e-09
2.50051e-12
-4.42824e-10
-3.91002e-10
5.27225e-11
5.70255e-10
8.36646e-10
-1.20661e-09
5.04576e-10
9.45293e-10
-1.1392e-09
4.70625e-10
5.22834e-10
-2.25782e-11
-9.1745e-10
1.54794e-09
-1.0039e-09
1.43999e-09
-7.78802e-11
1.26458e-10
-3.092e-10
6.69992e-13
2.02312e-12
-9.91083e-14
-4.79022e-12
7.79583e-13
-8.79954e-12
6.85295e-12
-1.97312e-12
3.21993e-12
-4.48427e-12
2.20983e-12
1.60522e-13
7.72451e-12
-2.16089e-11
2.46155e-12
-7.04495e-12
1.17286e-12
-1.10779e-11
2.21871e-12
2.22977e-12
4.79551e-11
-1.09273e-10
1.02249e-12
1.01576e-12
-1.79132e-12
4.26688e-12
2.20065e-11
8.54244e-11
1.06864e-10
-1.35991e-11
-2.88121e-10
-1.2667e-11
2.66639e-11
2.38213e-11
-4.11433e-11
5.58485e-11
7.98459e-11
-5.42816e-11
-1.13935e-10
-1.33143e-11
9.94552e-11
-6.69168e-11
5.0976e-11
-2.02334e-10
8.6609e-12
-3.51634e-11
-9.84057e-11
6.68196e-11
-3.56224e-11
-3.8368e-11
3.96253e-11
-2.42956e-11
-9.8535e-11
-7.78071e-11
4.6249e-11
-7.05332e-11
1.19868e-10
-3.6154e-10
-3.8448e-11
1.61013e-11
-7.35586e-11
-3.17141e-08
-1.01047e-08
7.62717e-10
3.68157e-08
1.3765e-08
-8.50799e-09
-4.42379e-08
-3.59653e-09
4.64808e-09
6.65712e-09
2.49389e-09
-1.76303e-08
8.0681e-09
2.65996e-09
1.94895e-08
-2.53831e-08
2.40898e-08
-2.77438e-08
-4.31507e-08
1.31877e-07
-2.12126e-08
-5.70383e-08
-8.32807e-09
1.5072e-08
-3.55261e-09
-1.51249e-07
3.63909e-08
5.67372e-08
-2.12196e-08
-7.4495e-08
2.39364e-07
4.65297e-09
3.73107e-09
-4.30674e-08
-1.73379e-10
-3.42528e-10
-4.1778e-10
8.19591e-10
-1.14497e-10
-4.43168e-10
2.54621e-10
-4.53592e-10
-2.21338e-10
9.02903e-10
4.95279e-10
-2.05369e-09
1.57025e-09
-1.0814e-09
4.63221e-10
-5.01056e-10
1.53658e-09
1.74509e-08
-1.51123e-08
-6.30718e-08
2.63751e-08
-2.96046e-08
-4.31673e-08
5.91822e-08
-6.29405e-08
-3.40889e-08
7.8011e-08
7.82804e-08
-2.69035e-07
1.2237e-07
-1.66505e-07
-5.78435e-10
7.92718e-09
-2.11406e-09
3.54614e-07
-1.19726e-07
-1.85516e-07
1.47811e-08
-3.01277e-06
-3.00125e-07
4.62231e-06
-6.34327e-07
9.81026e-07
2.44747e-07
4.70949e-07
-7.6514e-07
3.16903e-07
-2.08791e-08
-1.21049e-07
1.75506e-07
-2.47433e-07
7.33369e-10
2.88473e-10
-1.07573e-10
-8.87698e-10
-4.36183e-10
1.00689e-10
1.09416e-09
5.13135e-10
-6.15199e-10
-1.18517e-09
1.13025e-10
1.4091e-09
-1.34281e-10
-1.8274e-09
-2.72466e-10
2.7308e-10
-5.71983e-10
3.39209e-12
4.28022e-12
-3.23634e-12
-8.59059e-12
7.95897e-13
-7.56904e-12
7.74739e-12
-7.97414e-12
8.06671e-12
-4.78876e-12
7.9737e-12
-1.092e-11
1.06957e-11
-3.12987e-11
-1.05004e-12
9.71415e-13
-4.28606e-12
-6.58071e-19
-1.41395e-20
7.28623e-20
1.35243e-20
7.49312e-19
5.52883e-19
-4.05702e-18
1.84278e-19
4.28804e-21
-1.11057e-19
-1.22015e-19
1.21899e-19
-4.8797e-19
2.08372e-20
2.34171e-19
-9.03009e-19
4.44895e-20
8.39173e-21
4.39899e-19
-2.63053e-18
1.84494e-19
-7.2206e-19
2.4754e-20
2.76572e-19
3.19618e-18
-2.2426e-17
-2.26395e-18
-3.89207e-25
1.75269e-23
2.24992e-24
-1.57068e-22
5.40156e-24
-2.50253e-23
-3.5759e-25
-7.10095e-24
1.17138e-23
-2.25333e-22
4.342e-23
1.14816e-23
9.99471e-23
-1.16739e-21
2.46569e-23
-2.19252e-23
2.01526e-23
-5.42972e-29
-1.48226e-30
4.60604e-30
8.4848e-31
4.31874e-29
5.47667e-29
-4.69672e-28
1.02791e-29
-1.58691e-29
-1.84914e-30
-3.15107e-30
2.8725e-30
-1.53398e-29
1.27448e-30
2.74417e-30
-4.28366e-30
2.67572e-31
-2.06458e-30
-2.18844e-31
1.19209e-30
3.07676e-31
1.8791e-30
2.40291e-30
-8.44424e-30
1.42313e-30
-1.50225e-31
-1.28422e-30
-1.32366e-30
3.40819e-30
-2.67188e-30
1.22529e-30
8.88784e-31
-1.62252e-30
7.89093e-31
7.47769e-19
9.64761e-18
-3.69301e-18
-2.80121e-18
8.09944e-18
-5.15075e-18
8.41219e-20
-5.91316e-17
-4.31132e-17
2.02081e-18
-9.07266e-18
-3.20764e-17
-1.76262e-17
-6.84578e-17
-3.98262e-16
-2.27332e-16
-1.08896e-17
6.28402e-16
1.48717e-16
-6.2219e-17
-5.03333e-16
4.8319e-17
-9.37068e-17
1.10499e-16
-1.56519e-16
8.0491e-18
-2.72798e-16
3.91956e-16
-1.87989e-16
-3.9524e-16
-2.92546e-15
-3.21673e-15
-1.9472e-15
-1.47574e-15
-4.9059e-15
-1.23536e-05
-1.00585e-05
-1.04132e-05
3.28743e-05
-3.32012e-07
-1.29402e-05
9.21793e-07
-9.83085e-06
-5.24825e-07
9.57276e-06
7.5812e-06
-2.69788e-05
1.03328e-05
-1.24979e-06
5.47855e-06
-1.08354e-05
5.4131e-06
-5.58981e-11
-3.00479e-11
-4.91477e-12
9.06958e-11
1.99946e-11
9.54853e-12
-8.56358e-11
-1.38044e-11
1.30444e-11
5.52273e-11
-3.17642e-11
-3.15341e-11
-8.49065e-13
7.46305e-11
2.50331e-11
-4.73585e-11
1.91595e-11
3.32619e-14
-1.8515e-13
-2.27608e-15
1.32418e-13
-3.45646e-13
1.39113e-13
2.07141e-13
1.11016e-13
-6.68608e-13
9.72141e-14
-6.77904e-14
-3.289e-14
-2.96744e-14
2.60859e-13
-1.14554e-13
2.39538e-13
-8.27127e-14
5.23047e-16
-4.86236e-15
5.32726e-15
-4.72122e-16
-5.11448e-15
8.69781e-16
5.34288e-15
6.19576e-15
-1.5178e-14
6.15025e-15
-8.4795e-15
4.37704e-15
-5.36887e-15
1.75534e-14
2.39118e-15
-3.82605e-15
2.71385e-15
-5.25144e-14
-5.17415e-16
1.67225e-14
3.32997e-15
4.56171e-14
2.7397e-14
-2.1529e-13
-1.83986e-17
1.14552e-14
8.3477e-15
-3.05995e-14
-6.72911e-16
-8.04772e-15
1.5268e-14
2.50337e-14
-7.07569e-14
1.60265e-14
1.30259e-10
5.55702e-11
-6.85695e-11
-1.75202e-11
-2.7061e-11
-1.88611e-10
3.42025e-10
-2.43817e-10
2.59043e-10
2.61225e-11
2.93856e-10
-3.66577e-10
1.18256e-10
-9.64808e-11
1.55976e-12
1.05971e-11
5.26253e-11
-3.95377e-10
2.04846e-10
1.12255e-09
-1.30006e-09
2.46934e-10
4.10362e-10
-1.23036e-09
8.90829e-11
2.37512e-10
1.8674e-10
-3.09379e-10
1.3548e-10
-3.88607e-10
6.47689e-10
2.72561e-10
-2.27789e-10
7.20831e-10
9.37863e-10
3.45364e-10
-5.68028e-11
-1.16963e-09
-3.15898e-10
2.35483e-10
1.10566e-09
5.9026e-10
-4.86027e-10
-8.05924e-10
4.45374e-11
1.34785e-09
-1.62173e-10
-1.08197e-09
-4.42385e-10
7.52154e-10
-6.48502e-10
1.28671e-10
8.88436e-11
1.59342e-10
-4.3245e-10
-3.87956e-12
2.27075e-11
8.73114e-11
2.91234e-11
1.71766e-11
-8.9854e-12
-5.38176e-12
2.69869e-11
-8.08403e-11
5.55052e-11
-5.63802e-11
5.13289e-11
-2.78341e-11
1.41676e-07
-5.4316e-08
-8.14583e-10
-1.10838e-08
7.25221e-09
5.83401e-09
1.00898e-07
-7.81473e-08
1.35855e-07
-3.6708e-09
2.36164e-08
-2.83552e-08
-2.24058e-08
-1.50723e-09
-2.14856e-08
-1.77159e-08
-1.31596e-07
1.00836e-07
4.94385e-08
2.35986e-08
-1.73717e-07
-1.28328e-07
-2.48293e-08
2.54025e-07
-8.01609e-08
1.52364e-09
6.52122e-07
-4.40119e-08
-6.89922e-07
-2.48204e-07
8.92341e-07
9.32391e-08
-1.13993e-07
-1.81137e-07
-5.8122e-08
-3.72044e-08
4.69397e-08
4.84113e-08
7.57405e-08
5.12628e-08
-1.85311e-07
5.80899e-08
-1.95688e-08
-2.58951e-08
1.92313e-07
-1.19561e-07
2.77586e-07
-2.52647e-07
-5.38232e-08
3.04356e-07
2.01188e-07
1.72578e-10
-3.3022e-07
5.85925e-07
-2.86149e-07
-7.92182e-07
5.11819e-10
-5.13834e-09
-8.45182e-10
4.16871e-09
-4.27724e-09
3.19399e-09
8.16672e-10
5.15168e-09
-1.54578e-08
8.04312e-09
-6.61804e-09
-1.94088e-09
-2.62439e-09
1.47526e-08
-3.18231e-09
3.64381e-09
-5.73047e-09
-4.04832e-08
-6.54518e-08
-3.44201e-08
9.87095e-08
8.99715e-10
-6.02662e-08
-3.81108e-09
-1.2657e-07
1.13855e-08
1.67315e-07
1.20166e-07
-5.92063e-07
7.92032e-08
2.69143e-08
7.13132e-08
-7.63588e-08
6.66363e-08
1.08445e-06
1.5958e-06
8.18518e-07
-4.30133e-06
-2.22673e-08
7.45767e-07
3.34719e-08
9.63857e-07
9.1349e-09
-5.6641e-07
-3.53725e-07
1.4533e-06
-6.52247e-07
1.76401e-08
8.03794e-07
-8.49419e-07
1.11406e-06
2.40949e-06
1.85031e-06
1.85049e-06
-7.99648e-06
-2.34963e-09
3.28433e-08
1.27559e-06
1.18957e-06
4.48738e-08
1.87841e-06
-2.52834e-06
9.23939e-08
-1.52988e-06
4.02557e-06
-1.81721e-06
7.8376e-07
-4.2261e-06
2.19091e-11
1.22652e-10
-1.48124e-11
-2.58648e-10
2.76049e-11
-1.48288e-10
6.79386e-11
-1.10814e-10
1.76882e-10
-2.11399e-10
1.19961e-10
-1.23111e-11
2.18879e-10
-9.08073e-10
7.46535e-11
-1.17736e-10
3.63002e-11
-7.16398e-18
-2.60911e-17
-8.19494e-18
2.49775e-17
4.46411e-19
-2.41669e-17
1.94897e-19
-1.18988e-16
1.90968e-19
-1.93318e-17
-6.63828e-17
4.6875e-17
-1.37033e-16
3.04104e-17
1.97009e-16
-8.22895e-16
2.88024e-18
4.05447e-18
1.53424e-19
-1.4407e-17
8.9312e-19
-5.24924e-29
-9.58219e-29
-6.37291e-29
6.78782e-29
-2.15724e-29
-4.14e-28
3.98987e-29
-1.04721e-27