/*--------------------------------*- C++ -*----------------------------------*\
| =========                 |                                                 |
| \\      /  F ield         | OpenFOAM: The Open Source CFD Toolbox           |
|  \\    /   O peration     | Version:  v2012                                 |
|   \\  /    A nd           | Website:  www.openfoam.com                      |
|    \\/     M anipulation  |                                                 |
\*---------------------------------------------------------------------------*/
FoamFile
{
    version     2.0;
    format      ascii;
    class       volScalarField;
    location    "0.15";
    object      p;
}
// * * * * * * * * * * * * * * * * * * * * * * * * * * * * * * * * * * * * * //

dimensions      [1 -1 -2 0 0 0 0];


internalField   nonuniform List<scalar> 
24700
(
-403.292
-442.617
-352.778
-417.477
-435.53
-314.413
-365.35
-422.557
-455.475
-466.822
-430.34
-457.263
-448.09
-385.693
-412.315
-436.992
-420.724
-226.948
-256.622
-267.463
-205.646
-191.604
-261.148
-243.118
-174.513
-220.439
-210.805
-208.825
-204.419
-2.92414
-2.91879
-2.93617
-2.89955
-2.89624
-2.91348
-2.90866
-2.48503
-2.49321
-2.49923
-2.51832
-2.51187
-2.5075
-2.4987
-1.25351
-1.37202
-1.24788
-1.20563
-1.23375
-1.27958
-1.10897
-2.29246
-2.41243
-2.33796
-2.49009
-2.53027
-2.37778
-2.42686
-5.28134
-2.8669
-4.80715
-5.51698
1.49634
-3.92933
-5.42495
-2.38062
-2.34685
-2.36233
-2.41413
-2.39467
-2.36601
-2.38372
-2.18661
-2.24015
-2.24084
-2.25636
-2.27671
-2.24531
-2.22113
-45.6945
-7.43525
-32.0067
-20.6347
-5.79235
18.3123
-45.8578
-2.50137
-2.47273
-2.51872
-2.50969
-2.50092
-2.48419
-2.52606
-2.49841
-2.48825
-2.50236
-2.50945
-2.51586
-2.49986
-2.50797
-2.39698
-2.40785
-2.39336
-2.38302
-2.39798
-2.40111
-2.38704
-2.21084
-2.21995
-2.22382
-2.23251
-2.22294
-2.22443
-2.21528
-2.87362
-2.88154
-2.86704
-2.86044
-2.84616
-2.85194
-2.86926
-2.87165
-2.87666
-2.88706
-2.91771
-2.93156
-2.91657
-2.90861
-2.89599
-2.91702
-2.90385
-2.92509
-2.92466
-2.9385
-2.92586
-2.91164
-2.84833
-2.86438
-2.8615
-2.87897
-2.86586
-2.85665
-2.86956
-2.51118
-2.52679
-2.51904
-2.49653
-2.50697
-2.51784
-2.50888
-1.24061
-1.34182
-1.23625
-1.24213
-1.21554
-1.27269
-1.14519
-1.08524
-1.01208
-1.09588
-1.29575
-1.03023
-0.958105
-1.24281
-0.276757
-0.4815
-0.220745
-0.2136
-0.288195
-0.338293
-0.210277
0.1529
0.182479
0.191221
0.119382
0.075509
0.11696
0.151879
0.519261
0.563448
0.555007
0.582879
0.556678
0.569468
0.533528
0.495961
0.462733
0.506225
0.520004
0.516709
0.474991
0.506904
-1.4855
-1.49942
-1.5347
-1.59479
-1.55154
-1.54904
-1.5172
-1.21944
-1.11751
-1.1647
-1.28193
-1.05826
-1.12502
-1.18949
-4.54764
15.9763
18.4069
8.34527
4.47873
14.8584
0.117688
-1.43219
-1.46399
-1.45956
-1.40765
-1.4666
-1.4585
-1.42178
-1.2619
-1.2557
-1.2759
-1.26217
-1.24
-1.27312
-1.24881
-0.876773
-0.981743
-0.924187
-0.943676
-0.96313
-0.934968
-0.922622
-0.65624
-0.569893
-0.591802
-0.772775
-0.771183
-0.665352
-0.707453
0.0784266
0.0993727
0.112831
0.0548021
0.0278608
0.0619646
0.0850785
0.673552
0.726961
0.514874
0.594702
0.695781
0.638371
84.8604
66.0154
65.8407
56.9525
64.3438
43.2531
4.08839
1.02075
2.43228
3.29679
1.27293
1.59591
3.07105
0.915611
0.700166
1.08746
0.852503
1.03382
0.857252
1.15764
0.694307
0.731002
0.704953
0.751257
0.765323
0.726845
0.659926
1.04681
0.77921
0.692459
0.920663
0.97104
0.965812
0.95766
0.833164
0.852663
0.820773
0.816384
0.737996
0.772394
0.815834
0.665163
0.702586
0.677197
0.613638
0.658137
0.691698
0.630233
-0.0244198
0.0335172
-0.0495671
0.0876451
0.078692
0.00531351
0.00946657
-1.25964
-1.289
-1.42609
-0.930104
-1.48018
-1.25365
-1.20454
-1.32928
-0.998382
-1.18381
-1.17409
-1.24958
-1.05912
-1.30114
-1.98947
-1.97044
-1.94049
-1.90256
-1.90842
-1.94278
-1.95636
-2.50661
-2.49779
-2.49103
-2.47695
-2.48697
-2.48833
-2.49791
-2.52275
-2.53591
-2.52594
-2.51744
-2.50749
-2.52542
-2.51543
-2.57748
-2.5715
-2.58741
-2.56829
-2.55716
-2.57891
-2.5682
-2.70472
-2.71769
-2.71764
-2.73485
-2.72252
-2.7278
-2.71564
-2.77531
-2.78699
-2.76734
-2.76713
-2.75536
-2.78011
-2.76823
-2.81918
-2.81627
-2.83137
-2.7983
-2.80988
-2.81958
-2.80693
-2.8136
-2.81497
-2.80053
-2.82047
-2.83272
-2.82512
-2.81227
-2.86443
-2.84836
-2.86156
-2.86595
-2.87908
-2.8568
-2.86967
-2.74465
-2.729
-2.74137
-2.76023
-2.74838
-2.73927
-2.75109
-2.50234
-2.48826
-2.49835
-2.51602
-2.50925
-2.49974
-2.50785
-2.46959
-2.46258
-2.45557
-2.47883
-2.47691
-2.46817
-2.46619
8.49907
1.63027
5.61336
-10.4247
6.15361
0.396152
6.38722
-1.06695
-1.00465
-1.03312
-1.05518
-1.04653
-1.01708
-1.06075
-1.00075
-0.997711
-1.00625
-0.99902
-0.969529
-1.00487
-0.98449
-0.123943
-0.108732
-0.1361
-0.158735
-0.160119
-0.134512
-0.142161
0.0231834
0.0729054
0.0303768
0.0794188
0.0126457
0.188938
0.0977778
0.175747
0.174495
0.203105
-0.0475082
0.000772898
0.321608
0.270518
0.225387
0.198714
0.299479
0.210607
0.269175
0.232983
0.198876
0.223331
0.113046
0.200614
0.861721
0.936533
0.867283
0.815297
0.7706
0.85025
0.778269
0.961651
1.02804
0.938877
0.912224
1.00671
1.01387
0.930986
-2.57134
-2.31289
-2.23716
-2.87823
-2.89523
-2.57898
-2.50916
-4.86382
-4.03641
-4.38934
-5.09288
-5.71325
-4.52186
-4.86449
-1.73209
-1.69175
-1.64418
-1.83479
-1.84426
-1.81395
-1.75519
-2.06315
-2.09141
-2.07844
-2.09071
-2.0659
-2.08967
-2.06384
-2.373
-2.38484
-2.37497
-2.35533
-2.36498
-2.37155
-2.36267
-2.44505
-2.43529
-2.43258
-2.41785
-2.42809
-2.42617
-2.43602
-2.49814
-2.48327
-2.48439
-2.46129
-2.47876
-2.48476
-2.47564
-2.66869
-2.66868
-2.68148
-2.65511
-2.66855
-2.66156
-2.67458
-2.8651
-2.85018
-2.84103
-2.81956
-2.83342
-2.83579
-2.85065
-2.78176
-2.76842
-2.76135
-2.73862
-2.75035
-2.75198
-2.76447
-1.82246
-1.7776
-1.81056
-1.87227
-1.83159
-1.80714
-1.83884
-1.01534
-1.02011
-0.996437
-1.03622
-1.01611
-1.03044
-1.00689
-0.982805
-0.984291
-1.02605
-1.07296
-1.04871
-1.03261
-0.998421
-1.16278
-1.1393
-1.16387
-1.22092
-1.16086
-1.15545
-1.20942
-0.151248
-0.128319
-0.156728
-0.0876419
-0.110876
-0.138341
-0.119366
-0.014642
0.00322473
0.0347091
0.0528229
0.0883854
0.0462226
0.0169495
0.694187
0.698307
0.749744
0.62149
0.777167
0.566707
0.898438
6.45663
19.4416
12.7625
2.83001
4.86509
14.4506
2.3361
1.34908
1.35862
1.35458
1.32688
1.3674
1.27099
1.29969
-4.49216
-3.91213
-3.9991
-3.61785
-3.29188
-3.84369
-3.78979
2.03724
-2.65618
-9.42643
-12.6815
7.84363
-12.2014
-0.440364
-3.99995
-4.02813
-3.91064
-3.72245
-3.82915
-4.02013
-3.93499
-2.11669
-2.11234
-2.12207
-2.13313
-2.12613
-2.11869
-2.12515
-2.32358
-2.31761
-2.3099
-2.29833
-2.30723
-2.31054
-2.3174
-2.35438
-2.33682
-2.35867
-2.37031
-2.36098
-2.35469
-2.36751
-2.35262
-2.36287
-2.37005
-2.33399
-2.34632
-2.44246
-2.45407
-2.4393
-2.4247
-2.44117
-2.44533
-2.43365
-2.43952
-2.45425
-2.4386
-2.42764
-2.44944
-2.50234
-2.49084
-2.48737
-2.48818
-2.50271
-2.74273
-2.7184
-2.73009
-2.7641
-2.75054
-2.73283
-2.74508
-2.24977
-2.27702
-2.25038
-2.24564
-2.19961
-2.25234
-2.22944
-2.13896
-2.10902
-2.13086
-2.15925
-2.14909
-2.12752
-2.14462
-2.10014
-2.13084
-2.12829
-2.1299
-2.15166
-2.1361
-2.11163
-1.7859
-1.77796
-1.80827
-1.77841
-1.75459
-1.79746
-1.77396
-1.60266
-1.6113
-1.58522
-1.6102
-1.63188
-1.59389
-1.61454
-1.83176
-1.81689
-1.78333
-1.82861
-1.8981
-1.83492
-1.83499
-1.42233
-1.35412
-1.43181
-1.43612
-1.52556
-1.39773
-1.49161
-0.69983
-0.690128
-0.628772
-0.701419
-0.72954
-0.701775
-0.65214
-0.701497
-0.743713
-0.63968
-0.691044
-0.714438
0.11519
0.0988371
0.0799465
0.0545235
0.030133
0.0616803
0.0830496
0.431134
0.466967
0.471766
0.505877
0.488611
0.492847
0.4654
0.855588
1.04864
1.01705
0.931191
0.870265
1.0887
1.04698
3.16011
2.55055
3.58671
4.98665
7.56143
2.9208
4.64905
2.07
1.29649
2.05526
2.50577
2.33338
1.98768
2.21707
3.76525
-0.0606979
0.993769
0.0242417
0.765991
-1.43287
2.16981
-3.58983
-6.14139
-3.51183
-3.92027
-4.18157
-5.14046
-5.45092
-3.1667
-3.16202
-3.04411
-3.03499
-3.05041
-3.12458
-3.14843
-2.27491
-2.29168
-2.23701
-2.26289
-2.2858
-2.30003
-2.25269
-2.23316
-2.21594
-2.23755
-2.24874
-2.241
-2.23438
-2.24627
-2.23237
-2.24202
-2.24872
-2.21747
-2.22803
-2.43261
-2.43534
-2.44518
-2.4281
-2.41789
-2.4262
-2.43608
-2.50656
-2.49113
-2.50409
-2.51985
-2.50718
-2.49835
-2.51121
-2.58835
-2.57243
-2.5867
-2.60132
-2.58755
-2.57893
-2.59259
-2.90589
-2.9157
-2.93596
-2.89561
-2.91377
-2.91389
-2.92947
-2.9039
-2.89931
-2.90544
-2.92988
-2.91228
-2.8891
-2.9383
-2.91135
-2.91213
-8.76522
3.59695
2.46292
-2.9987
7.62389
0.486004
1.06035
-2.67111
-2.58553
-2.61448
-2.60206
-2.62528
-2.58655
-2.62608
-2.31427
-2.30953
-2.28578
-2.32386
-2.3445
-2.32819
-2.30718
-2.03644
-2.04023
-2.01035
-2.04384
-2.06611
-2.02675
-2.05104
-1.86807
-1.84454
-1.87243
-1.87781
-1.89556
-1.8604
-1.88017
-1.71544
-1.76066
-1.72757
-1.7291
-1.7272
-1.76091
-1.71947
-1.77219
-1.75371
-1.73197
-1.7098
-1.68427
-1.72924
-1.73206
-1.22388
-1.19194
-1.25687
-1.30784
-1.27956
-1.23816
-1.24328
-0.944875
-0.954448
-0.940313
-0.907931
-0.944177
-0.917792
-0.934847
2.18981
4.09509
3.90914
3.00591
2.30843
2.02896
3.98379
89.1197
69.9803
64.967
73.7454
55.1016
88.6603
70.4576
86.6041
86.6126
93.7524
67.6146
68.131
74.9018
75.482
76.1298
95.778
77.3726
5.11882
4.74712
6.04068
5.05631
4.42228
4.48792
5.32916
18.5355
17.3154
17.9535
18.8826
18.1178
17.8365
19.1844
11.0765
11.6837
10.69
14.2198
11.3667
10.9971
15.2033
6.65383
7.17558
10.9777
0.416745
9.55657
8.9446
8.11343
-2.12695
-2.13283
-2.12956
-2.12002
-2.12686
-2.13068
-2.12616
-2.20777
-2.20178
-2.19338
-2.19663
-2.18022
-2.17788
-2.18819
-2.20095
-2.21346
-2.20341
-2.51169
-2.49867
-2.4993
-2.48339
-2.49686
-2.48935
-2.50282
-2.86744
-2.77711
-2.85103
-2.90706
-2.92326
-2.90401
-2.86807
-2.8078
-2.86295
-2.94098
-2.91055
-2.90274
-2.98166
-2.88912
-2.86749
-2.77383
-2.86294
-2.88866
-2.93231
-2.96303
-2.93986
-2.93467
-2.94266
-2.92723
-2.90447
-2.90412
-2.86384
-2.89732
-2.94202
-2.89467
-2.50497
-2.48369
-2.50914
-2.51387
-2.53397
-2.49814
-2.51891
-2.02694
-2.05226
-2.0517
-2.08109
-2.05913
-2.07079
-2.04655
-1.76602
-1.76308
-1.76551
-1.79321
-1.75284
-1.79717
-1.74796
-1.09924
-1.09103
-1.11636
-1.10937
-1.14793
-1.09812
-1.12709
-0.599127
-0.536709
-0.557805
-0.609327
-0.672952
-0.562347
-0.597931
0.191825
0.178099
0.149655
0.0948437
0.0942734
0.114756
0.146507
0.11377
0.244332
0.191543
0.225824
0.214332
0.259004
0.171629
1.36732
1.34839
1.37016
1.35639
1.33723
1.27297
1.31755
63.2385
54.4155
72.5362
57.4673
61.0815
77.9462
46.533
28.3464
39.5899
57.8026
68.2736
69.8344
90.7821
71.8695
51.3181
-4.95337
-4.86695
-4.90673
-4.83643
-5.4755
-4.84726
-5.17656
-4.23776
-4.19029
-4.08861
-4.20357
-4.46596
-4.40343
-4.12962
-2.51285
-2.52434
-2.54378
-2.63286
-2.46553
-2.64137
-2.53007
-2.23773
-2.22146
-2.22904
-2.20779
-2.25087
-2.22371
-2.25135
-2.18015
-2.18697
-2.19703
-2.19728
-2.22001
-2.18506
-2.19775
-2.11113
-2.10435
-2.10508
-2.10509
-2.10486
-2.10304
-2.11058
-2.09688
-2.10696
-2.09839
-2.09202
-2.08611
-2.09694
-2.08953
-2.13215
-2.12355
-2.1226
-2.10874
-2.11929
-2.11532
-2.12491
-2.12084
-2.13097
-2.12206
-2.10666
-2.11592
-2.12241
-2.11326
-2.08918
-2.09953
-2.0863
-2.08432
-2.07505
-2.09178
-2.08172
-2.12931
-2.12091
-2.12537
-2.12931
-2.13606
-2.13056
-2.12748
-2.13289
-2.12596
-2.12142
-2.11005
-2.11628
-2.11766
-2.12452
-2.84338
-2.78401
-2.94337
-3.02828
-2.92039
-2.89437
-3.02514
-2.02183
-2.09176
-1.82963
-2.33014
-2.21494
-2.16623
-2.18103
-2.93146
-2.90906
-2.90325
-2.90739
-2.93253
-2.88933
-2.91718
-2.91693
-2.93938
-2.9134
-2.80198
-2.80299
-2.82642
-2.76823
-2.79361
-2.80441
-2.77929
-2.06691
-2.06325
-2.03969
-2.07486
-2.09128
-2.07764
-2.05931
-1.13915
-1.10253
-1.09069
-1.08488
-1.10169
-1.09347
-1.1261
-1.25373
-1.24352
-1.21392
-1.17643
-1.17201
-1.21734
-1.23784
-0.944924
-0.987455
-0.974315
-0.92443
-0.944361
-0.967992
-0.949043
-2.78655
-3.04838
-2.99587
-2.6848
-2.6895
-2.74735
-2.8845
-2.71127
-2.95335
-2.88857
-2.42635
-2.5154
-2.69969
-2.7049
-2.4808
-2.41836
-2.53188
-2.32844
-2.29624
-2.37811
-2.42366
-2.05227
-2.04546
-2.06123
-2.05371
-2.04241
-2.06314
-2.04579
-2.04445
-2.03834
-2.03155
-2.02086
-2.02495
-2.02946
-2.0358
-2.80413
-2.5019
-2.4656
-2.45842
-2.45588
-2.19744
-2.49051
-2.61067
-2.58954
-2.58001
-2.54611
-2.5836
-2.57281
-2.59837
-2.92904
-2.92871
-2.93838
-2.90688
-2.90722
-2.91565
-2.91699
-2.73082
-2.70185
-2.73134
-2.75832
-2.73219
-2.71708
-2.74478
-1.90275
-1.91036
-1.94306
-1.88058
-1.88969
-1.91303
-1.88851
-1.67834
-1.70802
-1.7073
-1.74354
-1.71851
-1.70733
-1.73544
-1.24112
-1.18567
-1.21805
-1.27205
-1.30305
-1.23836
-1.24455
-0.998695
-1.00656
-1.0219
-1.03879
-1.01254
-1.03746
-1.00644
-0.967707
-0.946239
-0.963438
-0.98542
-0.89951
-0.931269
-0.937985
-1.07852
-1.02364
-1.00337
-1.3173
-0.908532
-0.919709
-1.15827
-0.623816
-0.754012
-0.766326
-0.911057
-0.695057
-0.845747
-0.625543
-0.835081
-0.775065
-0.839845
-0.913295
-0.886364
-0.830494
-0.885648
-0.542783
-0.486716
-0.605174
-0.592025
-0.483463
-0.506565
-0.603752
4.8393
4.33138
4.77339
5.55506
4.51186
4.3788
5.13139
167.074
199.376
170.265
208.066
190.711
192.209
185.349
187.881
170.028
205.014
185.222
195.384
184.313
175.215
276.926
152.622
145.467
161.382
15.1921
12.5287
18.669
10.2965
10.693
12.5606
10.5384
-1.37948
-1.39569
-1.54043
-1.28418
-1.28487
-1.35013
-1.40039
-1.77433
-1.79995
-1.75228
-1.69039
-1.68562
-1.74218
-1.72834
-1.78273
-1.82923
-1.86475
-1.79077
-1.7559
-1.79965
-1.83558
-1.98085
-2.00901
-2.03517
-1.97183
-2.07721
-1.98486
-2.00848
-1.89211
-1.87844
-1.89313
-1.89377
-1.90906
-1.91418
-1.89928
-1.8935
-1.87245
-1.88845
-2.21115
-2.2385
-2.23059
-2.2216
-2.23416
-2.2387
-2.2199
3.04372
1.48777
-15.9449
0.474791
-4.2509
-5.62577
-2.39114
-2.50953
-2.85045
-2.46429
-2.10626
-2.59822
-2.45596
-2.68455
-2.12224
-2.13585
-2.12431
-2.13274
-2.13078
-2.10702
-2.09107
-2.37667
-2.39951
-2.40587
-2.43178
-2.4117
-2.4143
-2.39311
-2.48357
-2.50491
-2.50885
-2.53403
-2.5137
-2.51892
-2.49814
-2.90205
-2.89064
-2.91106
-2.90755
-2.91471
-2.9376
-2.89731
-2.91886
-2.91762
-2.90177
-2.90805
-2.92831
-2.94056
-2.9556
-2.92353
-2.91999
-2.94188
-2.92315
-2.92792
-2.98688
-2.93911
-2.92905
-2.96114
-2.94622
-2.88983
-3.07579
-2.98699
-2.95759
-3.06613
-2.59845
-2.55984
-2.54232
-2.51672
-2.49133
-2.52971
-2.52309
-2.2401
-2.24196
-2.24744
-2.24031
-2.27577
-2.23604
-2.25793
-2.0423
-2.01477
-2.0006
-2.0397
-2.01294
-1.97808
-1.99552
-2.02781
-2.00111
-1.65509
-1.69534
-1.70986
-1.55909
-1.54644
-1.54601
-1.49979
-1.56844
-1.52706
-1.56807
-1.41058
-1.42002
-1.35731
-1.53304
-1.42096
-1.38401
-1.47568
-2.28727
-2.32746
-2.61889
-2.97122
-2.89708
-2.56448
-2.54437
1.1697
-0.247236
3.97021
1.54923
0.295877
-0.998193
2.9998
107.08
133.378
135.379
100.455
107.867
111.529
-1.52499
-1.47436
-1.4773
-1.43445
-1.47686
-1.45932
-1.51035
-1.72519
-1.78489
-1.63868
-1.54874
-1.60192
-1.68486
-1.6562
-1.85525
-1.84025
-1.83842
-1.83943
-1.82226
-1.81395
-1.83128
-1.86318
-1.84864
-1.84069
-2.36578
-2.41147
-2.4496
-2.32657
-2.28634
-2.36713
-2.36994
-1.64569
-1.69407
-1.74455
-1.82286
-1.83396
-1.80285
-1.74515
-1.30106
-1.23075
-1.22718
-1.24648
-1.36221
-1.30946
-1.41487
15.147
8.52838
7.13452
-1.5698
16.698
9.36943
-3.70339
-1.94568
-1.90609
-1.94219
-1.98557
-1.95759
-1.93665
-1.96768
-2.13796
-2.1564
-2.13926
-2.1095
-2.13646
-2.14348
-2.12335
-2.0376
-2.01028
-2.04005
-2.04128
-2.06281
-2.02498
-2.05069
-2.31438
-2.34426
-2.3239
-2.28615
-2.3096
-2.3286
-2.30713
-2.29536
-2.31936
-2.32367
-2.34884
-2.32815
-2.33274
-2.31065
-2.84126
-2.86564
-2.85137
-2.80932
-2.822
-2.83749
-2.82403
-2.50422
-2.49476
-2.48582
-2.51305
-2.51878
-2.50511
-2.49718
-2.37447
-2.39623
-2.39936
-2.41508
-2.40009
-2.40755
-2.38903
-2.19546
-2.2144
-2.19311
-2.2042
-2.18271
-2.19771
-2.22097
-2.226
-2.19663
-2.22602
-2.19488
-2.16103
-2.22104
-2.19696
-1.99921
-2.0009
-1.966
-1.9733
-1.99679
-1.95849
-1.99539
-1.96193
-2.00615
-1.98275
-1.72206
-1.69554
-1.72872
-1.75349
-1.72033
-1.70694
-1.73666
-1.73472
-1.74704
-1.76245
-1.7247
-1.74393
-1.72747
-1.75025
-1.73279
-1.76274
-1.78844
-1.68118
-1.71284
-1.73671
-1.73713
-1.5979
-1.61277
-1.66482
-1.60508
-1.53658
-1.55783
-1.62206
-1.11677
-1.07074
-1.13031
-1.1162
-1.11336
-1.08764
-1.11087
-1.21405
-1.23254
-1.20312
-1.21594
-1.18941
-1.23237
-1.20035
-4.14844
-3.54956
-4.50038
-2.5372
-4.45232
-3.97747
-3.646
12.0319
11.365
11.7745
10.5044
13.8068
10.1003
13.2511
36.5909
58.2484
59.6437
81.9177
64.6094
71.3288
51.3624
86.5383
86.2145
93.7853
68.4595
68.23
84.2044
84.9823
66.7231
66.986
80.9205
79.0873
91.9028
74.076
61.3169
63.9904
53.5213
35.4838
71.573
53.1433
5.71584
4.59583
3.26266
0.694447
1.66531
0.328582
-0.158795
-0.800168
-0.801193
-0.834136
-0.76499
-0.778037
-0.798519
-0.822561
-1.35874
-1.40619
-1.34109
-1.34756
-1.36746
-1.39798
-1.3474
-1.41599
-1.40405
-1.44642
-1.39553
-1.36742
-1.42068
-1.39564
-0.799625
-0.86883
-0.828768
-0.917429
-0.865066
-0.876466
-0.848236
-1.70141
-1.65461
-1.7817
-1.61386
-1.5344
-1.66637
-1.64403
-2.83662
-2.881
-2.82603
-2.79828
-2.74656
-2.85041
-2.76976
-3.53149
-3.38938
-3.2437
-3.33735
-3.18651
-3.47195
-3.40958
-3.94565
-3.8691
-3.90461
-3.89921
-3.98392
-3.83002
-4.0464
-1.85727
-1.92342
-0.913429
1.33416
-6.92514
-2.8056
-2.1352
-1.82227
-1.87649
-1.84028
-1.77768
-1.80457
-1.83613
-1.80957
-2.4376
-2.44117
-2.46592
-2.4404
-2.41296
-2.42901
-2.45568
-2.60974
-2.66182
-2.63998
-2.6713
-2.64442
-2.6519
-2.62384
-2.15571
-2.17629
-2.19048
-2.17702
-2.14791
-1.31584
-1.30286
-1.30523
-1.2942
-1.31234
-1.29889
-1.31375
-1.27856
-1.26424
-1.26211
-1.26032
-1.23087
-1.26497
-1.24924
-2.49748
-2.53887
-2.37489
-2.44404
-2.55333
-2.58907
-2.12513
-1.09079
-0.878452
-1.64568
-2.75121
-2.19239
-2.18979
-2.1409
64.0719
54.9331
72.3734
-1.47734
-1.45274
-1.47892
-1.49107
-1.51183
-1.49894
-1.47776
-1.58695
-1.56542
-1.56285
-1.56493
-1.54378
-1.52918
-1.55141
-1.47574
-1.46492
-1.44036
-1.59725
-1.57795
-1.56621
-1.08557
-1.06138
-1.0478
-1.02524
-1.04563
-1.08455
-1.06326
-1.0465
-1.06778
-0.967735
-0.989461
-0.966689
-0.98868
-0.967917
-0.957588
-0.974263
-0.967627
-0.997385
-0.946759
-0.96487
-0.966003
-0.983856
-0.997539
53.891
58.4277
76.3985
48.6927
30.7868
43.5739
62.0706
71.3115
71.6035
85.6814
68.6373
53.984
53.6992
30.6142
48.6312
75.9185
58.2419
43.7804
62.0508
71.6089
71.035
85.321
67.844
53.5613
-0.635476
-0.691107
-0.670584
-0.751331
-0.710978
-0.719753
-0.59616
-1.05717
-1.10383
-1.0556
-1.03444
-1.03106
-1.07297
-1.04712
-1.64347
-1.61462
-1.60215
-1.54156
-1.56852
-1.57762
-1.59784
-1.87487
-1.83559
-1.8107
-1.76133
-1.77117
-1.80844
-1.82202
-1.66411
-1.68947
-1.72274
-1.77607
-1.79179
-1.72106
-1.73452
-2.52491
-2.45585
-2.59462
-2.68375
-2.72227
-2.55011
-2.59219
-4.09892
-4.21979
-4.10693
-4.27131
-3.91831
-4.26534
-4.04057
-1.6462
-1.62561
-1.61396
-1.57966
-1.5975
-1.60029
-1.6194
-2.53451
-2.55632
-2.59547
-2.49871
-2.51147
-2.53253
-2.53013
-2.76279
-2.73401
-2.76617
-2.77089
-2.7991
-2.7479
-2.78076
-2.82219
-2.77791
-2.73403
-2.7719
-2.79904
-2.5687
-2.60084
-2.55997
-2.51148
-2.56407
-2.57453
-2.59878
-2.5454
-1.32201
-1.32267
-1.32474
-1.32166
-1.31624
-1.31969
-1.32255
-1.38671
-1.38995
-1.38363
-1.32044
-1.40525
-1.35232
-1.4132
-9.69857
2.36608
14.7819
-9.47152
-7.21733
-8.15428
-1.00608
-2.99854
-2.75777
-2.87217
-2.52561
-2.42814
-2.74583
-2.68962
-3.78368
-3.42402
-3.66976
-3.49629
-3.9579
-3.47559
-4.05577
-3.01738
-2.8597
-2.68963
-3.12694
-3.02208
-2.90782
-2.9753
85.8592
67.1079
61.9909
85.8825
67.2577
71.2028
52.9849
83.0039
82.8975
90.1384
64.4195
63.8006
70.4204
71.0788
73.3119
92.4664
73.8202
-0.71261
-0.817292
-0.724921
-0.646384
-0.753175
-0.733262
-0.491594
-0.847175
-0.834107
-0.889063
-0.830799
-0.87949
-0.844249
-0.881502
-1.21468
-1.18014
-1.2021
-1.2401
-1.21607
-1.19104
-1.21602
-1.21642
-1.22901
-1.25327
-1.10231
-1.12385
-1.12808
-1.04239
-1.03122
-1.01233
-1.16391
-1.12738
-1.10294
-1.12279
-1.14538
-0.961498
-0.929453
-0.951674
2.18282
0.711059
3.10005
4.00976
3.87156
-0.0428089
2.7243
69.6072
60.1072
89.5569
52.0161
68.1255
69.625
65.5205
67.6918
87.6686
78.3764
78.5179
56.709
56.1355
56.4547
44.5433
24.7465
64.4371
41.0692
59.7187
50.8432
69.2898
-0.316748
-0.464157
-0.727721
-0.55548
-0.260224
-0.312304
-0.477755
-0.77837
-0.745442
-0.77
-0.81669
-0.794484
-0.787662
-0.79985
-1.29451
-1.36843
-1.28152
-1.53038
-1.39216
-1.35006
-1.40268
-2.27731
-2.16199
-2.27654
-2.05823
-2.0514
-2.18468
-2.17492
-4.12359
-4.25602
-4.33998
-4.55478
-4.27022
-4.5064
-4.12855
-1.12058
-1.11656
-1.16087
-1.07184
-1.11845
-1.07382
-1.15629
-1.4434
-1.43855
-1.46016
-1.44589
-1.42809
-1.43428
-1.45335
-1.88981
-1.85876
-1.8809
-1.90982
-1.8965
-1.87523
-1.89363
-2.03976
-2.0633
-2.06727
-2.09143
-2.07503
-2.07772
-2.05926
-2.23464
-2.23472
-2.21273
-2.25571
-2.24278
-2.2463
-2.22886
-2.45016
-2.45519
-2.47522
-2.44706
-2.43344
-2.4401
-2.45722
-2.75858
-2.75436
-2.77983
-2.76251
-2.73131
-2.73919
-2.767
-2.88993
-2.87324
-2.89458
-2.90145
-2.92086
-2.89139
-2.88024
-2.85928
-2.89348
-2.93516
-2.9253
-2.88389
-2.8819
-2.84134
-2.88439
-2.87801
-2.85192
-2.83779
-2.87809
-2.83743
-2.86397
-2.89138
-2.93655
-2.91418
-2.90475
-151.161
-145.054
-134.436
-108.314
-137.796
-153.965
-185.319
-130.627
-126.032
-3.16033
-2.88286
-3.25435
-1.12587
-4.67645
-2.52328
-3.46497
-3.69142
-3.08819
-3.00987
-2.74649
-2.64315
-175.818
-142.43
-158.313
-485.616
-505.875
-485.87
-481.394
-466.626
-468.65
-475.071
-486.323
-504.784
-498.353
-512.903
-490.837
-486.907
-474.259
-487.987
-497.505
-471.467
-489.497
-477.807
-507.445
-486.387
-486.746
-454.409
-478.134
-484.748
-467.275
-493.767
-517.667
-504.765
-510.08
-498.392
-491.894
-502.987
-494.389
-483.335
-498.607
-492.306
-484.963
66.3582
-12.7579
5.38126
-16.5993
-25.4553
-17.9206
-47.5855
-2.90584
-2.91624
-2.91868
-2.93461
-2.92317
-2.91985
-2.9356
-2.941
-2.9239
43.7497
59.724
62.0797
83.8703
64.8514
58.6927
76.4869
83.9406
64.9477
71.882
70.5134
90.9101
48.1676
58.4968
34.6826
-2.91858
-2.89557
-2.91347
-2.94051
-2.92892
-2.92895
-3.95045
-3.78678
-3.90978
-1.32126
-1.34971
-1.33177
-0.952835
-0.936163
-0.900377
-0.969168
-3.96782
-3.90408
-4.24329
-2.03919
-2.04229
-2.06555
-1.32135
-1.31631
-1.34736
-2.29435
-2.27727
-2.14778
-3.98931
-3.81907
-3.85861
-3.82105
-2.34712
-2.32285
-2.32794
-2.04971
-2.03455
-2.0255
-2.00858
-1.98716
-1.95961
-1.94502
-2.04826
-1.31878
-1.32231
-1.31842
-1.28622
-2.40892
-2.56972
-2.56961
-2.52064
-2.41596
-2.3863
-2.41274
-2.26832
-2.30273
-2.65094
-1.32079
-1.32639
-1.29203
-1.32635
-1.96265
-1.90125
-2.08854
-2.04095
-2.11455
-2.07524
-2.00989
-1.97096
-2.02675
-1.94317
-2.42089
-2.59692
-2.45086
-2.28955
-2.63377
-2.32262
-0.953479
-0.953489
-0.962907
-0.970941
-0.976067
-1.00767
-0.990584
-0.986673
-2.15445
-2.13196
-2.15113
-2.1271
0.00856066
-0.212649
0.867628
-0.205068
-2.76198
-2.75922
-2.73192
-2.41771
-2.43315
-2.41929
-2.43495
4.08768
6.23177
5.12656
8.10136
0.018781
0.112707
0.0473352
0.0906927
-2.76688
-2.7519
-2.74689
-0.899783
-0.849235
-2.08342
-2.07389
-2.14543
-2.12159
15.76
15.867
14.4899
15.9834
-2.45256
-2.46064
-2.92843
-2.91364
-2.90931
-2.90087
105.584
81.3723
148.165
110.959
-2.70574
-2.639
-2.69453
-2.64241
-1.1226
-1.08136
-1.14686
-1.06971
-0.7013
-0.689297
-0.595171
-0.597418
-2.09881
-2.14674
-2.12579
-2.14426
-1.97527
-1.94664
7.66907
10.8397
9.45866
14.9043
0.453397
0.345477
0.423252
0.248613
-1.23466
-1.29952
-1.21324
-1.26709
-0.639653
-0.710034
-100.671
-92.4826
-2.84004
-2.81482
-2.86001
-2.82696
0.0325601
-0.040856
0.084082
0.015873
-0.0697858
-0.0194733
0.0218383
0.0759628
-1.84167
-1.81326
-2.78072
-2.79347
-2.77083
-2.79071
-1.99311
-2.06641
-1.97382
-2.07709
-2.83665
-2.86049
-2.79728
-2.78456
-1.38306
-1.42032
-2.19932
-2.18946
-2.1987
-2.18285
13.1142
6.92972
49.9622
12.0979
10.7131
39.4547
49.1458
-1.23255
-1.20837
-1.22591
-1.19384
-0.972097
-0.952628
-0.941249
48.4812
44.0457
15.4253
14.1916
42.8109
53.3183
-2.19714
-2.15401
-1.63238
-1.63541
-1.69016
-1.76223
-1.76826
-1.72859
-2.85678
-2.88436
-2.84815
-2.87965
-2.90271
-2.87613
-2.68545
-2.69232
-3.72518
-3.36714
-4.31501
-4.08873
-2.02135
-2.07878
-4.08412
-4.68927
21.1459
22.2536
21.9903
20.315
-3.64979
-3.61284
-3.49965
-3.49125
-0.984924
-0.99855
-0.647045
-0.646616
-0.987078
-0.968951
-1.41714
-1.39785
-1.81419
-1.84228
-11.5967
-4.25886
-0.441935
-0.506169
-0.555967
-0.63687
0.887786
-9.15287
-2.71331
-4.36361
27.5417
-12.8446
-4.34551
-4.1735
-4.54817
-4.34352
-0.439044
-0.440535
-0.326645
-0.321293
-0.472582
-1.28037
-2.39899
-2.41251
-2.38904
-2.40929
-2.09201
-2.08542
-181.047
-181.921
-142.65
-149.757
-2.10198
-2.09556
-2.05743
-2.06311
22.7686
21.9961
24.2879
21.2144
-4.78069
-1.83763
-5.22095
-4.16742
-0.945409
-0.958771
-0.711626
-0.687974
-1.20592
-1.18243
-1.19877
-1.15891
-0.407901
-0.306598
-0.466511
-0.444405
-2.17801
-2.18697
-2.14535
-2.14345
-2.57614
-2.56715
-1.94362
-0.263316
-2.81824
-2.81041
0.923554
0.874801
-395.431
1.13441
-7.62812
9.62515
6.04969
-2.2269
-2.21818
-2.22528
-2.21185
-2.21129
-2.19084
-1.4343
-1.46954
-2.04245
-2.05793
-1.4027
-1.40214
-1.36464
-1.36797
-1.05999
-1.10785
0.479977
0.588883
0.536133
0.64106
47.1744
38.1094
84.8863
-2.33768
-2.33886
-2.36233
-2.35614
-1.86269
-1.83711
-1.89411
-1.82216
-2.2561
-2.23329
-2.26906
-2.23437
-1.26809
-1.24482
-1.94092
-1.94816
-1.94236
-1.94862
-4.08624
-4.67047
-4.1008
-4.3223
-1.7825
-1.77014
-1.60241
-1.61726
-2.02282
-2.01873
-2.04972
-2.03965
6.02669
9.40692
-1.73395
-1.71692
-2.49339
-2.50188
-2.48705
-2.50322
-2.49434
-2.48355
14.9712
17.1838
16.3697
19.0491
-1.39064
-1.43245
-1.46206
-1.35757
-2.74563
-2.74486
-2.76637
-2.77495
-2.23304
-2.25599
-2.23406
-2.26885
-1.24969
-1.26168
-1.60989
-1.62071
-3.17063
-3.2203
-3.06489
-3.10889
-3.23466
-3.19061
-3.11441
-3.06918
-2.41522
-2.4454
-2.33516
-2.3542
-2.47055
-2.42059
-2.36596
-2.33301
-2.90093
-1.4453
-1.44508
0.357592
0.334433
0.361884
0.320155
-2.52514
-2.51598
-2.5056
-2.49753
18.6511
15.6292
32.1144
11.2829
-0.914265
-0.922124
-0.958739
-0.960823
0.3378
0.357659
0.32218
0.362211
-0.505648
-0.448761
-0.450721
-0.544832
-2.50339
-2.50478
-0.992371
-0.973248
11.6759
20.9696
-1.17828
-1.17773
-1.22217
-1.21497
-1.81828
-1.82584
-1.78706
-1.78923
0.144682
-3.55555
4.05508
6.64645
-78.2665
-83.1118
0.837034
0.75387
-2.94245
-1.26325
-6.88987
-0.768393
-2.05087
-2.04257
-2.47707
-2.48067
0.463879
0.497276
-1.25497
-1.19597
-1.1514
-1.08232
-72.624
-62.4921
-1.21428
-1.27049
-1.14183
-1.19698
-1.32066
-1.32085
-2.70758
-2.70428
0.450283
0.450297
-0.898764
-1.73424
-1.76351
-1.89125
-1.90807
-1.71086
-1.67249
-1.76061
-1.68983
-1.76826
-1.78089
-1.33373
-1.33094
-1.33355
-1.32802
-1.57317
-1.5579
-1.54253
-1.53367
-2.50602
-2.4959
-1.57325
-1.57514
-1.54557
-1.53561
-2.88846
-2.87914
-2.87922
-2.88853
-1.38789
-1.39408
-1.55536
-1.48392
-0.42213
-0.411831
-1.24068
-1.17841
-1.23716
-1.25983
-2.32959
-2.32948
0.912592
1.5129
3.77489
1.34565
-2.23472
-2.2884
1.20154
1.25054
1.22452
1.26992
1.1931
1.17978
1.25836
1.20724
-1.2929
-1.22849
-2.1016
-2.09851
-1.44889
-2.0289
-0.592997
-0.256505
-3.0003
-2.84086
-3.28002
-3.06967
-2.21211
-2.32555
-2.13392
-2.14445
-1.04512
-1.01408
-1.05265
-1.02694
-4.29203
-4.04103
1.85596
3.78698
0.537787
9.98392
-0.864733
-0.922724
-0.731931
-0.908444
-1.16661
-1.16222
-1.67861
-1.71813
-1.69498
-1.76378
-1.85923
-1.83175
-1.87344
-1.83494
-2.17797
-2.13104
-2.21405
-2.17576
-2.71565
-2.72643
-2.49429
-2.50414
-1.08168
-1.09177
-1.12434
-1.1218
-2.49433
-2.50414
-1.91337
-1.92088
-1.89771
-1.90782
-1.35345
-1.23164
11.0043
12.7075
-1.28651
-12.0484
-13.3085
-11.2667
-3.09268
-2.92275
-48.3718
-40.9123
-77.0266
-75.4523
-2.06753
-1.07034
-1.06211
-1.06455
-2.12373
-2.11525
-1.75443
-1.76239
-1.79329
-1.78916
-0.201069
-0.181145
-0.21168
-0.173862
-1.93561
-1.91154
-1.91481
-1.89787
-1.12873
-1.12027
-2.53794
-2.52686
-0.944223
-0.985045
0.631604
0.642961
0.65177
0.656071
0.643371
0.639306
0.670612
0.661416
-2.53793
-2.52681
-2.46411
-2.46892
-1.75935
-1.75812
-2.68041
-2.67932
-2.69655
-3.88857
-3.98513
-2.6914
-2.87721
-2.23958
-2.25127
-2.49657
-2.56233
-2.23992
-2.08713
-2.20977
-2.02238
-1.63688
-2.24143
-1.77744
-3.91855
-417.579
-405.311
-2.4264
-2.42025
-1.33302
-1.30464
-1.08734
-1.10945
-1.19148
-1.08605
-0.252786
-1.54825
-2.44735
-2.48319
-0.844983
-0.221544
-0.960192
-1.07899
-2.17903
-2.1892
-2.19727
-2.18071
-2.21004
-2.2166
5.18773
7.64006
-3.92547
-3.95188
-2.41297
-2.42287
-2.3969
-2.41116
-344.98
-348.9
33.8188
31.5792
34.7615
24.4347
-2.45551
-2.48313
-2.45761
-2.45967
-1.93262
-1.97065
-1.96818
-2.02848
-1.78808
-1.85897
-0.914282
-0.921651
-0.90501
-0.937766
-1.83435
-1.84123
16.1987
-0.99807
-0.961016
16.5784
-0.699609
-0.754262
-2.74488
-2.63305
-2.58071
-2.50907
-2.4398
-2.4364
-2.61822
-2.60777
-2.61173
-2.59626
-2.45788
-2.45987
-2.14785
-2.12847
-388.869
6.62188
4.9751
4.75428
0.947864
0.0655625
-1.42191
-1.38857
-2.05081
-2.05256
-2.50076
-2.50679
-2.08062
-2.09081
-2.12454
-2.50093
-2.5069
-2.18839
-2.19979
-2.59375
-2.58373
-5.31826
-5.40151
-0.717269
-0.707325
-1.25409
-1.24206
-1.22471
-1.23445
-2.04599
-2.06584
-0.320818
-0.925317
1.46372
2.38138
-1.32631
-1.32312
-3.78619
-4.19065
-3.56503
-4.65176
-1.1027
-1.12002
-0.84884
-0.88568
-1.40683
-1.22723
-0.885166
-0.906266
-2.47895
-2.48883
-2.47858
-2.48856
-0.128315
0.0758631
-1.81173
-1.84571
-0.676411
-0.776081
-1.47172
-1.46254
-2.70879
-2.71923
-1.80434
-1.831
0.0286683
-0.079097
-1.22067
-1.2546
1.48163
0.997667
-0.937377
-0.924777
-1.85812
-1.8234
0.097319
0.116811
-1.88199
-1.83846
-1.65049
-1.62503
-1.65039
-1.60499
0.0472485
-0.563446
-1.62433
-1.65018
-1.61026
-1.64927
-1.73441
-1.72167
-1.35817
-1.38192
-1.91546
-1.8578
-0.147116
-0.228639
-2.63552
-2.63126
-2.75954
-2.74627
-2.63553
-2.63126
-2.05873
-2.07715
-2.0587
-2.07723
-3.52452
-3.40186
-3.52649
-3.42012
5.30757
5.90411
-2.51972
-2.51206
5.00832
5.74527
-0.901495
-0.907269
-0.905973
-0.907618
-2.29234
-2.23772
-1.70727
-1.68807
-2.50388
-2.48822
-2.49912
-2.48272
-2.46135
-2.55296
-1.12221
-1.09842
-1.09107
-1.11801
-0.431593
-0.427705
-4.19446
-4.10397
-3.19651
-3.91229