/*--------------------------------*- C++ -*----------------------------------*\
| =========                 |                                                 |
| \\      /  F ield         | OpenFOAM: The Open Source CFD Toolbox           |
|  \\    /   O peration     | Version:  v2012                                 |
|   \\  /    A nd           | Website:  www.openfoam.com                      |
|    \\/     M anipulation  |                                                 |
\*---------------------------------------------------------------------------*/
FoamFile
{
    version     2.0;
    format      ascii;
    class       volScalarField;
    location    "0.15";
    object      p_rgh;
}
// * * * * * * * * * * * * * * * * * * * * * * * * * * * * * * * * * * * * * //

dimensions      [1 -1 -2 0 0 0 0];


internalField   nonuniform List<scalar> 
24700
(
2815.31
2795.56
2863.86
2781.55
2783.07
2872.86
2841.5
2826.71
2764.43
2762.87
2788.98
2791.42
2781.02
2812.54
2805.49
2800.39
2797.08
2845.46
2835.35
2795.2
2886.32
2880.8
2799.49
2797.96
2905.71
2840.22
2848.56
2821.19
2845.18
0.00724646
0.0126264
0.00256265
0.0134356
0.0167449
0.00684138
0.0116662
0.180981
0.190286
0.18716
0.191672
0.179725
0.189743
0.180137
0.704536
0.680713
1.16099
1.15273
0.725627
0.60067
1.32008
-1.59758
-1.71332
-1.66149
-1.76924
-1.82775
-1.67029
-1.73778
-0.247378
2.2765
0.193407
6.18923
12.1157
1.35626
1.97057
-0.210357
-0.199872
-0.196961
-0.222148
-0.220941
-0.20657
-0.205882
0.365113
0.305513
0.329306
0.267449
0.270295
0.312661
0.318468
1439.82
202.443
2704.07
1457.43
164.618
2102.64
2609.17
0.264802
0.274233
0.24188
0.290499
0.280023
0.276004
0.254529
-0.110123
-0.118353
-0.110814
-0.112874
-0.10089
-0.115733
-0.105446
-0.227033
-0.219551
-0.223449
-0.234813
-0.231388
-0.225356
-0.229678
-0.436025
-0.426746
-0.422344
-0.411302
-0.420125
-0.420682
-0.429923
-0.0403576
-0.0298944
-0.0356227
-0.0382216
-0.0423265
-0.0370758
-0.0360044
-0.0371655
-0.0329773
-0.0249853
-0.0103976
-0.00584851
-0.0118857
-0.0157297
-0.0215063
-0.0123133
-0.0175356
-0.00965857
-0.00922994
-0.00206524
-0.00781797
-0.0146039
-0.0380996
-0.0319822
-0.0328817
-0.0259206
-0.0312003
-0.0349581
-0.0294749
-0.119505
-0.110654
-0.121294
-0.126697
-0.118746
-0.11435
-0.123782
1.9615
1.67581
1.97341
0.739792
1.74054
0.530527
1.2201
-0.0309532
0.000169781
-0.0382786
-0.249445
-0.0030385
0.107195
-0.211486
0.904797
0.8023
1.03525
0.996936
0.951851
0.927333
0.983429
0.867011
0.945855
0.920082
0.838542
0.813435
0.854473
0.86297
0.955246
0.978958
0.967703
0.972298
0.967155
0.972078
0.955436
0.996237
0.981929
0.998955
1.02146
1.01381
0.982447
1.00788
-0.418279
-0.413799
-0.469305
-0.5403
-0.515409
-0.483514
-0.47021
2.36367
1.93587
1.89238
2.30002
2.57287
2.43194
1.71669
1594.77
1451.7
1956.89
1437.43
1779.98
1876.02
1839.81
0.805969
0.708916
0.75967
0.742288
0.534183
0.812071
0.901603
0.0866269
0.108695
0.0866864
0.123764
0.131342
0.103704
0.119757
0.83339
0.636155
0.755719
0.702399
0.709875
0.347588
0.608952
0.595919
0.813142
0.816488
0.599484
0.474337
0.739649
0.725778
0.7334
0.752261
0.792118
0.754418
0.711192
0.73435
0.783216
4.33009
4.71481
3.14
3.89099
4.20876
2.85147
90.9747
90.422
89.9425
90.6429
88.8326
85.9467
12.3308
3.74191
4.22276
5.22016
1.83835
2.45293
5.89954
1.45617
0.978787
1.79177
1.52504
1.40298
1.12841
1.50551
1.10125
1.10529
1.03783
1.07702
1.09354
1.04124
1.08178
1.8226
3.19249
2.44954
1.76186
2.09236
2.45749
2.70191
1.66253
1.68643
1.43636
1.52557
1.39984
1.38905
1.38985
1.11704
1.1573
1.12324
1.08876
1.14272
1.12799
1.08732
0.638558
0.702266
0.615517
0.733436
0.722607
0.663351
0.670058
0.868219
1.95099
0.744062
9.19324
3.82119
1.87878
3.60865
0.380483
0.723976
0.588858
0.564535
0.480447
0.589879
0.34281
-0.0155259
-0.01507
0.0102192
0.0297241
0.042118
0.00296272
0.00835156
-0.164544
-0.174117
-0.172708
-0.178361
-0.169988
-0.175199
-0.166386
-0.205447
-0.196863
-0.20529
-0.205574
-0.214014
-0.201005
-0.209407
-0.178951
-0.179808
-0.170487
-0.180584
-0.187854
-0.175176
-0.182853
-0.111869
-0.106449
-0.104812
-0.0967184
-0.102774
-0.100445
-0.106676
-0.0783362
-0.0716244
-0.0802684
-0.0805584
-0.0871805
-0.0744456
-0.0809539
-0.0563875
-0.0578733
-0.0501924
-0.0667892
-0.0599763
-0.0560881
-0.0618259
-0.0562997
-0.0550674
-0.061626
-0.0529717
-0.046828
-0.0510346
-0.0565717
-0.032039
-0.0381245
-0.0329401
-0.0312933
-0.0260252
-0.0351124
-0.029591
-0.0589873
-0.0631583
-0.0571323
-0.0538799
-0.0604259
-0.061936
-0.055359
-0.110799
-0.118367
-0.110062
-0.101051
-0.112677
-0.115614
-0.10533
-0.151989
-0.147971
-0.159358
-0.158763
-0.13845
-0.141885
-0.158307
2143.7
1861.39
1241.9
2148.64
2147.29
1954.69
1165.2
0.403399
0.588463
0.403047
0.40119
0.400615
0.524159
0.39991
0.386684
0.329979
0.362853
0.324415
0.337884
0.364516
0.40577
0.740154
0.9331
0.645263
0.689975
0.644068
0.8825
0.719073
1.4093
1.40634
1.48232
1.85737
1.43502
2.93521
3.16683
3.45747
3.35931
1.98611
2.06013
2.42334
2.88861
3.94974
4.0875
3.85166
2.81625
2.36885
3.9847
3.50053
3.86389
4.09958
3.25966
1.65192
1.16943
1.22228
1.21978
1.14059
1.16427
1.16073
1.11068
1.34199
1.34663
1.2952
1.31813
1.36509
1.34669
1.29821
-1.844
-1.59922
-1.51447
-2.09689
-2.06619
-1.84012
-1.74633
-3.17359
-2.30121
-2.69979
-3.22889
-2.20685
-1.43839
-3.05175
-0.105193
-0.0868732
-0.0311988
-0.243127
-0.251446
-0.216244
-0.159
-0.18387
-0.193737
-0.202438
-0.219219
-0.212806
-0.205707
-0.198274
-0.203591
-0.198501
-0.207028
-0.209498
-0.20076
-0.199591
-0.209104
-0.254027
-0.262663
-0.262397
-0.270436
-0.262281
-0.267105
-0.258564
-0.235418
-0.238948
-0.241596
-0.246084
-0.245165
-0.240436
-0.249703
-0.129275
-0.130384
-0.123675
-0.136704
-0.131748
-0.132833
-0.127466
-0.00567691
-0.00914914
-0.00789984
-0.00986882
-0.00533779
-0.00900414
-0.00546718
-0.00118677
-0.00623592
-0.0027293
-0.00481335
0.00184587
-0.00541879
0.000480092
0.353748
0.337554
0.303362
0.291206
0.310758
0.304763
0.28263
0.28704
0.284506
0.29247
0.296323
0.316719
0.293881
0.335962
0.232119
0.212085
0.196298
0.158164
0.193441
0.188953
0.235214
0.135556
0.168822
0.102729
0.0441932
0.106907
0.168013
0.0771828
0.728079
0.664623
0.661089
0.906866
0.745919
0.724119
0.900403
0.818032
0.905683
0.835575
0.885146
1.01128
1.06827
0.88462
4.76637
3.23572
2.48549
8.47202
5.59969
3.59255
2.91546
34.7234
91.1411
73.1497
5.07713
18.7614
72.5267
8.88955
1.7552
1.92418
1.86854
1.76913
1.94468
2.01687
1.7614
-2.16625
-1.53128
-1.68714
3.5243
0.337756
-0.051499
-1.50349
920.98
825.541
952.145
860.424
761.123
916.046
949.577
1.36798
2.26602
3.28206
3.44086
3.23108
3.20439
3.18641
-0.410536
-0.388125
-0.392995
-0.399713
-0.374317
-0.38108
-0.405935
-0.276608
-0.289034
-0.285684
-0.291722
-0.282221
-0.290365
-0.278831
-0.329163
-0.329714
-0.333173
-0.315783
-0.324855
-0.327473
-0.321901
-0.328981
-0.328321
-0.317108
-0.337947
-0.330169
-0.272012
-0.263958
-0.26758
-0.274214
-0.272292
-0.26598
-0.2727
-0.267749
-0.254892
-0.268399
-0.275837
-0.260846
-0.22915
-0.236043
-0.241762
-0.233379
-0.229513
0.0157097
0.0151349
0.0218344
0.0152828
0.0104517
0.0124478
0.0185962
0.296671
0.259103
0.272536
0.322138
0.348568
0.298662
0.30468
0.191493
0.19998
0.194028
0.192749
0.184537
0.207355
0.198125
0.214175
0.199607
0.196159
0.189919
0.189187
0.189797
0.197427
0.246043
0.246329
0.242063
0.243796
0.249223
0.241581
0.246692
0.265916
0.264005
0.264295
0.266488
0.263338
0.26587
0.26415
0.0743656
0.333824
0.342812
0.116521
0.0032243
0.249329
0.128113
0.288438
0.34033
0.236204
0.255945
0.168197
0.276767
0.186889
0.366047
0.364609
0.406915
0.364534
0.35699
0.363874
0.392844
0.366556
0.358471
0.397365
0.365086
0.365907
0.779235
0.74728
0.732582
0.749265
0.714021
0.728325
0.76754
0.940793
0.954186
0.957599
0.976533
0.993486
0.967927
0.972759
2.78225
3.78069
1.83333
2.10414
1.68063
2.34118
3.04679
23.4233
7.74938
19.3251
12.3214
60.2001
6.83411
19.4065
2.48853
1.73371
2.46661
2.92294
2.74436
2.41393
2.63185
5.35943
1.92889
2.6835
4.41812
5.03654
1.27972
5.72724
5.73959
67.8868
240.677
12.6548
4.41998
3.11253
3.25404
-1.86478
-1.83938
-1.71736
-1.64159
-1.64133
-1.82553
-1.90267
-0.838665
-0.850715
-0.777139
-0.829865
-0.869784
-0.871733
-0.805684
-0.428623
-0.429464
-0.432681
-0.414633
-0.425285
-0.427529
-0.421027
-0.429418
-0.427888
-0.416201
-0.442112
-0.432294
-0.262435
-0.262712
-0.254158
-0.262291
-0.27047
-0.267141
-0.258627
-0.189361
-0.198099
-0.192665
-0.181216
-0.186933
-0.193072
-0.187539
-0.124122
-0.131845
-0.127719
-0.116911
-0.121526
-0.127355
-0.12262
0.00339872
0.00278561
0.000910042
0.00448502
0.00471578
0.00459482
0.00311055
0.0102907
0.00937005
0.0087582
0.00270479
0.00558947
0.0103783
0.00102783
0.00959146
0.00880879
2545.89
2593.07
2528.77
2605.05
2535
2605.38
2543.07
0.0840159
0.150723
0.184019
0.201225
0.197176
0.16384
0.143208
0.151222
0.152817
0.158309
0.147945
0.145728
0.149641
0.152203
0.202499
0.203643
0.210188
0.203598
0.199712
0.206555
0.200654
0.22576
0.230924
0.224475
0.22193
0.222576
0.227084
0.225695
0.271308
0.277412
0.291478
0.269693
0.251447
0.253872
0.34466
0.21115
0.10684
0.0674804
0.111821
0.149251
0.135795
0.197559
0.349469
0.472431
0.463693
0.365912
0.443317
0.39309
0.302275
0.52686
0.434274
0.450853
0.478811
0.4788
0.476352
0.539552
13.2949
11.2569
42.7637
8.03843
3.45113
5.21284
15.1292
99.5342
98.763
99.2752
98.7861
98.2527
99.0571
99.0508
98.234
98.2491
98.0269
97.6374
98.1433
97.544
97.9918
98.1675
99.452
99.2599
5.53029
5.1852
6.51732
5.60523
4.87418
4.9025
5.78003
20.8396
19.184
19.9079
25.9865
21.4713
21.1054
22.1408
68.8017
27.1505
60.9282
33.8305
22.2674
36.461
49.867
120.582
55.8882
58.1333
72.3427
80.1684
65.572
141.226
-0.56135
-0.56196
-0.539424
-0.544431
-0.472953
-0.511205
-0.563002
-0.459715
-0.472122
-0.465555
-0.466973
-0.468951
-0.477653
-0.46957
-0.47006
-0.454981
-0.463325
-0.174551
-0.17992
-0.182434
-0.191554
-0.18663
-0.186427
-0.181503
0.0383741
0.101092
0.0453834
0.0215082
-0.0129455
0.0153643
0.0329812
0.0794776
0.0426335
-0.00257795
0.0186716
0.0264792
-0.0616083
0.0217357
0.0388634
0.104932
0.0341476
0.0267718
0.00730458
-0.0315577
-0.00834323
-0.0050854
-0.01465
-0.00773396
0.0158965
0.00348623
0.0242569
0.0149693
-0.0254915
0.00989064
0.106102
0.108988
0.102779
0.0984578
0.09676
0.10414
0.101767
0.198503
0.191576
0.193231
0.188409
0.191975
0.188415
0.194257
0.238936
0.280872
0.221553
0.248338
0.238491
0.246767
0.242113
0.498705
0.492436
0.483625
0.515587
0.47846
0.526475
0.488978
0.407228
0.439359
0.441529
0.439611
0.368695
0.421103
0.41317
0.988483
1.11754
0.971098
0.951926
0.929695
1.008
0.89244
0.906207
0.981274
0.92479
1.01812
1.14325
0.987475
1.1199
1.74813
1.70728
1.71353
1.82794
1.71111
1.81637
1.68191
98.1789
98.5371
98.2794
95.6079
96.4595
94.9496
95.7737
95.9611
95.1703
94.9557
94.9207
96.2553
97.2184
96.6777
96.2793
0.819182
-2.40638
-3.69015
-3.77931
-4.18063
-3.0456
-2.28088
-3.2454
-3.08491
-3.12258
-3.001
-2.69416
-3.01025
-3.17434
-1.10952
-1.11674
-1.16645
-1.21935
-1.31405
-1.22901
-1.3869
-0.971596
-0.914164
-0.964391
-0.947001
-0.947789
-0.913582
-0.878989
-0.759864
-0.834741
-0.784776
-0.806704
-0.86098
-0.828071
-0.845977
-0.60751
-0.629952
-0.634491
-0.577098
-0.556661
-0.62613
-0.588314
-0.59093
-0.582621
-0.591021
-0.589049
-0.601497
-0.586241
-0.597181
-0.528067
-0.53812
-0.539743
-0.545403
-0.541413
-0.54373
-0.535909
-0.539447
-0.528456
-0.537959
-0.549823
-0.541104
-0.53572
-0.544901
-0.56947
-0.564355
-0.573005
-0.57292
-0.571725
-0.570197
-0.571928
-0.612339
-0.617785
-0.614455
-0.588867
-0.609696
-0.60578
-0.603988
-0.399573
-0.374244
-0.392461
-0.38614
-0.410719
-0.380201
-0.405442
-0.461869
-0.182774
-0.435844
-0.672742
-0.486693
-0.487971
-0.612579
0.777955
1.41332
2.01095
0.380192
0.355235
0.531018
0.822087
0.00263837
0.00691597
0.00747179
0.00985528
0.00160893
0.0140702
0.00282796
0.00551472
0.00145324
0.0100659
0.0294347
0.0282312
0.0233857
0.035722
0.0287301
0.027325
0.0340535
0.178298
0.177534
0.184327
0.175566
0.177527
0.177017
0.178719
0.767369
0.782184
0.738213
0.741041
0.747477
0.774982
0.76411
0.196337
0.151141
0.264683
0.282972
0.278427
0.134151
0.154721
0.470139
0.48915
0.466342
0.496024
0.497968
0.492863
0.489886
-2.23373
-2.33959
-2.37177
-2.10971
-2.16516
-2.19485
-2.29251
-2.14564
-2.36199
-2.29554
-1.88872
-1.95717
-2.15042
-2.1366
-1.75966
-1.7192
-1.82886
-1.65173
-1.60108
-1.67043
-1.73451
-0.307089
-0.426597
-0.310697
-0.429274
-0.377063
-0.382381
-0.313251
-0.664467
-0.67639
-0.669877
-0.67586
-0.66304
-0.675397
-0.664773
1.22523
4.95888
0.646338
0.243943
0.164032
2.8928
0.133989
0.269119
0.192204
0.229137
0.434257
0.382837
0.341531
0.383349
0.00231587
0.00264078
0.000324831
0.00608498
0.00573955
0.00466793
0.00332953
0.0283669
0.0352479
0.0241476
0.0235458
0.0312833
0.0334915
0.0241909
0.344635
0.282932
0.286264
0.315369
0.298711
0.294344
0.348239
0.326002
0.314712
0.317269
0.308622
0.315258
0.315407
0.305689
0.295945
0.336231
0.281408
0.266391
0.255958
0.296125
0.282974
0.366511
0.324282
0.316951
0.315799
0.348047
0.337541
0.374765
0.405338
0.528802
0.415835
0.408003
0.515929
0.381134
0.433668
0.285026
0.308367
0.355894
0.0798765
0.461375
0.432299
0.220995
0.350152
0.353947
0.427676
0.313201
0.485758
0.137347
0.358509
0.187714
0.181197
0.184905
0.0807451
0.00100253
0.0217605
0.11024
0.191451
0.267114
0.16347
0.168236
0.256784
0.242875
0.18447
5.2269
4.75394
5.26411
5.98823
4.92471
4.81008
5.6251
210.769
234.468
225.624
222.181
222.654
215.609
226.072
236.566
206.293
209.611
198.992
209.173
207.144
207.226
305.685
194.792
182.104
188.745
17.9172
14.966
22.3126
13.619
15.2251
17.2926
13.8553
-0.898133
-0.910903
-1.03635
-0.809286
-0.82776
-0.880019
-0.910739
-1.06098
-1.09525
-1.08641
-1.03015
-1.00578
-1.06417
-1.0283
-0.954875
-0.990911
-1.00526
-0.892522
-0.88147
-0.906243
-0.918584
-0.876674
-0.934288
-0.956528
-0.837045
-0.834433
-0.936139
-0.802165
-0.678693
-0.683392
-0.67788
-0.680248
-0.677239
-0.671194
-0.67428
-0.681298
-0.687777
-0.685237
-0.752594
-0.799499
-0.794641
-0.784363
-0.820341
-0.81404
-0.772077
2135.66
2140.27
2129.85
1076.01
1834.91
1991.97
1392.6
4.12877
9.84442
0.437877
2.11711
0.258067
11.835
5.40513
0.300223
0.229886
0.260626
0.253346
0.226108
0.249423
0.329291
0.139801
0.13536
0.132432
0.127304
0.129012
0.132159
0.135069
0.109091
0.106146
0.103062
0.096694
0.0986225
0.101752
0.104134
0.00600974
0.00822369
0.00619472
0.00173272
0.00377056
-0.000727997
0.00277937
-0.000365151
0.000879787
-0.0230804
-0.0117747
-0.0227742
-0.0134397
-0.0458375
-0.0149608
-0.0285867
-0.00394505
-0.00459777
-0.00796786
-0.0639518
-0.0346021
-0.00639207
-0.0235604
-0.00185153
0.244597
-0.0254798
-0.0583515
-0.028585
-0.0915604
0.398643
0.335801
0.428585
0.418309
0.473769
0.246788
0.390232
0.273508
0.372165
0.265683
0.409601
0.302936
0.399964
0.301381
0.230713
0.240146
0.244736
0.23334
0.241908
0.247194
0.248026
0.234113
0.242465
0.338826
0.31697
0.311649
0.33866
0.33244
0.331776
0.35654
0.303798
0.336988
0.314607
0.108012
0.0977452
0.13805
0.0112761
0.102001
0.136308
0.0766534
-1.52623
-1.59121
-1.86032
-2.02734
-2.04758
-1.81027
-1.74841
3.197
2.14124
5.88628
7.10191
6.31288
2.59002
7.32575
140.747
157.814
141.468
143.236
132.158
134.99
-0.931078
-0.901359
-0.90755
-0.861271
-0.866814
-0.88006
-0.895918
-0.788794
-0.899183
-0.86288
-0.809923
-0.868687
-0.909279
-0.82067
-0.695521
-0.699106
-0.698967
-0.697432
-0.69931
-0.701507
-0.699453
-0.693092
-0.696579
-0.698366
-1.11234
-1.13085
-1.27778
-1.13956
-1.03623
-1.10846
-1.18819
-0.035367
-0.0966904
-0.1461
-0.249588
-0.24755
-0.217487
-0.150277
1.56871
1.99628
0.975319
0.903519
0.644424
1.21346
0.888921
1532.8
1849.25
1522.14
1622.57
1945.65
1869.48
1836.14
0.26742
0.279971
0.253448
0.232507
0.231683
0.242327
0.229916
0.201071
0.198368
0.185582
0.203176
0.193613
0.187774
0.189298
0.207476
0.216463
0.20383
0.205734
0.202601
0.211831
0.203874
0.151026
0.14592
0.147888
0.157656
0.152562
0.149123
0.152188
0.148153
0.142551
0.140995
0.136041
0.138331
0.140175
0.143871
-0.00944036
-0.0144153
-0.0115874
-0.00402956
0.00162341
-0.00737451
-0.0122276
0.190525
0.195427
0.186296
0.181326
0.194749
0.195206
0.182417
0.174956
0.154912
0.147575
0.156249
0.153174
0.153787
0.16258
0.198019
0.197535
0.199168
0.198284
0.200774
0.196184
0.191283
0.194168
0.195865
0.194258
0.196127
0.211782
0.188701
0.194578
0.241597
0.241446
0.256484
0.249469
0.244124
0.256685
0.247225
0.253706
0.246267
0.251848
0.315013
0.314289
0.317774
0.300457
0.309791
0.311802
0.31286
0.189625
0.175356
0.18073
0.167683
0.176857
0.159025
0.175277
0.0592836
0.0956577
0.0672859
0.11415
0.101308
0.0880032
0.121876
0.206396
0.193277
0.124737
0.179623
0.404235
0.301772
0.113643
0.320864
0.354178
0.306299
0.339914
0.325032
0.343426
0.332475
0.232926
0.3002
0.245821
0.29101
0.332056
0.322143
0.217629
0.814101
0.018326
1.97815
14.4819
13.1847
0.348776
6.48822
25.675
60.3316
57.6766
20.7835
28.1131
32.9719
41.3678
94.4434
97.6276
96.2251
95.991
97.0737
97.4896
95.8604
98.8884
98.5638
98.7743
99.2016
98.9488
98.237
99.1192
98.9165
99.4009
98.0771
96.142
96.9822
97.521
96.5706
99.3873
98.3962
95.2324
99.0386
98.9013
44.366
20.3855
12.6878
9.89934
13.0964
9.88406
16.423
-0.465426
-0.37959
-0.411621
-0.431286
-0.468166
-0.441422
-0.446844
-0.730516
-0.755507
-0.711603
-0.742635
-0.73541
-0.756173
-0.731407
-0.703935
-0.698596
-0.719167
-0.697153
-0.689322
-0.707676
-0.701566
-0.0815873
-0.376761
-0.308961
-0.457331
-0.522591
-0.352727
-0.384555
-0.903233
-0.916044
-1.00514
-0.898219
-0.795626
-0.876962
-0.838473
-1.72137
-1.76297
-1.71094
-1.73602
-1.6655
-1.7761
-1.67666
-1.92002
-1.77032
-1.69942
-1.80739
-1.66084
-1.9316
-1.79644
-0.36302
1.58902
-1.33545
-1.55957
-1.34866
1.82634
-0.463222
62.5196
31.1465
32.5951
290.627
487.88
56.8655
163.486
0.294717
0.316985
0.283623
0.341652
0.35775
0.349674
0.310032
0.101214
0.100824
0.0944715
0.0978717
0.106922
0.103245
0.0949647
0.242344
0.269793
0.32317
0.312642
0.320278
0.280618
0.227765
0.207356
0.207131
0.199672
0.204661
0.214841
0.21599
0.210613
0.203467
0.193523
0.193695
0.202749
0.206216
0.0880556
0.102583
0.097302
0.127216
0.144896
0.113666
0.124367
-1.77781
-1.60526
-1.44954
-1.76533
-1.84009
-1.87269
-1.13504
-0.279986
-0.17193
-1.03269
-2.12125
-1.53769
-1.48744
-1.21234
99.0186
99.0438
98.12
-0.705393
-0.699191
-0.705142
-0.708093
-0.710452
-0.708606
-0.705816
-0.721806
-0.718676
-0.717947
-0.718185
-0.715424
-0.711868
-0.7157
-0.705026
-0.703399
-0.697231
-0.721683
-0.720776
-0.718233
-0.645919
-0.64012
-0.640136
-0.637797
-0.639803
-0.644893
-0.641995
-0.640673
-0.643564
-0.633243
-0.636512
-0.6345
-0.635027
-0.631222
-0.634102
-0.631445
-0.632136
-0.63607
-0.612175
-0.630015
-0.624261
-0.631523
-0.63621
90.6572
91.4145
91.008
89.6373
87.5581
89.6874
90.2565
89.8445
90.5008
91.007
92.3531
91.0958
90.5435
87.3367
89.5549
90.531
91.2154
89.8706
90.2028
90.5171
89.881
90.6504
91.4983
90.1721
0.0686935
-0.13432
-0.282301
-0.423724
-0.284359
-0.258931
0.491231
-0.573414
-0.575838
-0.491652
-0.541222
-0.550305
-0.590538
-0.542324
-0.978096
-0.963054
-0.940037
-0.912361
-0.912235
-0.946351
-0.947648
-1.11331
-1.0615
-1.05315
-1.04244
-1.03285
-1.02008
-1.0707
-1.00098
-1.00475
-1.00737
-1.1318
-1.07752
-1.05204
-1.09352
-1.77167
-1.6839
-1.81872
-1.87871
-1.93559
-1.75752
-1.81801
-2.11846
-2.1151
-2.15993
-2.21621
-0.855677
-2.16097
-2.07444
0.325556
0.326726
0.338696
0.34723
0.348491
0.337121
0.337087
0.247193
0.176209
0.203387
0.277
0.208241
0.169769
0.270258
0.0675399
0.0779195
0.0663065
0.0627595
0.0529513
0.074404
0.0599308
0.0392145
0.0559082
0.0792357
0.0597637
0.0510145
0.126805
0.113054
0.125646
0.146551
0.12155
0.120972
0.115119
0.131707
0.0924564
0.112548
0.107543
0.134171
0.121178
0.105931
0.121195
-0.0991762
-0.100543
-0.0937176
0.00190308
-0.11142
-0.0505239
-0.123616
866.685
828.995
776.341
944.322
887.875
914.557
941.162
-2.43107
-2.20137
-2.29364
-1.9762
-1.8993
-2.20083
-2.13055
-3.03845
-2.79368
-3.04497
-2.86145
-3.29625
-2.86967
-3.28939
-2.48849
-2.34284
-2.16775
-2.54805
-2.41185
-2.3184
-2.4238
96.2821
95.9236
96.326
96.3041
96.0415
96.3389
96.4753
94.6343
94.5252
94.4077
94.3911
93.8325
92.9241
93.2921
95.3828
96.1444
95.833
0.613508
-0.491497
-0.125552
0.217719
-0.0904982
-0.0622271
1.63762
-0.39192
-0.373632
-0.395992
-0.449472
-0.436427
-0.506415
-0.482258
-0.664085
-0.65713
-0.660698
-0.669263
-0.663636
-0.656998
-0.663583
-0.662752
-0.666152
-0.672016
-0.646519
-0.649669
-0.649098
-0.63956
-0.637576
-0.637047
-0.657334
-0.6484
-0.64715
-0.648605
-0.652798
-0.620273
-0.574857
-0.603826
16.415
7.89893
10.2803
43.3567
14.5344
6.58861
17.2225
93.7574
93.5116
95.6673
93.2274
92.5356
93.7086
91.667
93.8815
92.7887
93.1287
93.2694
92.5156
91.9463
93.5163
92.8407
91.9943
92.3882
90.1455
94.664
94.8403
95.0314
0.553511
0.437765
0.348844
1.0505
0.571695
0.538845
1.22106
-0.432827
-0.410408
-0.425179
-0.440924
-0.36968
-0.380249
-0.431702
-0.820287
-0.88982
-0.825015
-1.02917
-0.908772
-0.880498
-0.915273
-1.64687
-1.53633
-1.62781
-1.45448
-1.42926
-1.56708
-1.53895
-3.21752
-3.27144
-3.43739
-3.0183
-3.27146
-3.29909
-3.24552
0.675088
0.602327
0.594431
1.11301
0.605327
0.713802
0.55199
0.286034
0.295159
0.291943
0.281383
0.280809
0.288127
0.287377
0.207299
0.216087
0.211443
0.209095
0.204319
0.212575
0.2113
0.181822
0.176643
0.177043
0.176014
0.174106
0.17624
0.176529
0.15814
0.159683
0.161635
0.16008
0.154783
0.160977
0.158196
0.173895
0.171957
0.170447
0.161973
0.163273
0.166256
0.16551
0.0733504
0.0754368
0.0683604
0.0672695
0.0800711
0.0792641
0.0698373
0.0181514
0.0256519
0.0227759
0.0121276
0.0111119
0.0166716
0.0260367
0.0286004
0.0200962
-0.00318942
-0.0006324
0.022378
0.0209913
0.043163
0.0200404
0.0248857
0.0325826
0.0393029
0.0265964
0.0396589
0.0315142
0.0225004
0.00276923
0.00674686
0.016183
2852.61
2838.91
2847.78
2853.55
2843.88
2830.03
2778.87
2830.9
2855.3
-0.249732
0.0432552
-0.348653
51.2552
14.7761
0.437574
-0.426568
2.24868
-0.109801
-0.0735091
0.171591
0.639996
2808.73
2871.82
2836.15
2807.52
2806.84
2808.53
2811.74
2806.94
2796.39
2809.55
2788.86
2789.98
2798.36
2802.12
2804.61
2807.85
2840.08
2807.46
2817.52
2793.46
2804.79
2806.7
2805.27
2806.75
2807.66
2810.63
2806.48
2808.39
2806.29
2801.68
2797.36
2791.96
2784.68
2776.79
2803.56
2812.04
2800.37
2831
2795.68
2772.62
2799.54
1557.97
672.191
2826.48
2887.54
2859.86
2667.33
2697.15
-0.018022
-0.0100237
-0.0106293
-0.00265029
-0.00959575
-0.0136323
-0.0109884
-0.00903727
-0.0103291
98.7902
96.3468
96.9387
94.8113
94.1346
95.0041
94.7091
94.7866
93.6802
92.88
92.4837
94.5214
94.2233
96.8517
100.7
-0.0142032
-0.0187791
-0.0182933
-0.00118405
-0.00799584
-0.00801915
-2.53571
-2.60439
-2.67723
-0.0732726
-0.101274
-0.0854398
0.462531
0.496322
0.488478
0.501801
-2.14167
-2.17378
-2.1888
0.203388
0.203847
0.198979
0.0315314
0.0785809
0.0869461
1.63309
3.22537
2.28587
-1.39007
-2.02672
-2.13887
-1.99271
0.138738
0.143523
0.138619
0.200684
0.203088
0.206505
0.210662
-1.15952
-0.949337
-1.11723
-1.15215
0.0627511
0.0543106
0.130398
0.0782908
-1.86317
-2.01512
-2.03031
-1.97986
-1.89849
-1.86409
-1.90015
-1.75453
-1.78477
-2.11054
-0.031673
-0.0681844
0.0362834
-0.0495711
-1.03177
-0.98977
-1.24536
-1.20228
-1.28321
-1.21721
-1.14488
-1.07169
-1.18505
-1.04325
-1.86384
-2.03407
-1.9288
-1.76789
-2.09789
-1.80159
0.580393
0.498183
0.509854
0.597089
0.447093
0.511411
0.700785
0.450582
0.185679
0.1862
0.18429
0.186236
5.73629
3.06285
7.79079
2.81014
0.017843
0.0138577
0.0210183
-0.249798
-0.241103
-0.250632
-0.242163
11.2088
37.5564
15.3769
28.8751
0.738505
0.743446
0.696739
0.695014
-0.08163
-0.0880306
-0.0917526
-0.541411
-0.500016
-1.15002
-1.17026
-1.16237
-1.18788
32.4543
32.4186
29.2458
26.3761
0.158733
0.162359
-0.00653174
-0.0130667
-0.0150022
-0.0186884
138.116
132.216
167.707
157.865
0.0794528
0.111565
0.0906674
0.108158
-0.687459
-0.672509
-0.686912
-0.663766
0.351061
0.361984
0.414538
0.413683
0.486564
0.437759
0.42008
0.40766
0.233172
0.278685
9.01801
11.7726
10.1456
15.8785
1.00057
0.908287
1.03583
0.91915
-0.63875
-0.774562
-0.692934
-0.765504
0.43172
0.35411
2844.07
2852.16
0.00330387
0.00954869
-0.00329196
0.00173104
0.935685
0.808181
1.06112
1.02986
0.670442
0.765649
0.761037
0.819205
0.276949
0.281445
-0.0303702
-0.0282288
-0.0297678
-0.0255523
-1.14684
-1.19754
-1.11502
-1.20975
0.0235182
-0.00533285
0.0608319
0.0621979
-0.0992373
0.022985
-0.463939
-0.472475
-0.460454
-0.472196
96.1186
67.0698
90.7652
88.055
79.972
93.0463
93.0517
-0.66747
-0.661685
-0.664886
-0.660407
-0.630594
-0.613553
-0.579413
95.8061
98.8528
82.2397
70.9572
95.1378
98.1402
0.335498
0.394788
0.343172
0.340147
0.323985
0.308252
0.302228
0.313148
0.0367084
0.027348
0.0397009
0.0125932
0.00792116
0.0117052
-0.12146
-0.117639
2.99771
4.73373
1.27337
2.46915
41.0106
44.848
6.90648
4.24743
25.7343
26.8153
32.848
27.5117
-2.47183
-2.44399
-2.36054
-2.36272
0.44214
0.340003
0.378542
0.383556
0.353988
0.323741
-0.708538
-0.70203
0.286062
0.281057
958.732
881.842
0.319552
0.252175
0.256447
0.146656
877.027
968.8
6.20461
5.60308
2233.35
2728.41
-3.08476
-2.93043
-3.21016
-3.05977
0.481456
0.500907
0.663563
0.663829
0.62975
0.0336575
-0.169514
-0.165102
-0.169965
-0.163095
0.196113
0.198767
2840.02
2839.15
2849.15
2832.36
0.177991
0.178678
0.186065
0.183837
23.623
23.1252
24.9932
22.5878
-1.92062
1.02702
-2.38273
-1.33364
0.625089
0.469377
0.0971012
0.195139
0.323256
0.312803
0.462907
0.328191
2.1177
2.07414
1.7447
1.34838
0.167074
0.164405
0.173948
0.172943
-0.180005
-0.184204
34.1332
14.5021
-0.052557
-0.0565298
1.64749
1.58546
2811.21
1247.39
1140.49
1495.23
1011.8
-0.421986
-0.430729
-0.421311
-0.434536
0.161416
0.167251
-0.369248
-0.424746
0.201318
0.198593
-0.15013
-0.14215
-0.0773455
-0.0824759
-0.635267
-0.645732
1.08739
1.12927
1.35627
1.30834
98.6911
109.516
135.069
-0.200422
-0.195121
-0.190803
-0.187327
0.241379
-0.0288035
0.256101
0.130806
0.149284
0.154461
0.147329
0.155187
0.0694694
0.123508
0.153419
0.15871
0.144473
0.156015
0.638773
-1.8582
-2.08303
-2.78147
0.247093
0.248148
0.271038
0.264155
-0.370473
-0.348372
-0.397175
-0.359926
9.33969
11.8975
0.314133
0.312229
-0.178785
-0.172725
-0.174331
-0.166753
-0.168411
-0.172173
28.9276
44.8601
46.627
115.867
1.34135
1.03552
1.12261
0.731947
-0.019307
-0.0232045
-0.0125507
-0.0166045
0.154716
0.149388
0.155496
0.147531
0.131245
0.104139
0.169952
0.130913
-2.04842
-2.03959
-1.84246
-1.82841
-2.08056
-2.08501
-1.87344
-1.85925
-1.3563
-1.18411
-1.20761
-1.09228
-1.51022
-1.43583
-1.40458
-1.3796
-0.0187441
-0.0750036
-0.170135
0.900478
0.901424
0.892802
0.877303
-0.199633
-0.20511
-0.215436
-0.219913
69.1499
44.7421
384.102
82.5152
-0.468813
-0.463713
-0.558327
-0.550814
0.894835
0.899044
0.877442
0.893144
0.641961
0.607857
2.03025
1.07874
-0.216993
-0.214616
0.456876
0.497276
64.747
89.3072
0.513706
0.50234
0.456178
0.463057
0.22944
0.230896
0.238763
0.237264
1999.75
2080.31
2093.54
2135.41
2832.94
2855.8
1.99928
1.45661
112.337
157.034
890.979
1670.83
-0.321067
-0.312688
-0.193281
-0.194307
0.986831
1.03201
0.107037
0.0770294
0.400693
0.464057
2868.14
2878.11
0.398027
0.246094
0.26493
0.20787
0.15069
0.138043
0.0999954
0.108474
1.01151
0.984551
-0.487916
0.267011
0.235217
0.338026
0.317823
-0.667806
-0.64138
-0.697619
-0.660982
0.154118
0.155256
0.190854
0.17547
0.199773
0.177919
0.302934
0.289078
0.328326
0.297365
-0.183431
-0.189136
0.260831
0.270722
0.26126
0.275625
-0.0218174
-0.0254635
-0.0255403
-0.0218804
2.00787
1.39013
1.33875
0.903346
0.324404
0.326683
0.460271
0.958348
0.231878
0.3945
-0.268439
-0.273169
3.71337
4.38387
23.1236
9.02304
-1.5796
-1.63809
1.48904
1.53253
1.51766
1.54938
1.51885
1.49188
1.6141
1.54293
-0.604268
-0.61971
-0.378913
-0.3605
117.527
131.239
183.812
190.656
-1.39196
-1.10853
-1.00097
-0.748872
-1.56197
-1.66273
0.467535
0.440039
-0.60009
-0.638659
-0.6456
-0.604725
-2.69616
-2.76888
2200.41
2182.62
2273.52
1968.51
0.481331
0.356987
0.440826
0.270278
0.520621
0.509102
-0.786349
-0.790552
-0.835093
-0.869602
0.256546
0.266052
0.250337
0.261068
-1.19132
-1.1237
-1.09418
-1.06631
-0.104853
-0.0995197
-0.107949
-0.0997857
-0.621934
-0.631753
-0.638571
-0.639312
-0.107995
-0.0997856
-0.639185
-0.637423
-0.662304
-0.706909
1.97973
0.642123
12.5816
14.0347
849.886
1310.55
1063.1
1278.62
-0.526961
-0.337135
2853.86
2848.06
2843.7
2852.36
0.201157
-0.642867
-0.640101
-0.642499
-0.53586
-0.543149
0.236756
0.234
0.231585
0.233078
0.577764
0.585452
0.578127
0.593896
-0.421142
-0.527663
-0.422987
-0.549374
0.298489
0.301831
-0.0740984
-0.0817903
0.784884
1.10533
1.06336
1.18459
1.11519
1.18487
1.18587
1.0885
1.26872
1.16617
-0.0740871
-0.0817409
-0.184946
-0.185491
-1.22775
-1.23837
0.0962675
0.0973597
0.0886428
-1.35342
-2.45831
-1.81103
-1.92303
-1.38709
-1.34639
-1.42336
-1.25423
-1.30566
-1.17601
-1.27855
-1.08227
116.097
218.227
94.3953
170.876
2759.57
2771.84
-1.75095
-1.74475
-0.0179743
0.258091
4.24321
2.62817
2.67559
2.81503
77.9562
30.8001
0.205265
0.172853
22.4423
33.6842
1.8527
0.861343
-0.661702
-0.693441
-0.627594
-0.530107
-0.756495
-0.768638
24.7205
47.0565
-1.86948
-2.39819
0.252785
0.201469
0.151999
0.154953
2832.25
2828.33
35.1345
32.461
47.1767
32.5834
0.214458
0.196778
-0.245683
-0.242435
-1.07721
-1.0951
-1.08467
-1.17233
-0.0720434
-0.12828
0.359476
0.322684
0.344923
0.311298
0.231576
0.230806
56.3889
0.443226
0.433285
41.5012
1.46258
0.723423
-1.3811
-1.30344
-1.20599
-1.10432
-0.239339
-0.24361
-0.0730419
-0.0759825
-0.0673208
-0.0744396
-0.245955
-0.242638
0.174282
0.179005
2788.28
32.9816
14.8453
16.0808
1.81528
0.706582
0.504258
0.520308
-0.556917
-0.516619
0.0776988
0.0755231
0.217044
0.219219
0.214411
0.0774191
0.0753419
3.84641
0.643355
-0.126328
-0.130753
-2.60209
-3.26907
0.467433
0.435517
0.445128
0.462046
0.447299
0.440385
0.19525
0.190768
26.2714
20.7111
18.935
24.4017
0.0692049
0.0663575
-0.90458
-1.28614
-0.678116
-1.74197
1.11429
0.944295
0.534598
0.490297
0.3651
0.519597
0.741799
0.882727
-0.237517
-0.230992
-0.237151
-0.230725
74.5721
76.579
0.196466
0.169533
26.383
15.2073
0.291544
0.295768
-0.101189
-0.0961274
0.227569
0.19104
87.6376
83.3897
2.42544
2.38363
2.57033
1.91815
0.658028
0.689504
-1.01989
-1.10017
0.787773