/*--------------------------------*- C++ -*----------------------------------*\
| =========                 |                                                 |
| \\      /  F ield         | OpenFOAM: The Open Source CFD Toolbox           |
|  \\    /   O peration     | Version:  v2012                                 |
|   \\  /    A nd           | Website:  www.openfoam.com                      |
|    \\/     M anipulation  |                                                 |
\*---------------------------------------------------------------------------*/
FoamFile
{
    version     2.0;
    format      ascii;
    class       surfaceScalarField;
    location    "0.15";
    object      phi;
}
// * * * * * * * * * * * * * * * * * * * * * * * * * * * * * * * * * * * * * //

dimensions      [0 3 -1 0 0 0 0];
oriented        oriented;


internalField   nonuniform List<scalar> 
49400
(
-5.66151e-06
-1.76317e-09
5.6191e-06
4.41659e-08
1.30574e-05
3.59869e-06
-2.23175e-05
1.28514e-05
2.04164e-07
-3.42816e-06
1.73089e-05
-8.26168e-06
2.02098e-05
-2.00393e-05
-2.07708e-05
5.09311e-05
-3.56813e-07
8.06091e-06
1.95814e-05
-4.99599e-05
-1.56607e-07
-6.14435e-07
-1.22905e-05
2.3065e-07
1.21487e-05
-8.8898e-08
2.62998e-05
1.15636e-05
-5.0154e-05
2.59161e-05
-1.31299e-05
1.51371e-06
2.37649e-05
-1.32617e-05
4.28926e-08
2.94764e-05
-3.11745e-05
5.69062e-05
-2.68315e-05
4.62507e-07
2.63902e-05
-2.11797e-08
9.20261e-06
1.56035e-05
-5.16377e-05
5.29086e-07
9.13603e-06
4.1178e-05
2.26943e-05
-4.82688e-05
1.73262e-05
5.0242e-05
7.65537e-06
-7.39189e-06
2.65603e-07
-3.72014e-06
2.05115e-05
6.25537e-06
9.04702e-06
1.98614e-05
8.82442e-06
4.88199e-07
-1.99963e-05
4.93323e-05
3.53295e-07
-7.96401e-07
6.81568e-06
-2.2644e-06
-3.75488e-06
1.09904e-05
-3.6204e-06
-8.16643e-06
-7.65733e-06
-1.14441e-05
-2.33625e-06
6.09551e-07
-5.37696e-07
1.46081e-06
-7.41746e-06
-7.71285e-06
6.6507e-07
-1.76962e-05
4.79024e-06
2.91361e-06
1.29732e-06
-9.00116e-06
-1.42602e-06
2.48639e-06
3.72987e-06
2.85816e-06
-1.37057e-06
-4.84224e-06
-1.05465e-06
8.75506e-06
-2.69474e-06
-3.51807e-06
-2.66973e-06
4.10147e-06
-4.06716e-06
4.1786e-06
7.21501e-07
-3.37191e-06
-1.52819e-06
-3.63149e-06
-4.1954e-06
1.20055e-05
-6.44164e-06
3.53165e-06
-1.68765e-06
3.48504e-06
-5.1693e-06
2.51472e-06
-5.73056e-06
1.03061e-07
-1.78375e-06
-2.85354e-06
-2.85452e-06
-1.14107e-05
4.62512e-06
9.64006e-06
-6.07746e-06
6.15312e-06
-2.93018e-06
4.02817e-07
-1.78909e-05
-1.0849e-05
-9.63699e-07
1.79659e-05
-4.87428e-06
-8.90493e-06
-8.18294e-06
1.18444e-05
-1.26544e-05
-1.14482e-05
-1.17263e-05
-5.05324e-06
2.82277e-05
-1.11029e-05
-1.5068e-05
1.47228e-05
-2.33911e-05
5.61891e-07
7.33248e-06
1.0397e-05
-3.27975e-05
2.05922e-05
1.4631e-06
4.44847e-06
-1.74425e-05
1.99874e-05
-1.75138e-06
-7.39645e-08
1.84579e-06
-2.0447e-08
1.68639e-06
1.33575e-06
-4.77352e-06
2.00911e-06
-3.96688e-07
-2.30774e-06
-1.84304e-06
5.99657e-06
-2.25371e-06
-7.44843e-08
1.09048e-06
-2.00843e-06
1.25656e-06
-1.38857e-06
-4.19075e-06
1.23603e-06
4.34328e-06
-2.48406e-06
2.77431e-06
-1.67882e-06
-1.07404e-06
-5.60077e-06
-4.33097e-06
8.6792e-07
6.23735e-06
1.67931e-08
-6.02658e-06
3.14213e-06
-4.19938e-06
5.24609e-06
-7.27601e-06
-1.2169e-05
-8.77525e-06
2.82203e-05
4.66281e-07
-6.54114e-06
-1.20116e-06
-1.43741e-05
2.6714e-06
7.5033e-06
3.78412e-06
-1.78286e-05
9.23345e-06
-2.93131e-06
-1.21745e-05
1.26327e-05
-2.27646e-05
5.94051e-07
-4.9535e-08
-4.9163e-07
-5.28858e-08
-1.00839e-06
-6.39717e-07
2.24216e-06
-9.36282e-07
-1.21648e-07
5.86738e-07
1.16186e-06
-2.24023e-06
5.91637e-07
-5.77847e-08
-4.47305e-07
3.99225e-07
-2.21722e-07
-2.32137e-06
-6.7871e-07
1.08126e-06
1.91882e-06
1.18366e-06
2.86686e-07
-3.79172e-06
-6.11484e-07
1.11644e-06
2.11801e-06
-1.10429e-06
-1.6252e-06
-2.32775e-07
3.46723e-06
1.69422e-06
-2.51183e-06
2.5427e-06
1.28446e-06
3.44737e-07
-1.33406e-06
-2.95139e-07
-1.37938e-06
-1.57371e-06
4.23756e-06
-2.24272e-06
1.20808e-06
1.24781e-06
1.28168e-06
-3.86356e-06
1.86832e-06
-9.15644e-07
-1.26933e-06
1.56393e-06
-2.23037e-06
1.56248e-06
1.7506e-06
1.49936e-06
-4.81244e-06
1.95322e-07
1.91334e-06
-5.4619e-07
1.68855e-06
2.5737e-07
-1.90217e-06
-1.95768e-06
5.5484e-06
-2.47464e-06
8.29847e-07
-9.43746e-07
8.99411e-07
-1.91903e-06
5.05773e-07
7.7127e-08
-6.18083e-07
3.51827e-08
-1.71333e-06
-4.82368e-07
2.70147e-06
6.16503e-08
-1.69785e-06
-2.94978e-06
2.7827e-06
2.28723e-07
1.79139e-06
-6.43902e-06
5.41281e-07
6.3203e-07
2.84162e-06
2.85481e-08
6.38664e-07
2.46268e-06
4.07482e-07
5.80281e-06
1.1799e-06
5.72993e-08
-1.0828e-06
-1.54404e-07
-1.176e-06
-8.28735e-07
3.18464e-06
7.8973e-08
-1.19768e-06
-1.52852e-06
1.45077e-06
1.56729e-07
1.23253e-06
-3.95873e-06
-4.13891e-07
1.03592e-06
-2.64155e-07
3.35918e-07
4.33021e-06
-1.05208e-06
-3.61405e-06
4.18122e-06
-2.80938e-06
-3.26615e-06
-3.29725e-06
-1.23303e-07
-4.61348e-06
1.19388e-06
1.4295e-06
1.0432e-06
-3.66658e-06
-1.54295e-08
1.16785e-06
4.14613e-08
1.56937e-06
-1.55305e-07
-1.44499e-06
-9.97498e-07
3.61034e-06
-1.59443e-06
1.90896e-07
1.14657e-06
-1.69779e-06
1.71844e-06
1.14701e-06
-5.23949e-07
-1.19164e-06
5.68579e-07
-1.7349e-06
-3.45231e-07
3.22714e-06
-9.8026e-07
-1.27859e-06
2.26994e-06
5.64148e-07
-4.02573e-06
1.10224e-06
1.73628e-06
-1.16166e-06
1.91867e-06
-1.57777e-06
2.69968e-06
-1.16656e-06
-5.58084e-06
4.04772e-06
-3.51277e-06
-3.68141e-06
9.89386e-06
-1.67372e-06
-3.00561e-06
7.9777e-07
1.79172e-06
-4.2632e-06
3.07028e-06
-5.27812e-06
-1.12558e-07
-1.77713e-06
-2.62313e-06
-2.06111e-06
3.82975e-06
1.25713e-05
-1.43399e-05
7.32492e-06
9.9606e-06
-1.93466e-05
8.61489e-06
2.53978e-06
-6.42567e-06
-1.04819e-05
2.55224e-05
-1.40055e-05
1.01197e-05
4.19788e-06
-8.24283e-06
6.28729e-06
6.41783e-06
1.86545e-07
-5.92168e-06
-6.82697e-07
-9.93026e-06
-5.4739e-06
2.1822e-05
-8.48614e-06
-1.25757e-06
4.80593e-06
3.43704e-06
-1.41647e-05
5.57911e-06
-1.45587e-06
-5.47167e-06
5.57688e-06
-1.05208e-05
-4.16082e-07
-2.84493e-06
1.81362e-07
3.07965e-06
-1.95509e-06
3.60905e-06
-2.07005e-06
3.11595e-06
-7.91597e-06
4.01368e-06
-3.88236e-06
5.004e-08
-2.3875e-06
9.48083e-06
-1.80419e-06
3.02574e-06
-2.57059e-06
-2.70238e-06
-7.17256e-07
1.23136e-06
2.18828e-06
1.50267e-06
6.00253e-07
-4.8053e-06
-6.37082e-07
1.42249e-06
2.48707e-06
-1.52039e-06
-1.60376e-06
-4.26162e-07
4.33572e-06
1.76628e-06
-2.68643e-06
2.57148e-06
-2.60722e-07
-2.14842e-06
-2.89173e-06
5.30086e-06
-2.05226e-06
-3.50304e-06
5.29457e-06
-2.59945e-06
-1.60122e-06
1.79691e-06
4.63952e-06
-9.03587e-06
4.27065e-06
-4.07497e-06
7.48487e-07
3.87992e-07
2.12741e-06
4.94312e-06
1.10333e-06
-4.42923e-06
-1.61722e-06
-2.85062e-06
-2.73599e-06
1.05297e-05
1.54227e-06
-3.28957e-06
-4.12581e-06
3.34307e-06
2.32501e-06
2.18037e-06
-9.59574e-06
-2.19073e-06
2.79781e-06
-4.43959e-06
5.80522e-06
3.55559e-06
4.73007e-06
-1.40909e-05
-6.46987e-07
6.44757e-06
4.63303e-09
6.39444e-06
-3.48583e-06
-8.16058e-06
-5.69092e-06
2.02991e-05
-9.55144e-06
1.39549e-06
4.60248e-06
-9.42385e-06
5.30599e-06
-1.24411e-05
-1.56223e-05
-9.2814e-06
3.73448e-05
-1.41859e-07
-3.58841e-08
-1.22634e-05
-1.5083e-05
-6.81097e-07
-1.51435e-05
1.52345e-05
-1.26823e-07
9.28676e-06
-3.66937e-05
1.17054e-05
-1.75016e-05
1.76584e-05
-1.49262e-06
2.04804e-07
2.04345e-06
-7.55637e-07
1.41542e-06
-2.00973e-06
-8.98319e-07
3.46761e-07
1.27347e-06
-1.01058e-06
-1.20412e-07
3.17445e-06
1.44815e-06
-3.21437e-06
5.2196e-07
-1.08354e-06
7.48309e-07
2.78399e-06
5.33354e-06
1.40177e-08
-8.13154e-06
1.79595e-06
2.74269e-06
-1.75465e-06
2.26623e-06
4.86326e-06
-5.38207e-06
-4.45381e-07
8.57014e-06
-2.62697e-06
-4.50975e-06
-4.05356e-06
5.8744e-06
-6.66652e-06
-1.09589e-05
-5.68775e-06
-1.84697e-06
1.84936e-05
2.53799e-06
-7.92483e-06
-5.57201e-06
-6.22138e-06
3.07162e-06
1.12017e-05
2.28857e-06
-1.97117e-05
5.28851e-06
8.98485e-06
9.07746e-06
-1.47137e-05
1.2519e-05
-2.48761e-06
-2.82973e-07
2.67938e-06
9.12094e-08
2.41933e-06
2.49124e-06
-7.39819e-06
3.00049e-06
-8.64129e-07
-3.54332e-06
-1.66357e-06
7.88626e-06
-4.13839e-06
6.86281e-07
3.00297e-06
-4.65011e-06
4.33988e-06
3.16279e-07
-9.95531e-07
-4.90146e-07
1.1694e-06
-1.28677e-06
5.70361e-07
1.03268e-06
-3.86489e-07
-1.89581e-06
1.65669e-06
-3.87693e-07
-1.75914e-06
-5.07802e-08
2.87687e-06
-1.14672e-06
1.6663e-06
-1.92091e-06
-2.21425e-06
2.66549e-06
-9.85682e-07
5.34439e-07
7.78352e-08
-4.66478e-07
-1.82561e-06
7.76395e-07
1.96693e-06
-3.10527e-07
-1.14163e-06
-4.23456e-06
2.09843e-06
-4.5998e-06
-3.22352e-07
-7.48746e-07
3.38989e-07
7.32108e-07
-7.37616e-07
5.31157e-07
-1.15893e-07
6.51475e-07
-2.13784e-06
5.3629e-07
3.33856e-07
-9.59995e-08
1.3644e-06
8.89331e-07
1.09683e-06
-1.78226e-06
5.26984e-07
1.58447e-07
5.07702e-07
-1.17995e-06
1.76908e-06
1.11006e-06
-2.38461e-06
-1.48274e-06
2.28009e-06
3.12709e-07
1.89471e-06
-5.76207e-06
-1.32262e-06
2.03738e-06
1.48446e-06
-4.4255e-06
-2.20707e-06
4.70678e-06
1.9258e-06
2.80794e-06
1.35424e-07
-7.36887e-06
-2.51942e-06
3.12029e-06
6.716e-07
-1.60073e-06
-1.59028e-06
-1.97018e-06
-4.1159e-08
-1.42415e-06
2.69544e-06
2.34818e-06
2.6796e-06
3.18141e-06
-8.20919e-06
-1.78654e-06
2.52068e-06
1.61404e-06
3.36892e-06
-2.47586e-06
1.04669e-07
-3.01183e-06
5.42784e-06
-2.9829e-06
4.70161e-06
-1.44891e-06
1.83493e-06
-1.27933e-06
-1.82866e-06
3.1625e-06
1.65702e-06
-2.99086e-06
4.82242e-06
-1.60881e-06
-5.04227e-06
-5.72121e-07
8.55704e-06
-3.6474e-06
2.04884e-06
3.25558e-06
-1.34654e-06
-5.29172e-06
3.4663e-06
-6.42165e-06
4.94302e-06
3.34898e-06
4.3678e-07
-4.71893e-06
9.33171e-07
-2.68892e-06
-2.47885e-06
8.51675e-06
-2.92228e-06
6.70147e-07
3.27202e-06
2.37958e-06
-8.57389e-06
3.72424e-06
2.17924e-07
-3.38685e-06
4.63225e-06
-5.7262e-06
3.27093e-07
3.9764e-06
-1.94289e-07
-4.1092e-06
4.06413e-06
-5.1712e-06
1.43417e-06
-3.15033e-06
1.11909e-05
-5.13421e-06
6.24687e-06
-1.30695e-06
4.42947e-06
-1.36729e-05
3.764e-06
-4.50573e-06
6.86053e-06
5.38106e-06
8.33271e-06
2.45722e-06
-1.6171e-05
1.80476e-06
-1.48833e-06
5.06463e-06
5.6017e-06
4.53578e-06
7.61821e-06
-6.02638e-06
-3.08016e-06
-3.05176e-06
1.57346e-05
-5.61923e-06
8.16917e-06
-9.18839e-06
-1.24052e-06
-1.29579e-05
3.28151e-07
1.38703e-05
-1.96711e-05
2.0716e-05
-2.28539e-06
1.06923e-05
-4.33213e-05
1.65656e-05
-1.58784e-05
-3.59018e-07
-5.13076e-06
3.55666e-05
-2.12205e-05
3.68058e-05
-2.64067e-05
-4.54255e-06
-8.2885e-06
-1.05998e-05
2.34309e-05
-4.39005e-06
-1.15629e-05
1.14104e-05
-7.1828e-06
-5.49575e-06
7.52787e-07
1.03363e-05
-1.82719e-05
1.34964e-05
-1.82394e-05
2.46071e-06
-3.6873e-06
5.35731e-06
-7.91965e-07
-4.49051e-07
-3.19768e-07
1.56078e-06
-1.17456e-07
-4.10497e-07
-2.64011e-07
-3.20011e-07
-2.46496e-07
-3.26777e-08
8.54388e-08
-3.72772e-07
6.74737e-07
-9.53912e-07
4.33057e-07
-7.58116e-07
7.88026e-07
-1.99457e-06
-1.18217e-06
-5.7336e-07
3.7501e-06
3.57651e-07
-1.39537e-06
-9.56845e-07
-1.21291e-06
3.88385e-07
1.90649e-06
5.35899e-07
-3.6553e-06
1.27103e-06
1.02385e-06
1.57883e-06
-2.4383e-06
2.27649e-06
1.42046e-06
-1.24783e-07
1.453e-07
-1.44097e-06
-2.03971e-06
-1.08024e-06
4.54042e-06
-1.81056e-06
-3.53939e-07
-1.82676e-06
1.59612e-06
3.75937e-07
9.36475e-07
-4.20421e-06
-1.38902e-06
1.9049e-06
-2.26311e-06
9.80278e-08
1.38824e-06
-1.35546e-06
-1.30816e-07
1.28571e-06
1.17631e-07
-1.30531e-06
-8.98511e-07
3.57246e-06
-1.81034e-06
1.64604e-06
2.81929e-07
1.26411e-06
-4.37975e-06
-8.23512e-07
1.57104e-06
-9.14859e-07
1.57196e-06
1.26073e-06
1.25313e-06
-4.08581e-06
1.25232e-08
1.73864e-06
-1.79201e-07
1.27167e-06
1.58038e-09
-1.39676e-06
-9.35722e-07
3.60416e-06
-1.48983e-06
9.46493e-08
-1.03285e-06
1.83576e-06
-1.26955e-06
1.24384e-06
4.86993e-08
-1.27056e-06
-2.19792e-08
-1.33585e-06
-7.32142e-07
3.31183e-06
3.07761e-08
-1.31792e-06
-1.91887e-06
1.94165e-06
7.99938e-09
1.4037e-06
-4.64049e-06
-1.06765e-06
2.27715e-06
-9.34511e-07
1.59096e-08
1.61031e-06
-1.63906e-06
1.28374e-08
1.22599e-06
-1.25176e-06
4.16836e-08
-1.2628e-06
4.0991e-06
1.2078e-06
8.52268e-07
1.20076e-06
4.87265e-08
-6.97427e-07
6.35387e-07
-1.48422e-06
1.76057e-08
-1.5217e-06
1.60751e-06
-1.03415e-07
-1.19604e-06
1.7215e-08
1.19643e-06
1.30899e-06
-4.02673e-06
1.15366e-06
-1.27105e-06
1.34606e-07
-9.33161e-07
3.28325e-06
-6.39388e-07
1.31373e-06
-6.01444e-07
-1.18795e-06
2.75525e-09
2.17711e-08
1.16343e-06
1.43668e-06
1.0258e-06
-3.65044e-06
1.56744e-06
-1.27997e-07
1.43833e-06
-1.59492e-06
1.78367e-07
-9.96508e-07
3.59826e-06
1.13811e-06
-1.70723e-06
1.70904e-06
-1.07192e-06
2.09047e-07
1.04697e-06
-1.84097e-07
1.70515e-06
7.69352e-07
-3.54642e-06
1.35304e-06
5.61148e-07
-1.45867e-06
-5.75531e-07
3.08118e-06
-1.26457e-06
-3.78197e-07
1.27313e-06
-1.76835e-06
2.05064e-06
-1.18317e-06
6.71195e-07
1.11794e-06
-6.0597e-07
2.31731e-06
2.8504e-07
-3.78552e-06
1.07786e-06
1.91064e-06
-2.11503e-06
-2.38028e-07
3.471e-06
-1.09395e-06
-1.62705e-06
1.69048e-06
-2.49939e-06
2.53032e-06
-8.89325e-07
-1.54323e-06
9.55882e-07
1.47667e-06
-1.1384e-06
2.74699e-06
-2.49792e-06
2.50493e-06
-5.18656e-06
6.68039e-07
-2.41829e-06
2.70613e-06
-2.01217e-06
4.15688e-06
-7.83671e-07
1.5185e-06
-6.97031e-07
1.1661e-05
1.17216e-07
-1.15517e-05
-2.26566e-07
-1.35084e-05
-9.77673e-06
3.49461e-05
-1.37209e-05
3.29793e-07
1.321e-05
9.85878e-06
-3.46205e-05
1.36845e-05
-7.00999e-07
-7.65866e-06
1.15664e-05
-1.15208e-05
-2.74371e-06
2.39874e-07
2.90167e-06
-3.97833e-07
2.82204e-06
1.41355e-06
-6.9793e-06
2.64176e-06
4.20157e-07
-3.13546e-06
-2.84291e-06
8.62014e-06
-5.01552e-06
2.30021e-06
3.396e-06
-6.99796e-06
3.45475e-06
2.50281e-06
6.60687e-06
-2.35296e-06
-6.75672e-06
3.76367e-06
2.76807e-06
-4.02893e-06
2.99089e-08
1.03406e-05
-9.18692e-06
2.77373e-06
9.18125e-06
5.30845e-07
-1.37467e-05
-4.78584e-06
7.58948e-06
-6.60796e-06
-3.54324e-06
-9.27705e-07
1.26264e-06
3.20831e-06
1.66692e-06
-2.32121e-07
-4.97804e-06
-5.97518e-07
1.33673e-06
2.39394e-06
-1.78627e-06
-1.2052e-06
-5.55473e-08
3.78622e-06
3.44591e-06
-5.4643e-06
4.653e-06
2.89977e-06
9.00239e-06
4.61264e-06
-1.65148e-05
-2.79221e-07
2.38545e-07
2.94044e-06
6.73879e-06
1.98437e-06
1.87594e-06
-8.66442e-07
-7.70956e-07
-5.96978e-07
5.41336e-06
3.99639e-07
-4.55978e-06
3.2937e-06
-4.4494e-06
4.25206e-06
-7.68021e-06
9.9696e-06
-7.62735e-06
2.84184e-06
-3.19101e-07
-2.7777e-06
1.10329e-05
1.15526e-06
1.81969e-06
-1.54676e-07
-1.44392e-06
-2.21094e-07
-8.77423e-07
-1.21043e-06
3.90754e-06
-9.20093e-07
-1.12006e-07
4.55e-07
8.89568e-07
-2.78848e-06
2.64049e-06
-2.40659e-06
-1.53863e-07
1.58393e-06
-1.84388e-07
-4.62884e-07
-5.72651e-07
1.48046e-06
-4.44925e-07
9.49391e-07
-1.59666e-06
2.64735e-07
-3.45508e-06
-3.90689e-07
-4.66842e-06
-2.18079e-06
-1.00201e-06
7.85123e-06
8.78968e-07
-3.23436e-06
-2.31304e-06
-1.95115e-06
6.49334e-07
2.40086e-06
9.42092e-07
-5.29411e-06
2.85964e-06
1.90553e-07
3.80908e-06
-6.10134e-06
5.66671e-06
-7.40167e-07
3.71039e-06
6.35842e-07
-3.60607e-06
5.857e-06
-4.41143e-06
-2.18574e-06
-2.14667e-06
1.17141e-05
-5.64259e-06
3.85717e-06
2.42127e-06
1.70495e-06
-1.09536e-05
4.48594e-06
-7.19242e-06
6.19644e-06
-1.03281e-05
6.28991e-06
1.06797e-05
-6.64144e-06
2.17435e-05
-1.3921e-06
-3.06796e-05
8.01605e-06
2.00174e-05
-2.1621e-05
5.7022e-07
3.17305e-05
-7.59186e-06
-2.06706e-05
1.81618e-05
-2.71458e-05
2.67481e-05
-3.08892e-06
2.28045e-06
3.25074e-06
-2.44226e-06
6.99577e-06
-7.11475e-06
-2.96994e-06
-1.00881e-06
1.0285e-05
-3.47648e-07
4.23304e-06
-6.34654e-07
7.59133e-06
-1.03812e-05
3.649e-06
-3.17242e-06
6.87323e-06
5.43704e-06
-1.94681e-06
-4.97628e-06
1.48605e-06
-8.24211e-06
-3.47778e-06
1.71569e-05
-7.57687e-06
-2.61205e-06
6.31178e-06
3.72952e-06
-1.50176e-05
7.36455e-06
4.33276e-07
-6.07331e-06
9.96008e-06
-9.92066e-06
3.09198e-07
-7.32576e-07
-1.83979e-06
2.26317e-06
-9.87913e-07
-1.87459e-06
3.1717e-06
-6.94956e-07
-1.02553e-06
-2.85665e-07
2.19558e-06
-2.60487e-06
2.23472e-06
-3.54592e-06
2.98805e-08
2.91103e-07
4.24807e-07
1.23639e-06
-3.94084e-07
-1.28729e-06
4.44981e-07
-2.16503e-06
-5.84519e-07
3.98594e-06
-1.34792e-06
-1.21119e-06
1.93611e-06
4.69143e-07
-3.69255e-06
1.13343e-06
1.24766e-06
-1.41689e-06
1.96581e-06
-2.29567e-06
-1.97361e-06
-1.385e-06
-9.06759e-07
4.26537e-06
1.42837e-07
-1.75713e-06
-3.59321e-07
-1.42198e-06
1.79819e-07
2.04442e-06
9.05893e-07
-4.3723e-06
1.7556e-06
4.68644e-07
1.73545e-06
-2.58669e-06
2.58429e-06
-1.16363e-06
-1.19069e-06
-8.15786e-07
3.1701e-06
-9.20285e-08
-1.11164e-06
4.004e-08
-1.25396e-06
-2.87658e-08
2.96481e-06
2.90931e-06
-7.12808e-06
2.8245e-06
1.11543e-07
-5.50822e-07
2.55954e-06
1.24685e-06
-3.14011e-08
1.52314e-06
-1.74852e-06
2.56785e-07
1.20668e-06
-1.24547e-06
7.38563e-09
-7.48139e-07
3.47796e-06
1.81631e-06
1.03559e-06
-4.09737e-06
2.0073e-06
-1.83601e-07
1.98414e-06
-2.69706e-06
3.24329e-06
-1.01571e-06
-8.57553e-07
-5.44184e-07
2.41745e-06
9.55469e-08
-8.79561e-07
-2.31696e-07
-8.78613e-07
1.16607e-07
1.2569e-06
6.37494e-07
-2.77301e-06
9.82236e-07
3.91275e-07
6.79446e-07
-9.21513e-07
1.1175e-06
-1.31899e-06
-7.77363e-07
-4.56317e-07
2.55267e-06
2.33116e-07
-8.31521e-07
-7.2058e-07
-8.1499e-07
2.70743e-07
1.08334e-06
2.80409e-07
-2.17874e-06
6.48864e-07
7.05216e-07
6.85637e-07
-1.23675e-06
8.78184e-07
-2.22991e-06
-4.08804e-07
2.23753e-06
4.01179e-07
2.09217e-06
3.92227e-06
-8.24435e-06
3.30708e-06
-1.62371e-06
-1.95042e-06
-2.60687e-06
6.79482e-06
-2.4198e-06
8.70562e-07
-6.0193e-07
2.1044e-06
9.82768e-08
-2.58771e-06
-8.78456e-06
3.68735e-06
7.68492e-06
-4.26755e-06
4.2994e-06
-2.61957e-06
2.01936e-07
-1.3254e-05
-8.79245e-06
4.0153e-07
1.26903e-05
-3.05226e-06
-8.35976e-06
-7.24248e-06
1.13314e-05
-1.00928e-05
-5.03271e-06
1.78119e-06
6.32946e-06
-3.07794e-06
5.66787e-06
4.63698e-06
-1.53376e-05
1.84771e-06
5.60135e-06
5.30364e-06
-8.44803e-06
4.9921e-06
-7.2375e-06
1.81425e-05
3.50166e-06
-7.31271e-06
2.59362e-06
-7.82235e-06
-4.31158e-06
-1.17032e-06
1.33043e-05
2.70926e-06
-5.07335e-06
-5.45826e-06
2.70475e-06
-4.30707e-06
-7.89555e-06
4.2824e-06
6.31789e-06
2.76229e-06
-1.49649e-05
5.05347e-06
-7.36453e-06
8.16555e-06
6.66739e-07
2.81906e-06
-1.8543e-06
-1.63151e-06
1.53064e-06
-1.65441e-06
7.90514e-07
2.51716e-07
4.09798e-06
3.00806e-06
-5.83235e-08
-4.60415e-06
1.25818e-06
2.5404e-06
-3.52963e-06
5.03953e-06
-5.44225e-06
-1.49314e-06
-1.70525e-06
1.84376e-07
3.01401e-06
2.24735e-07
-2.24713e-07
-1.49316e-06
-3.92719e-09
-1.47658e-06
-1.37999e-06
5.89203e-07
7.86863e-07
4.40463e-07
-3.29704e-06
5.96257e-07
-3.80507e-07
1.36984e-06
-2.73356e-07
-4.51741e-07
1.3853e-07
5.86567e-07
2.35996e-07
-3.3317e-07
-1.76182e-07
3.2395e-07
-5.39695e-07
-5.32213e-07
-3.62219e-07
1.03296e-06
1.20129e-06
-1.14694e-06
1.31598e-06
-4.4786e-07
1.27771e-06
7.19568e-08
5.84155e-07
-1.41073e-06
7.54618e-07
-8.83759e-07
1.79524e-07
7.76192e-07
-9.67264e-07
6.67659e-07
1.64286e-06
-2.20577e-06
-8.47818e-07
6.31965e-07
1.76551e-06
-5.54435e-07
1.36592e-06
-3.72747e-06
-2.9706e-07
2.76152e-06
6.43453e-07
-3.10792e-06
2.12328e-06
-2.79824e-06
3.77899e-07
-2.04572e-06
6.93053e-06
-4.73371e-06
4.08658e-06
1.29058e-06
3.00073e-06
-1.08424e-05
1.51845e-06
-1.31595e-06
3.5593e-06
-2.20979e-05
-1.67636e-06
1.93585e-05
4.41583e-06
1.58207e-05
1.22122e-05
-5.01308e-05
-4.64537e-07
1.46088e-05
1.94484e-05
-1.99613e-05
4.83742e-08
-1.08954e-05
4.49526e-05
1.68545e-05
-2.46037e-05
2.53177e-05
1.84056e-07
-1.88585e-05
1.93992e-05
-7.24679e-07
-1.52035e-05
1.53193e-05
6.8285e-08
1.14772e-05
-4.55392e-05
-1.92522e-05
-1.1548e-05
4.61195e-05
-1.94205e-05
2.36613e-07
-1.56627e-05
2.35138e-05
-2.36061e-05
-1.06877e-05
-3.4096e-07
8.73958e-06
2.2891e-06
7.61987e-06
4.83504e-06
-2.31426e-05
-3.59881e-08
7.3149e-06
9.30598e-06
-7.27215e-06
-2.06983e-06
-4.27403e-06
2.08949e-05
7.47808e-06
-9.91518e-06
1.19436e-05
3.39407e-06
1.70851e-06
2.63889e-07
-5.36647e-06
-1.09395e-06
1.33681e-06
3.15121e-06
-9.62444e-07
1.57701e-06
3.10002e-06
-1.40636e-06
-2.65611e-06
-2.26594e-07
4.90363e-06
-2.23927e-06
3.34948e-06
-3.38174e-06
-2.06857e-06
-1.34578e-06
-5.40875e-07
3.95523e-06
4.34823e-07
-1.47265e-06
-1.03075e-06
-1.38374e-06
4.72781e-07
2.41279e-06
7.56074e-07
-4.55261e-06
1.57148e-06
1.3141e-06
1.74051e-06
-2.45709e-06
2.77112e-06
-1.18131e-06
-1.31925e-08
1.14586e-06
4.86418e-08
1.38302e-06
9.22971e-07
-3.4873e-06
1.29161e-06
7.8223e-08
-2.49084e-06
-1.96704e-06
5.60374e-06
-2.61575e-06
1.73556e-07
1.21469e-06
-2.90747e-06
5.39261e-07
-8.18567e-09
2.48499e-06
-2.39858e-06
1.87562e-06
-1.96303e-06
7.92288e-08
4.89987e-06
2.64857e-06
-8.53446e-06
-2.22194e-06
1.29342e-06
1.297e-07
-1.35921e-06
-6.39095e-08
-1.37288e-06
-5.40674e-07
3.20697e-06
-1.4678e-06
2.24621e-07
3.68648e-06
3.37812e-06
-8.42381e-06
3.58047e-06
4.2099e-08
-1.67825e-06
4.71804e-06
2.32071e-07
2.22504e-06
2.14273e-07
-2.21469e-06
-1.69606e-06
-2.46675e-06
2.46453e-06
2.1649e-07
-4.44937e-06
5.48651e-06
-4.44527e-06
-1.37346e-06
-2.39855e-06
8.21727e-06
8.65708e-08
-4.68549e-06
1.53651e-07
6.63054e-06
-8.75648e-06
7.40209e-06
-6.68912e-07
2.6136e-07
6.24922e-07
-2.1737e-07
9.04778e-07
1.98895e-07
-1.77258e-06
4.4154e-07
7.24597e-07
-1.14361e-06
-3.45324e-07
2.11386e-06
-6.6268e-07
-6.98301e-07
5.32305e-07
-9.96089e-07
6.28522e-07
-1.99433e-06
1.61244e-06
-1.70405e-06
2.08594e-06
4.09718e-06
4.03168e-07
-6.49467e-06
2.23513e-06
3.47448e-06
4.17605e-06
-1.40439e-06
-4.47572e-06
1.69783e-07
6.09222e-06
3.26063e-06
-4.26185e-06
5.66554e-06
-1.9271e-06
-7.43929e-07
1.75695e-06
9.14076e-07
1.50462e-06
1.97269e-06
-5.40441e-06
2.45216e-06
-1.69147e-06
-1.2457e-06
-2.4783e-06
5.48095e-06
-3.48212e-06
3.1505e-06
1.44841e-06
-2.95784e-06
1.42228e-06
1.71987e-06
2.61423e-06
4.00083e-07
-4.73419e-06
5.71157e-07
-5.3268e-07
1.6814e-06
1.49392e-06
3.15619e-06
-1.97064e-06
-1.71822e-06
-6.91751e-07
5.52933e-06
-2.40405e-06
3.20622e-06
-3.97461e-06
-4.76281e-07
2.08577e-06
-2.96065e-06
1.35116e-06
2.56749e-06
-4.28288e-07
-2.61548e-06
-2.37163e-06
7.02489e-06
-2.64678e-06
3.70029e-06
-1.4818e-06
3.29996e-06
-8.56222e-06
-9.83686e-07
2.31234e-06
-6.44377e-07
8.42549e-07
-1.61266e-06
3.34033e-06
-2.57022e-06
-2.49694e-06
8.06498e-07
2.53299e-06
3.07171e-06
-7.18131e-06
1.96685e-06
-3.74482e-06
2.58447e-06
-3.53266e-06
8.0325e-06
4.4157e-07
-1.11468e-06
2.49232e-07
1.08212e-06
2.20244e-06
-1.26151e-06
-2.02304e-06
1.89706e-06
-5.79904e-06
4.9841e-06
-3.2986e-06
7.3981e-06
6.8586e-07
2.31598e-06
-4.26336e-06
4.21058e-06
-5.54776e-06
9.20431e-09
-1.59767e-06
-9.73411e-07
1.35022e-06
4.67064e-06
7.71755e-06
-1.37384e-05
3.96515e-06
8.17072e-06
-1.07857e-05
4.43229e-06
4.20351e-06
-7.89538e-07
-7.84874e-06
1.30706e-05
-8.47584e-06
1.18898e-05
-1.45527e-06
1.77726e-06
-2.21356e-06
4.20278e-07
1.40361e-06
-1.04369e-07
-1.71952e-06
9.94964e-07
-2.72793e-06
2.15324e-06
-1.54047e-06
3.93904e-06
-1.90295e-06
1.59574e-06
2.02847e-07
1.64244e-06
-5.26491e-06
1.05802e-06
-2.14351e-06
1.11329e-06
-1.76978e-06
1.21453e-06
7.58101e-07
4.12509e-06
-1.11598e-05
7.03335e-07
1.62448e-06
-3.13771e-07
1.77521e-06
1.66781e-06
1.32373e-06
1.10335e-06
-1.79566e-07
-2.24752e-06
-2.82756e-07
6.93936e-07
9.12551e-07
-4.20679e-07
1.24128e-06
1.44879e-06
-6.74124e-07
-1.19535e-06
-2.07505e-07
2.89758e-06
-1.0619e-06
1.54833e-06
-1.91559e-06
5.68405e-07
-1.31336e-06
-3.31392e-06
4.05887e-06
-1.50835e-06
-2.32602e-06
4.40277e-06
-1.02568e-06
-1.79602e-06
-1.65246e-06
2.14987e-06
-1.52309e-06
2.10125e-06
-5.54973e-06
-1.1922e-06
1.01605e-06
-2.40487e-06
-4.85146e-06
-2.59559e-06
1.75292e-07
7.27176e-06
1.56553e-06
-1.21879e-06
-5.1982e-06
-2.41245e-06
1.38238e-06
2.90605e-06
4.60402e-07
-5.7789e-06
2.2124e-06
2.07604e-06
3.28266e-06
-4.04105e-06
5.67035e-06
-3.21248e-07
-4.6503e-07
8.60588e-07
-7.43101e-08
-6.7449e-07
-2.65666e-07
6.18907e-07
-7.71885e-08
-1.06233e-06
1.36852e-07
8.49016e-07
-1.2528e-07
-2.38127e-07
3.00669e-07
1.46791e-07
4.36559e-07
-1.68524e-07
-1.12992e-05
-1.35492e-05
-1.37627e-05
3.86111e-05
-4.92299e-06
-2.32418e-05
1.68656e-05
-1.48486e-05
-3.62353e-06
1.63795e-05
1.92651e-05
-5.04932e-05
2.2803e-05
-1.0047e-05
1.47939e-05
-1.87706e-05
2.38341e-05
5.81355e-06
-4.90103e-06
-1.57048e-05
1.47922e-05
-8.9483e-06
-1.31671e-05
2.79289e-05
-9.00015e-06
-4.84918e-06
7.7623e-06
1.56721e-05
-3.24345e-05
1.56752e-05
-1.27621e-05
-5.34954e-08
2.5585e-06
-8.30446e-08
1.59114e-05
-4.17526e-07
-1.62703e-05
7.76366e-07
-1.82475e-05
-1.43236e-05
4.84826e-05
-2.03567e-05
1.69165e-06
2.00493e-05
1.64704e-05
-5.279e-05
2.19337e-05
-1.10805e-06
-1.13521e-05
1.89622e-05
-1.52384e-05
8.74957e-06
4.30536e-06
-2.36012e-06
-1.06948e-05
-4.46731e-06
1.07859e-06
1.21383e-05
4.48263e-06
-4.64458e-06
-1.08781e-05
1.66023e-06
1.37005e-05
-2.35658e-06
-1.31661e-05
-6.37753e-06
9.11635e-06
-1.10942e-05
2.18141e-06
2.80535e-06
-1.91125e-06
-3.07551e-06
7.02026e-07
-4.87471e-06
6.3541e-06
-5.01643e-06
8.52381e-06
-1.41757e-06
3.92535e-06
-4.41903e-06
4.76523e-06
-9.25832e-06
-6.0585e-07
4.96373e-07
-1.69694e-06
-1.28829e-06
-1.02497e-07
1.17294e-06
2.17845e-07
1.46721e-06
1.08271e-06
-3.83821e-06
1.3338e-06
3.09176e-08
-2.19167e-06
-1.81627e-06
5.18089e-06
-2.38559e-06
4.1177e-07
1.14485e-06
-2.44774e-06
6.62375e-07
4.70291e-08
2.47286e-06
-2.48898e-06
1.76712e-06
-1.95714e-06
2.37052e-07
4.90236e-06
3.02356e-06
-9.35074e-06
-1.38132e-06
-1.42163e-07
1.38541e-06
1.77949e-07
-1.4212e-06
1.97283e-06
-1.75789e-06
-3.571e-07
-9.0806e-07
4.2663e-06
-2.03897e-06
1.75316e-06
4.63766e-07
9.04346e-07
-4.36452e-06
1.7321e-06
-2.58565e-06
2.5772e-06
-1.30953e-06
-2.14996e-07
1.28752e-06
2.37008e-07
1.04173e-06
1.32081e-06
-3.67207e-06
1.49228e-06
-6.65548e-07
-1.26198e-06
-1.68774e-06
4.23724e-06
-1.89441e-06
8.69438e-07
3.38946e-07
-9.12544e-07
1.43485e-07
-1.23897e-06
-2.60879e-07
1.19229e-06
3.07555e-07
1.12786e-06
1.44194e-06
-3.80878e-06
1.69772e-06
-8.30742e-07
-1.0585e-06
-1.43042e-06
3.68121e-06
-1.76043e-06
1.00949e-06
5.85713e-07
-9.04201e-07
8.53017e-07
1.11991e-07
1.44579e-06
-1.45897e-06
-9.88048e-08
2.12506e-06
-2.03505e-06
2.19851e-08
-2.09192e-06
-2.77977e-06
7.97076e-07
-4.2911e-06
-2.06021e-06
-1.30511e-07
-4.04291e-06
-5.23944e-07
-8.91229e-07
-7.5387e-08
1.49056e-06
2.00055e-07
-4.62681e-07
-2.61317e-07
1.98749e-07
-8.89923e-07
7.98897e-07
-1.31427e-06
5.26893e-08
-1.80399e-06
2.5275e-06
-1.73576e-06
-3.93995e-06
-1.44545e-06
-2.30166e-06
-1.24405e-06
-4.62716e-07
-3.49303e-06
-1.24542e-05
-1.02489e-05
-1.05432e-05
3.32463e-05
-3.42406e-07
-1.30388e-05
9.27023e-07
-1.00584e-05
-5.32894e-07
9.78844e-06
7.65283e-06
-2.74997e-05
1.06897e-05
-1.43417e-06
5.53653e-06
-1.09225e-05
5.68306e-06
-1.94515e-06
-4.31978e-07
-1.90179e-07
2.5673e-06
7.0006e-07
3.42012e-07
-2.98722e-06
-2.50295e-07
5.18377e-07
1.45197e-06
-1.01704e-06
-6.85227e-07
-3.01131e-08
2.00046e-06
9.37985e-07
-1.61301e-06
7.17692e-07
3.40199e-07
-1.58315e-06
-2.63579e-07
1.50653e-06
-2.46023e-06
1.63829e-06
1.16214e-06
8.69849e-07
-4.91323e-06
2.16263e-06
-1.7311e-06
-6.95104e-07
-8.10632e-07
4.47979e-06
-1.72536e-06
2.55302e-06
-2.58662e-06
2.34302e-07
-2.13931e-06
2.57777e-06
-6.72759e-07
-2.11057e-06
3.02128e-07
2.04274e-06
2.2501e-06
-6.49997e-06
1.9764e-06
-2.64181e-06
9.67534e-07
-2.12462e-06
6.14376e-06
8.81186e-07
-1.2729e-06
1.33434e-06
-3.41636e-06
-1.13482e-07
2.97037e-06
5.59472e-07
2.66044e-06
1.39242e-06
-7.46922e-06
-2.09411e-08
2.5679e-06
3.6691e-06
-3.66093e-06
-2.9108e-08
-2.01011e-06
8.24711e-06
3.30881e-06
-5.57733e-06
4.26907e-06
3.55458e-06
1.52312e-06
-3.34052e-06
-1.73718e-06
-1.75526e-06
-4.33008e-06
9.63992e-06
-5.04532e-06
4.81318e-06
1.09602e-06
5.8707e-06
-1.03072e-05
5.58142e-06
-6.22258e-06
3.82272e-08
1.21312e-06
8.63609e-07
-3.05781e-06
1.45603e-06
6.27357e-06
-4.67179e-06
4.20135e-06
6.48707e-06
-1.37462e-05
1.63441e-06
4.02297e-06
3.28474e-06
-7.15905e-06
5.50872e-06
-5.17961e-06
1.24873e-05
2.14739e-06
-2.81937e-06
3.24135e-06
9.6954e-06
4.61034e-06
-1.35197e-06
-1.29538e-05
-2.6865e-06
3.15521e-06
9.22669e-06
5.05374e-06
-3.1299e-06
-1.04563e-05
8.80614e-07
1.46295e-05
-2.65943e-06
-1.09268e-05
-8.44778e-06
1.24836e-05
-1.24592e-05
2.23163e-06
1.35311e-06
1.57356e-06
-5.15829e-06
-9.07856e-08
1.03659e-06
1.28582e-06
8.49387e-07
4.12939e-07
-5.12793e-07
-2.38361e-07
1.60054e-06
-1.57712e-06
1.47727e-06
-1.17154e-06
1.96977e-06
-1.1751e-06
1.31518e-06
-2.28553e-07
-2.62767e-07
-8.23859e-07
3.12782e-08
1.24573e-07
1.15933e-06
-3.85348e-07
1.88073e-07
-2.30786e-07
2.47775e-07
-2.79756e-07
-9.40281e-07
-1.14364e-07
-2.82455e-07
-5.33253e-07
-4.20029e-07
1.00977e-07
4.95474e-08
2.36384e-08
-1.74163e-07
-1.28517e-07
-2.50177e-08
2.54512e-07
-8.04717e-08
1.50238e-09
6.56551e-07
-4.43009e-08
-6.92721e-07
-2.50953e-07
9.09006e-07
9.3709e-08
-1.14371e-07
-1.82261e-07
-5.81983e-08
-3.72862e-08
4.70423e-08
4.84422e-08
7.59772e-08
5.13178e-08
-1.85493e-07
5.83301e-08
-1.96391e-08
-2.59817e-08
1.92657e-07
-1.19633e-07
2.78083e-07
-2.52747e-07
-5.44704e-08
3.05457e-07
2.03973e-07
2.09493e-10
-3.32506e-07
5.86808e-07
-2.88325e-07
-8.03092e-07
1.81552e-06
-1.46596e-05
-1.22018e-06
1.40643e-05
-2.04945e-05
1.55901e-05
6.71999e-06
8.22414e-06
-4.33783e-05
1.64559e-05
-1.30857e-05
-4.59042e-06
-7.23624e-06
3.77564e-05
-1.35701e-05
2.1924e-05
-1.84317e-05
-9.5479e-06
-9.45171e-06
-5.61494e-06
2.46145e-05
9.40025e-07
-9.63649e-06
-8.51435e-07
-1.02141e-05
1.70245e-06
1.64506e-05
9.07714e-06
-3.57419e-05
1.27454e-05
5.4076e-06
8.18811e-06
-8.74745e-06
1.53186e-05
1.56213e-05
1.91665e-05
1.28123e-05
-4.76001e-05
-4.08081e-07
1.52303e-05
7.99124e-07
1.86849e-05
7.35685e-08
-1.83587e-05
-1.25006e-05
4.60896e-05
-1.90926e-05
1.53303e-06
1.32302e-05
-1.95105e-05
1.94145e-05
1.65642e-05
1.9879e-05
1.18235e-05
-4.82668e-05
-2.58882e-08
2.96133e-07
1.6294e-05
1.94041e-05
4.49056e-07
1.98291e-05
-2.09962e-05
1.46324e-06
-1.37348e-05
4.98579e-05
-1.48346e-05
2.0504e-05
-2.40074e-05
3.85461e-07
2.56123e-06
-2.8319e-07
-2.6635e-06
2.4246e-06
-3.06066e-06
1.02152e-06
-2.51165e-06
7.49747e-06
-2.82501e-06
2.98541e-06
-4.43592e-07
2.23044e-06
-7.71894e-06
1.31561e-06
-2.14583e-06
1.78937e-06
-8.8906e-07
-2.60043e-06
-7.23151e-07
4.21264e-06
5.57897e-08
-9.68827e-07
2.39767e-08
-2.5639e-06
1.92637e-08
-7.73614e-07
-4.0893e-06
4.13977e-06
-2.96055e-06
1.21811e-06
4.24694e-06
-9.77139e-06
1.769e-07
1.19722e-06
4.4871e-08
-3.94089e-06
2.43748e-07
-1.31315e-06
-1.28811e-06
-1.53942e-06
4.14069e-06
-2.89827e-07
-2.02105e-06
9.97722e-07
-1.32565e-06