/*--------------------------------*- C++ -*----------------------------------*\
| =========                 |                                                 |
| \\      /  F ield         | OpenFOAM: The Open Source CFD Toolbox           |
|  \\    /   O peration     | Version:  v2012                                 |
|   \\  /    A nd           | Website:  www.openfoam.com                      |
|    \\/     M anipulation  |                                                 |
\*---------------------------------------------------------------------------*/
FoamFile
{
    version     2.0;
    format      ascii;
    class       volVectorField;
    location    "0.15";
    object      U;
}
// * * * * * * * * * * * * * * * * * * * * * * * * * * * * * * * * * * * * * //

dimensions      [0 1 -1 0 0 0 0];


internalField   nonuniform List<vector> 
24700
(
(0.0189786 -1.74764 0.0186402)
(-0.00722008 -1.69615 0.0100662)
(-0.00525581 -1.63874 -0.000901797)
(0.0770134 -1.4462 -0.0180949)
(0.0354314 -1.56145 -0.0413806)
(0.0842532 -1.51116 -0.0596153)
(0.0613308 -1.56432 -0.0506767)
(-0.0101487 -1.48848 0.00444643)
(0.0870206 -0.899817 -0.0188538)
(0.0286201 -1.39823 -0.024951)
(-0.00230852 -1.46819 -0.0207911)
(-0.00353774 -1.49951 0.00494703)
(-7.23998e-05 -1.48574 -0.0224167)
(0.00397313 -1.47126 -0.0191554)
(0.00551468 -1.48465 0.00344149)
(-0.00166657 -1.49555 0.000759001)
(-0.00284617 -1.48986 -0.0171008)
(-0.00578001 -1.57194 0.0183466)
(0.0335161 -1.54353 0.0206054)
(0.00121474 -1.67609 0.10094)
(0.045935 -1.45051 0.00236294)
(0.0069535 -1.49902 -0.00244595)
(0.0254336 -1.4478 0.0120565)
(0.00313769 -1.57557 0.0575323)
(0.0556467 -1.4372 -0.00343874)
(0.00697936 -1.5165 -0.0072475)
(0.0505694 -1.21218 -0.00224916)
(-0.0105473 -1.49858 0.0124868)
(-0.0246322 -1.50378 -0.0318829)
(-0.00627028 0.500778 -0.0608953)
(-0.00196108 0.512503 -0.0343543)
(-0.0048587 0.498497 -0.0388812)
(-0.0247285 0.485919 -0.0225946)
(-0.0134044 0.488122 -0.00819948)
(-0.034143 0.484494 -0.0131803)
(-0.0074339 0.482407 -0.0143414)
(-0.000835508 0.48017 0.160367)
(-0.0142701 0.471167 0.186634)
(-0.000112401 0.463008 0.225464)
(0.00839787 0.475806 0.20389)
(0.0175553 0.484099 0.178112)
(0.00285787 0.472147 0.183042)
(0.016902 0.486838 0.166274)
(0.0136279 -0.748221 0.321566)
(0.0535676 -0.733474 0.298941)
(0.131771 -0.819963 0.28778)
(0.0642322 -0.225129 0.305138)
(-0.0951369 0.00822826 0.343076)
(-0.0280083 -0.113063 0.328135)
(0.078269 -0.473598 0.2723)
(0.0076811 0.944071 0.517187)
(0.0019894 1.01129 0.418082)
(0.000739691 0.950905 0.570496)
(6.73788e-05 0.966379 0.432452)
(0.00931537 0.953306 0.472536)
(0.0101421 0.924008 0.493657)
(0.00301829 0.944275 0.511619)
(0.135131 -2.07684 0.521167)
(0.279394 -2.5875 2.51463)
(1.08399 -1.95723 -0.816554)
(0.327678 -1.6038 -0.962396)
(-1.05323 -1.33061 -0.369847)
(0.79638 -1.69471 -0.799587)
(-0.884613 -1.49956 -0.910169)
(0.00259047 0.28666 0.00119814)
(0.00316479 0.255502 -0.0155288)
(-0.00242215 0.255744 -0.0225905)
(0.00685493 0.294958 -0.00547407)
(0.00396762 0.290995 -0.0136593)
(0.006987 0.26429 -0.0110026)
(0.0121525 0.275225 -0.0296164)
(0.0149346 -0.382795 -0.22221)
(0.00310339 -0.447912 -0.253774)
(0.0345126 -0.285078 -0.223546)
(-0.0409878 -0.339571 -0.318283)
(-0.023647 -0.177676 -0.348356)
(0.00903369 -0.222405 -0.302958)
(-0.0122133 -0.314053 -0.309306)
(0.0116464 -1.47224 -0.0818791)
(-0.0207315 -1.12256 0.0173745)
(-0.00486948 -1.51599 -0.0742519)
(-0.0555547 -1.5777 -0.0623502)
(0.0425176 -1.30041 -0.1176)
(-0.0114164 -1.54086 -0.125246)
(-0.0225103 -1.55154 -0.104433)
(-0.000614756 -0.115525 -0.0162424)
(0.0149005 -0.109792 -0.0249884)
(-0.00205085 -0.102256 -0.00544411)
(-0.0408419 -0.11923 0.0732147)
(0.0121322 -0.0955207 0.00750369)
(0.0331267 -0.0963889 0.00605275)
(-0.0252234 -0.0998925 0.0537675)
(-0.00393566 0.197355 -0.100933)
(-0.00541906 0.204087 -0.0950752)
(-0.000541132 0.183713 -0.103961)
(0.00459479 0.188851 -0.0859197)
(0.00474644 0.185314 -0.0896129)
(-0.00190052 0.196809 -0.0851675)
(-0.000291222 0.195673 -0.0906398)
(-0.000294859 0.211796 -0.0482264)
(0.00209679 0.2187 -0.05687)
(-0.000325529 0.221815 -0.0625583)
(-0.00241054 0.228739 -0.0603278)
(-0.00139644 0.226194 -0.0548115)
(-0.00210084 0.226376 -0.0598763)
(-0.00431548 0.227609 -0.0640724)
(0.000954311 0.283553 -0.0353026)
(-0.00168608 0.274704 -0.0339928)
(0.000328155 0.275573 -0.0356019)
(0.000973706 0.277489 -0.0391272)
(-0.00272192 0.282095 -0.0404186)
(-7.33179e-06 0.276824 -0.0356263)
(-0.00220466 0.285135 -0.0376641)
(0.0258502 0.138736 0.0151883)
(0.00144656 0.18917 0.0144099)
(-0.00229241 0.21267 0.0077237)
(-0.00702235 0.196112 -0.00312792)
(-0.00104086 0.171038 -0.0100935)
(0.00942331 0.146504 -0.0182255)
(0.000210733 0.19315 -0.0142701)
(0.0150365 0.0538917 -0.000213746)
(-0.0131051 0.171478 -0.0044193)
(6.31726e-05 0.158643 0.0134104)
(2.06377e-05 0.204131 -0.00950185)
(0.000389408 0.202806 -0.0118088)
(7.14609e-05 0.200052 -0.010787)
(-0.00379422 0.19752 -0.00592913)
(0.000911576 0.202297 -0.00476195)
(-0.00315242 0.196143 -0.00339324)
(0.00190065 0.199295 -0.00237471)
(0.00316609 0.196109 0.00188491)
(-0.00174952 0.198311 -0.00257548)
(0.000655671 0.199277 -0.00094192)
(0.01125 0.199205 -0.00124693)
(-0.000118 0.199731 -0.00151709)
(0.00083941 0.195976 -0.014121)
(0.000123908 0.184833 -0.00100843)
(0.00198455 0.19133 -0.00887311)
(-0.00178267 0.193052 -0.00793148)
(8.3181e-06 0.196191 -0.0108115)
(0.00202988 0.196678 -0.0148659)
(0.000479933 0.19489 -0.012508)
(0.000266049 0.188839 -0.0885565)
(-0.00253613 0.19078 -0.0764843)
(-0.00555596 0.195192 -0.0730398)
(0.00232483 0.202782 -0.0819752)
(0.00352753 0.197251 -0.0862565)
(0.00111583 0.195279 -0.0779281)
(-0.00121897 0.200332 -0.0755659)
(-0.0835745 -0.686414 0.280391)
(-0.0406592 -0.612922 0.297728)
(-0.013147 -0.623568 0.342936)
(0.0343324 -0.0227946 0.241336)
(-0.0491627 -0.249225 0.231707)
(-0.014575 -0.0992897 0.252969)
(-0.0648814 -0.439589 0.216254)
(0.0504206 1.00286 -0.766552)
(-0.0326553 1.04193 -0.804288)
(0.0164892 1.3737 -0.548847)
(-0.0162981 1.37339 -0.579595)
(-0.140939 1.36437 -0.604717)
(-0.119167 1.14607 -0.725499)
(0.0299432 1.13549 -0.725768)
(-0.021363 1.00461 0.0713224)
(-0.00312339 1.07644 -4.97748e-05)
(0.044995 1.17358 -0.0582657)
(-0.0413198 0.832395 0.0755349)
(0.00227446 0.698979 0.1001)
(-0.0338632 0.853546 0.0497311)
(-0.0159904 0.945554 -0.00332754)
(-0.00616389 0.454357 -0.0175413)
(0.00673109 0.406315 -0.113191)
(-0.0218361 0.414607 -0.159056)
(0.0283431 0.525066 0.0152659)
(0.0159813 0.50551 0.0537975)
(-0.00720267 0.451678 -0.0570952)
(-0.00599641 0.48497 -0.0898043)
(0.000513241 0.117096 -0.236503)
(0.0148184 0.12015 -0.253927)
(-0.000915926 0.103526 -0.238372)
(-0.00672855 0.0824697 -0.249894)
(-0.00229064 0.0874227 -0.229516)
(0.00779261 0.106883 -0.276479)
(0.0110737 0.117732 -0.243763)
(0.00682384 0.281378 -0.323115)
(0.0190794 0.31589 -0.349931)
(-0.00238144 0.304046 -0.391949)
(0.00690115 0.253248 -0.449661)
(-0.0113587 0.20994 -0.428551)
(0.0112752 0.277072 -0.401905)
(-0.00419881 0.206938 -0.348892)
(-0.0490074 0.521438 0.0695557)
(-0.0108436 0.535728 0.146487)
(0.00870142 0.502497 0.248186)
(0.0435435 0.653335 0.132098)
(0.0160952 0.667027 0.0262916)
(0.0360587 0.668288 0.0866309)
(-0.0243499 0.618121 0.0146112)
(-0.0733181 -0.760966 0.196019)
(-0.00336853 -1.01933 0.166847)
(0.0675773 -0.558999 0.198559)
(-0.0447054 -1.13216 0.121016)
(-0.107718 -1.22614 0.107697)
(-0.114229 -0.976045 0.140622)
(-0.0237291 -0.799958 0.168109)
(0.00391223 -2.01294 -0.0179816)
(-0.0027292 -1.99856 0.0109215)
(0.00493055 -2.00899 -0.0285611)
(-0.00264479 -1.99089 0.0111273)
(-0.000359132 -1.97801 0.00891054)
(0.00065063 -1.99483 -0.0109257)
(0.00701479 -2.00424 -0.0065813)
(-0.00719146 -0.325146 0.0827161)
(-0.082999 0.0211848 0.128513)
(-0.025599 -0.16361 0.0563103)
(0.0685242 -0.176331 0.063062)
(0.0175868 0.168611 0.193553)
(-0.0893983 0.126464 0.158043)
(-0.0938452 -0.122908 0.110021)
(-0.00792041 0.429363 0.259651)
(-8.04378e-05 0.434715 0.264505)
(0.0184068 0.43865 0.251277)
(-0.0133937 0.461218 0.237068)
(-0.0268584 0.466467 0.228646)
(-0.0192429 0.46128 0.2431)
(-0.0511482 0.455394 0.245772)
(-0.00936662 1.00919 -0.383223)
(-0.0241379 1.17782 -0.322055)
(-0.00476065 0.876046 -0.470698)
(-0.0105108 1.04889 -0.454907)
(-0.00616607 0.910742 -0.500612)
(-0.0243673 1.2386 -0.359308)
(-0.0199402 1.06502 -0.436516)
(-0.00161077 0.389092 0.0636604)
(-0.0231454 0.341212 0.0732798)
(-0.0067127 0.283819 0.0111507)
(0.000274188 0.458065 0.0276036)
(-0.0241227 0.554574 0.0241911)
(-0.00673177 0.478212 0.0338223)
(0.00681998 0.380242 -0.00365635)
(-0.000730477 0.190248 0.0461179)
(0.00078411 0.11542 0.0576676)
(-0.0234475 0.0893775 0.0896273)
(-0.00605526 0.125178 0.088608)
(0.0127911 0.151734 0.0674867)
(0.00180106 0.126752 0.083584)
(-0.00592838 0.105199 0.112905)
(-0.0544114 -0.0616576 0.115332)
(0.0277206 -0.164391 -0.0329701)
(-0.165166 0.0838641 -0.028904)
(0.00485644 -0.0397872 -0.0690066)
(0.065393 0.0672202 -0.101964)
(-0.0180017 0.19626 -0.125717)
(0.034211 0.000337173 0.0388654)
(0.0379132 -0.0107357 -0.00131148)
(0.0411024 -0.026261 0.027624)
(0.00549984 0.0257251 0.0391966)
(-0.010879 0.0244341 0.0390412)
(-0.00409685 0.0257261 0.0617499)
(0.0668662 0.0378521 -0.0217079)
(-0.0304458 0.0649027 -0.149436)
(-0.0138196 -0.474312 0.239495)
(0.0830449 -0.249635 -0.0239515)
(-0.0384857 -0.3242 -0.110452)
(0.0194773 -0.0159264 -0.34924)
(0.183399 0.0971783 -0.0801227)
(0.200752 -0.583055 -0.0857418)
(0.0269165 -0.357503 -0.0971186)
(-0.0718522 -0.56327 -0.256898)
(-0.217354 0.105062 0.00480876)
(0.0597738 -0.401575 0.130586)
(-0.248075 0.158352 0.131221)
(0.0382606 -0.379747 0.170259)
(0.0252187 -0.0657563 -0.437483)
(-0.0286423 -0.292355 -0.237132)
(-0.0577506 -0.0995772 -0.418718)
(0.140022 -0.21335 -0.224507)
(0.0414138 -0.255115 -0.217997)
(0.020566 -0.122446 -0.363468)
(0.102646 -0.139953 -0.369799)
(-0.00912386 0.276443 -0.51984)
(-0.0165305 0.279057 -0.327079)
(0.0213533 0.203694 -0.428936)
(0.0612526 0.133054 -0.410681)
(-0.0954166 0.169105 -0.250871)
(-0.14983 0.307892 -0.277574)
(-0.0860749 0.225675 -0.382617)
(-0.0526561 -0.0775442 -0.435218)
(-0.0072114 -0.0163239 -0.437763)
(-0.00145175 0.101944 -0.476062)
(0.0130053 -0.0805179 -0.50922)
(0.0450429 0.00842023 -0.487696)
(0.0346046 -0.0221279 -0.490121)
(0.0179442 -0.0743742 -0.509566)
(0.00792296 0.00196052 -0.613708)
(-0.00576622 -0.0852871 -0.639126)
(0.00546111 -0.0489431 -0.623823)
(-0.00994615 -0.055758 -0.672228)
(-0.00263571 -0.0873713 -0.67408)
(0.0199 -0.0854441 -0.682902)
(0.0193041 -0.0776124 -0.693741)
(0.00617422 0.219049 -0.874529)
(0.00848079 0.223037 -0.817307)
(0.0328987 0.234114 -0.886197)
(-0.0662928 0.121159 -0.804454)
(-0.0247204 0.169522 -0.818348)
(-0.0096678 0.189019 -0.859906)
(-0.0602838 0.157224 -0.823963)
(-0.0122348 -2.32011 0.151754)
(-0.0518056 -2.12629 0.0707444)
(-0.0241326 -2.20829 0.0392494)
(0.0199025 -2.4191 -0.013131)
(0.00754115 -2.43339 -0.0107545)
(-0.0311178 -2.29473 -0.0031253)
(-0.0157996 -2.34793 -0.0204301)
(0.0164609 -1.28626 -0.787947)
(-0.0114747 -1.28247 -0.643137)
(-0.0142257 -1.27473 -0.836674)
(-0.0518935 -0.911942 -0.767097)
(0.0540879 -0.906735 -0.937498)
(-0.00486402 -0.97388 -0.669476)
(0.0731283 -0.959172 -0.93169)
(0.00343809 0.0847129 -0.0103082)
(0.0226085 0.090611 -0.0223037)
(-0.0015932 0.0408552 0.0121505)
(-0.0241541 -0.00623582 -0.00249476)
(-0.00845678 0.0189085 0.0365047)
(0.00336447 0.0713108 -0.0209309)
(0.0269553 0.0772673 0.0192895)
(-0.0039139 0.209178 -0.0550454)
(-0.00314804 0.212876 -0.0520773)
(0.000170236 0.203032 -0.0642443)
(0.00263885 0.213624 -0.0557473)
(0.00353632 0.206404 -0.0587405)
(0.000847127 0.216342 -0.051818)
(-0.000144102 0.212206 -0.0543306)
(0.000455851 0.219473 -0.0217625)
(-0.00174444 0.223982 -0.0191986)
(-0.000803729 0.227552 -0.0168693)
(0.00131061 0.224816 -0.0199963)
(0.00207338 0.228816 -0.0168968)
(0.000624829 0.224424 -0.0177458)
(0.00151344 0.225467 -0.01503)
(-0.00447879 0.211834 -0.00571684)
(0.000562515 0.208301 -0.0182332)
(-0.00160483 0.209471 -0.00820505)
(0.00228365 0.214498 -0.0123594)
(0.00141576 0.216114 -0.0096072)
(0.000852531 0.212396 -0.00645563)
(-0.000275814 0.216446 -0.00442261)
(0.00063577 0.207172 -0.0139627)
(-0.00246445 0.205101 -0.00962755)
(-0.000176963 0.204283 0.00019675)
(0.00119513 0.210933 -0.00467094)
(0.00304634 0.210647 -0.00803079)
(-8.53509e-07 0.209185 -0.0111691)
(0.000276013 0.210419 -0.0139479)
(0.00374559 0.205432 0.00161767)
(-0.000800993 0.210561 0.00152808)
(-0.000166747 0.211923 -0.00781445)
(-0.000989723 0.208889 -0.000371048)
(0.000332091 0.212304 -0.00130822)
(-0.00203184 0.212971 0.00337012)
(-0.00171741 0.213569 0.00200803)
(0.000503918 0.20794 -0.00129707)
(0.000157215 0.209544 0.00584087)
(2.64153e-05 0.207444 -0.000331516)
(0.000267588 0.211748 0.000401238)
(-0.0027435 0.205136 0.000938658)
(-0.00171551 0.206064 -0.00257304)
(-2.25629e-05 0.209214 -0.00218997)
(-0.000560262 0.199885 -0.0054221)
(-0.0005322 0.194352 -0.00234984)
(-0.00202166 0.200645 -0.00716845)
(0.00298137 0.192917 -0.00942471)
(0.000453936 0.194083 -0.00774046)
(-0.00138019 0.198286 -0.00914382)
(-0.00151155 0.199807 -0.0110035)
(-0.000370031 0.185022 0.000118586)
(-0.0011034 0.195415 -0.0125228)
(-0.00329154 0.191479 -0.00788076)
(0.00246112 0.195781 -0.0109713)
(0.00256025 0.193067 -0.00794305)
(-2.43135e-06 0.195073 -0.0145291)
(-0.000579742 0.19418 -0.0126153)
(0.000318566 0.164446 -0.0316913)
(0.00380102 0.177285 -0.0263421)
(0.00245133 0.171059 -0.0274063)
(-0.00314435 0.171502 -0.0229175)
(-0.00346237 0.178321 -0.0196708)
(0.00168881 0.17881 -0.0189795)
(0.00232728 0.173195 -0.020643)
(0.000505386 0.184224 -0.103687)
(0.00514448 0.204061 -0.0953428)
(0.00349076 0.197346 -0.100836)
(-0.00471342 0.186148 -0.0896052)
(-0.0037898 0.188759 -0.0863444)
(0.00211512 0.196894 -0.0854016)
(-0.000382288 0.196059 -0.0904752)
(0.000948073 0.25293 -0.149548)
(-0.00678017 0.250293 -0.124647)
(0.00957133 0.261764 -0.11886)
(-0.00279817 0.254327 -0.16306)
(-0.00874356 0.246785 -0.155488)
(-0.00685806 0.249268 -0.127311)
(0.00691364 0.264675 -0.128077)
(-0.00372487 -1.89864 -0.00928646)
(0.00629673 -1.89514 -0.00535956)
(0.00527217 -1.90448 0.00183301)
(-0.00199139 -1.87943 -0.0156968)
(-0.000393044 -1.88104 -0.0213224)
(0.00477948 -1.87789 -0.0275439)
(0.00381779 -1.89316 -0.0290824)
(0.000720798 0.480635 -0.0295321)
(-0.0125254 0.497609 -0.0664149)
(0.00160955 0.52656 -0.0836474)
(-0.00294363 0.479737 -0.104757)
(-0.0286577 0.495396 -0.138252)
(-0.0329715 0.492377 -0.123744)
(-0.0311992 0.480663 -0.0660094)
(0.00150677 0.645694 -0.401721)
(-0.00100992 0.638097 -0.428669)
(-0.00207538 0.626286 -0.402386)
(0.00338761 0.680136 -0.456199)
(0.0132826 0.69794 -0.457283)
(0.0150834 0.660147 -0.43247)
(0.026072 0.686535 -0.439863)
(-0.0085652 0.229312 0.179035)
(-0.0280409 0.277258 0.173195)
(-0.000634871 0.213392 0.127853)
(0.00199331 0.233079 0.0749586)
(0.00662082 0.203612 0.0605976)
(0.00352542 0.297364 0.117479)
(-0.00291245 0.237454 0.128082)
(0.011669 0.459473 -0.0259557)
(0.00589443 0.498285 -0.0799304)
(-0.0264634 0.470383 0.0582062)
(0.0487066 0.211049 0.104744)
(0.0508057 0.317097 -0.00868665)
(0.028743 0.161637 -0.0843738)
(0.0810897 0.231553 -0.103752)
(-0.004048 0.274511 -0.0550611)
(-0.0175258 0.234511 -0.0775667)
(-0.0323411 0.344314 -0.0419894)
(0.0452205 0.330925 0.0931806)
(0.036122 0.224557 0.0185278)
(0.00765254 0.296022 -0.0216262)
(-0.0388211 0.225824 -0.082425)
(0.0201321 0.142822 0.00415621)
(0.0324733 0.155805 -0.0555571)
(-0.0455766 0.177423 -0.146191)
(-0.0699161 0.162128 -0.141712)
(0.00543426 0.116789 -0.0412732)
(0.0843495 0.0331773 0.0771558)
(-0.00555623 0.0851476 -0.0190288)
(-0.00820824 0.0502025 -0.00977689)
(-0.0375858 0.181378 -0.0893176)
(-0.0232931 0.238434 -0.0516273)
(0.00787669 0.170915 -0.406542)
(0.0285659 0.109209 -0.370752)
(-0.00606875 0.128388 -0.356672)
(-5.75901e-05 -0.0574701 -0.36839)
(-0.0273183 0.05285 -0.425949)
(-0.00133131 0.0204259 -0.401523)
(-0.0253501 0.0810762 -0.438913)
(-0.00122565 0.077164 -0.591649)
(-0.0104621 0.112244 -0.584665)
(-0.0111525 0.102658 -0.58053)
(-0.0105616 0.148689 -0.584794)
(0.0241468 0.159503 -0.57786)
(-0.00593075 0.109777 -0.593761)
(-0.00970001 0.121989 -0.579446)
(0.00402435 1.73335 -0.950841)
(0.00206855 1.65046 -1.18117)
(-0.00815046 1.66086 -1.08456)
(-0.0178032 1.72639 -1.06713)
(-0.0150707 1.61522 -1.12278)
(0.0155891 1.70625 -1.16986)
(-0.00609182 1.71208 -1.11503)
(-0.0102716 0.665419 -0.281097)
(-0.114546 0.0936426 -0.75476)
(-0.103976 0.656862 -0.642716)
(0.145895 0.0162551 -0.296447)
(-0.0102343 -0.789481 -0.524817)
(-0.140946 -0.512669 -0.708344)
(-0.0692368 0.0436826 -0.635289)
(0.00356577 -0.25347 -0.84485)
(-0.0365137 -0.154042 -0.925323)
(-0.120547 -0.0731685 -0.924848)
(-0.00858759 0.0717566 -0.787526)
(0.0813628 -0.0594496 -0.85348)
(0.0373271 -0.00897375 -0.885811)
(-0.0814369 0.0153536 -0.882245)
(-0.000600983 0.162876 -0.117716)
(-0.00383431 0.172476 -0.115316)
(0.00128935 0.136878 -0.106757)
(0.00738695 0.182562 -0.130209)
(-0.00061925 0.17315 -0.141779)
(0.00138971 0.194594 -0.126607)
(-0.00228461 0.183565 -0.138506)
(-7.27761e-05 0.206324 -0.0716934)
(-0.00128338 0.209934 -0.0671816)
(0.00033546 0.215065 -0.0633238)
(0.000661385 0.216692 -0.0693565)
(0.000887421 0.210509 -0.0727642)
(0.00041122 0.209052 -0.0670767)
(0.000288826 0.212939 -0.0633006)
(-0.00327961 0.229158 -0.0184667)
(-0.00088727 0.230664 -0.0183668)
(0.000255115 0.222787 -0.0271611)
(0.00224122 0.233487 -0.0237752)
(0.00226956 0.230467 -0.0240171)
(0.00251119 0.232544 -0.0196226)
(-9.89569e-06 0.23212 -0.0190039)
(-0.0259344 0.170427 0.00498312)
(-0.00545475 0.227793 -0.019688)
(-0.0275189 0.0653231 0.00440069)
(-0.0212348 0.186955 0.00500587)
(-0.0299286 0.190438 0.0154865)
(-0.0266662 0.223819 0.020426)
(-0.0145042 0.237111 -0.00282399)
(0.00387662 0.20631 -0.0167447)
(-0.000600561 0.201086 -0.000672666)
(0.00381382 0.205416 -0.0128274)
(-0.00271228 0.212988 -0.0140596)
(-0.00499456 0.210559 -0.00963634)
(-0.00187906 0.211051 -0.0178732)
(-0.00149433 0.211031 -0.0163237)
(-0.00122611 0.137675 -0.00979822)
(-0.000954154 0.139783 -0.013189)
(-0.00038023 0.138419 -0.0147199)
(-0.000368581 0.137151 -0.0241911)
(0.00140663 0.130053 -0.0205492)
(-0.000150902 0.138989 -0.0180077)
(0.000836871 0.13504 -0.0144844)
(0.000150004 0.12298 -0.0340911)
(-0.000371404 0.127332 -0.0339589)
(-0.000359235 0.122035 -0.0396193)
(-0.00278338 0.123996 -0.0423456)
(0.00230875 0.118547 -0.0401528)
(-0.0013087 0.123728 -0.0360911)
(0.00223327 0.119257 -0.0333624)
(-0.000767928 0.305266 0.045255)
(0.00536323 0.365803 0.079806)
(0.000789365 0.353503 0.0672686)
(-0.0148985 0.383088 0.0335636)
(0.00909653 0.428916 0.0489238)
(0.00217908 0.399807 0.0701446)
(-0.0160294 0.392113 0.0548092)
(-0.00458052 0.723541 -0.414167)
(0.00195694 0.692096 -0.434752)
(0.0122916 0.725568 -0.399257)
(0.0103249 0.684835 -0.451369)
(0.0202693 0.681977 -0.453158)
(0.0296351 0.712936 -0.439486)
(0.0506484 0.709326 -0.444465)
(-0.0377033 0.916782 -0.166277)
(0.00300905 0.914018 -0.119159)
(0.00135151 0.934586 -0.340895)
(0.00231111 0.928311 -0.242355)
(-0.0213643 0.933848 -0.281739)
(-0.0220935 0.915357 -0.124869)
(-0.0493271 0.916247 -0.159191)
(-0.0372814 0.791122 -0.375553)
(-0.0720045 0.876849 -0.275683)
(-0.00417547 0.700948 -0.444367)
(0.0433098 0.706015 -0.321738)
(0.0127744 0.755084 -0.189055)
(-0.0612707 0.840082 -0.213939)
(-0.0111773 0.773009 -0.303049)
(-0.00607139 0.259178 0.0943999)
(0.00448367 0.234715 0.13171)
(-0.023277 0.219323 0.0905204)
(0.0200565 0.247061 0.135023)
(0.00948817 0.197983 0.148531)
(-0.0118048 0.234277 0.133165)
(-0.00627245 0.297889 0.115835)
(-0.0550501 0.162038 0.0937938)
(-0.0384622 0.105161 0.110808)
(0.010537 0.278195 0.0358755)
(0.0259673 0.148198 0.0437265)
(0.0127418 0.144011 0.0132454)
(-0.0132507 0.0845635 0.031297)
(-0.0319542 0.0953304 0.0757247)
(0.0312836 -0.0498158 0.177759)
(-0.0163133 -0.0199192 -0.0519468)
(-0.0201565 0.0174099 -7.77955e-05)
(0.000141592 -0.0671279 0.0238243)
(-0.0747181 0.0157469 -0.0999765)
(-0.102631 -0.019669 -0.201016)
(0.00887589 -0.155895 -0.0896061)
(-0.0143913 0.0333532 0.0184062)
(0.0113222 -0.0505463 -0.0724555)
(-0.044776 -0.16099 0.0202132)
(0.195035 0.0307079 -0.243213)
(-0.0628967 -0.0922671 -0.0624987)
(-0.0315956 -0.0666161 -0.0190784)
(0.14841 0.00972925 -0.055679)
(-0.00895661 0.159941 -0.430706)
(0.0154492 -0.0210847 -0.319303)
(0.0613553 -0.02042 -0.353614)
(0.00647112 0.0658567 -0.55638)
(0.0193335 0.0956943 -0.586783)
(0.077686 -0.0208092 -0.49767)
(0.118439 -0.0647726 -0.462261)
(0.00426139 -2.59659 -0.229686)
(0.0337842 -2.71879 -0.08561)
(0.0107389 -2.3527 -0.21688)
(0.00968191 -2.48919 -0.00505998)
(-0.00663179 -2.42611 -0.0917428)
(0.00285425 -2.62857 0.0108416)
(-0.00814747 -2.61307 -0.116913)
(0.00488418 -2.45882 -0.0302678)
(-0.000390242 -2.46326 -0.0222301)
(-0.0012671 -2.44703 -0.0262086)
(-0.00347523 -2.47779 -0.0134986)
(-0.00642134 -2.48488 -0.0125815)
(-0.00010737 -2.4653 -0.0211836)
(-0.00451048 -2.4658 -0.0186588)
(-0.0366296 -1.27358 -0.115042)
(-0.00033262 -1.26873 -0.123917)
(-0.00535393 -1.15373 -0.0824534)
(0.0910925 -1.07478 -0.12992)
(0.0469252 -1.12947 -0.118077)
(0.066564 -1.15463 -0.161115)
(0.0432181 -1.20608 -0.148678)
(0.00167054 0.286667 -0.157429)
(0.00443356 0.276674 -0.164068)
(0.000370045 0.254475 -0.16966)
(-0.00326025 0.27041 -0.137723)
(-0.0045781 0.262678 -0.1464)
(-0.00206215 0.273289 -0.146367)
(-0.00136498 0.274549 -0.140246)
(-0.00350308 0.233347 -0.0649623)
(-0.00492774 0.239982 -0.0594969)
(0.000555007 0.226891 -0.0785329)
(0.00428226 0.245933 -0.0637177)
(0.00363766 0.23949 -0.0688509)
(0.00109605 0.243462 -0.0558997)
(0.00266721 0.240013 -0.0596064)
(-0.0206049 0.098497 -7.79311e-05)
(-0.00986745 0.212213 -0.0100505)
(-0.0205904 0.215285 0.0118006)
(-0.0165369 0.21322 -0.00143139)
(0.00329098 0.226371 -0.00973494)
(-0.0059392 0.255992 -0.0148023)
(-0.0203185 0.247207 0.00436067)
(0.00170926 0.274409 0.0056037)
(-0.00499757 0.244006 -0.00803056)
(-0.000917888 0.259985 -0.00582401)
(-0.000311232 0.226708 -0.000583002)
(0.000191301 0.244242 -0.00262466)
(-0.0316408 0.0634624 0.00743298)
(-0.0255014 0.166586 0.0100838)
(0.00305337 0.246521 -0.0188978)
(-0.0110323 0.199164 -0.00890556)
(-0.0163396 0.188074 0.018683)
(-0.0150709 0.219983 0.0135584)
(-0.00464867 0.247864 -0.0183592)
(-0.000386835 0.245448 -0.022146)
(-0.0249802 0.197481 0.0109173)
(-0.00632068 0.238058 -0.0137159)
(-0.00475319 0.240654 -0.00560602)
(-0.0152403 0.224389 0.00817141)
(0.0140582 0.22244 0.01244)
(0.033141 0.246024 -0.00245984)
(-0.00320441 0.2244 -0.0094318)
(0.0112029 0.225135 0.00793491)
(-0.00609259 0.194265 0.0178374)
(-0.000474626 0.0990703 -0.0405405)
(-0.00358516 0.103712 -0.0462464)
(0.000206072 0.0933149 -0.0434636)
(-0.00025243 0.103952 -0.0346337)
(0.0019407 0.11431 -0.034851)
(-0.00149408 0.111413 -0.0411347)
(-0.000708326 0.0999677 -0.0358056)
(0.00175283 -0.274897 -0.357743)
(0.0259274 -0.139315 -0.372412)
(0.0262332 -0.191921 -0.399517)
(-0.0168234 -0.233868 -0.281714)
(-0.00288716 -0.263586 -0.312202)
(0.0132981 -0.201209 -0.339381)
(0.0344508 -0.20315 -0.391178)
(-0.00022428 0.321836 0.141323)
(7.02277e-05 0.349633 0.118598)
(-0.0077254 0.322788 0.106865)
(0.00382905 0.30104 0.142975)
(0.00153735 0.317128 0.163685)
(-0.00802361 0.342741 0.151183)
(-0.00694435 0.318231 0.118511)
(0.0012355 0.30256 0.103345)
(0.00019027 0.294863 0.0951468)
(-0.00519588 0.299605 0.106694)
(0.000386064 0.299728 0.0891297)
(0.000449534 0.292621 0.0938185)
(-0.00337099 0.298393 0.102792)
(0.00162142 0.303661 0.0929384)
(0.00173821 0.421839 0.0768971)
(-8.24705e-05 0.418485 0.0663671)
(0.00303868 0.418674 0.0681534)
(0.000353152 0.429496 0.0738983)
(-0.00190694 0.430231 0.0859921)
(0.00132793 0.425103 0.0732559)
(-0.00105186 0.427825 0.0851558)
(0.00340815 0.443754 0.151825)
(4.90004e-05 0.427994 0.136995)
(0.00197072 0.431789 0.160199)
(-0.000543474 0.425881 0.137524)
(0.00120078 0.430663 0.133388)
(0.000555324 0.427849 0.149855)
(0.00534429 0.440585 0.143649)
(0.000656616 0.137874 0.326201)
(-0.0320032 0.274664 0.510975)
(-0.0116932 0.147168 0.399092)
(-0.00155745 0.235642 0.138493)
(-0.00489993 0.395893 0.332746)
(-0.0166352 0.351915 0.466833)
(0.00317992 0.194029 0.273355)
(-0.00315861 0.563915 -0.746653)
(-0.00902175 0.576901 -0.694015)
(-0.00458991 0.683896 -0.72157)
(-0.00122212 0.642534 -0.701579)
(0.0188302 0.637302 -0.725221)
(-0.0108793 0.566735 -0.70377)
(0.00565886 0.562093 -0.728443)
(0.00297117 -0.265968 0.0427546)
(-0.00965925 -0.247178 0.113124)
(0.00622763 -0.226495 0.0781739)
(-0.00944835 -0.280639 -0.0148185)
(0.00531271 -0.356964 0.0197434)
(0.00117686 -0.341298 0.0692326)
(0.00473559 -0.253682 0.0161988)
(0.0396522 -0.0917868 -0.00288723)
(-0.00500316 -0.286809 0.0200985)
(0.0710314 -0.0992537 0.0298202)
(0.0738138 0.00717462 0.0199815)
(0.00337385 -0.260273 0.0773406)
(0.0279859 0.102599 0.0761115)
(-0.00177417 0.124539 0.0502038)
(0.00193981 0.193435 0.0400293)
(0.0121502 0.128845 0.0564516)
(-0.0211389 0.151874 0.0449068)
(-0.000599318 0.131219 0.0640369)
(0.0181374 0.122479 0.0837353)
(-0.00403225 0.208273 -0.258425)
(0.00922312 0.185636 -0.235387)
(0.000223457 0.200118 -0.298618)
(0.0289702 0.0860116 -0.294677)
(-0.0211608 0.104079 -0.326957)
(0.0280029 0.109803 -0.237604)
(0.00672645 0.166797 -0.270772)
(-0.049905 0.296264 -0.347814)
(-0.0614065 0.295298 -0.313488)
(-0.000944077 0.366472 -0.34952)
(0.0707075 0.0234794 -0.280298)
(-0.00175677 0.1123 -0.345832)
(-0.018356 0.183344 -0.341464)
(-0.00494893 0.172448 -0.380922)
(-0.0325899 -0.0611462 -0.192049)
(-0.00839761 0.0388067 -0.0032412)
(0.0656276 0.075049 -0.0721488)
(0.053973 -0.0252338 -0.0153771)
(-0.0261918 -0.0506387 -0.0305846)
(0.108291 0.0143291 0.119361)
(-0.0115435 0.0193915 0.00242465)
(-0.0181284 0.821917 -2.3307)
(-0.0341391 0.962533 -2.49957)
(0.011971 0.636143 -2.34879)
(0.0461943 0.70415 -2.62611)
(-0.0789764 0.487564 -2.37407)
(0.014564 0.938411 -2.7148)
(-0.0566244 0.644285 -2.47252)
(-0.0977289 -0.888257 -1.47845)
(0.056774 -0.820163 -1.379)
(0.0257968 -1.05852 -1.0986)
(-0.00744159 -1.69223 -0.668827)
(0.0132876 -1.85401 -0.717841)
(0.068275 -1.56272 -0.933599)
(-0.0415513 -1.51402 -0.946768)
(-0.00817208 -2.37789 0.16811)
(-0.0301973 -2.61006 -0.083596)
(-0.0372611 -2.63289 -0.110765)
(0.0201033 -2.62738 -0.0972376)
(0.0725534 -2.55571 -0.0488415)
(0.0250809 -2.6989 -0.164193)
(-0.0215527 -2.72837 -0.160311)
(-0.0864283 0.547613 -0.571148)
(-0.00353785 0.583053 -0.641336)
(-0.0013447 0.628355 -0.712394)
(0.018539 0.670404 -0.675317)
(-0.0532962 0.683796 -0.637684)
(-0.064166 0.606431 -0.632643)
(-0.159491 0.602409 -0.578239)
(-0.00110253 0.479769 -0.323793)
(0.0194296 0.465867 -0.303534)
(-0.00510403 0.432091 -0.309507)
(-0.0195464 0.478971 -0.23786)
(0.0224553 0.510646 -0.246274)
(0.028008 0.488737 -0.258258)
(-0.00697651 0.425578 -0.253487)
(-0.0126146 0.106314 0.00104666)
(-0.00709925 0.234024 -0.00649037)
(-0.0187855 0.224279 0.0173572)
(-0.0131618 0.216197 -0.00966736)
(0.00143214 0.231171 -0.0247075)
(-0.00483909 0.275927 -0.0289868)
(-0.0182789 0.255354 -0.00013826)
(0.00098945 0.271438 0.0046592)
(-0.00492435 0.253674 -0.0167325)
(-0.00139667 0.261219 -0.0103797)
(-0.00256459 0.252619 0.00287499)
(-0.00242586 0.261367 -0.0142265)
(-0.000227605 0.223128 -0.0269338)
(0.000917534 0.231146 -0.0183283)
(0.00314432 0.229591 -0.018307)
(-0.00226593 0.230617 -0.023865)
(-0.00209221 0.233606 -0.0236255)
(-0.00230423 0.232798 -0.0194312)
(0.000140148 0.232331 -0.0188111)
(-0.000188055 0.206694 -0.035525)
(-0.000843445 0.215417 -0.0414391)
(-0.00235415 0.215263 -0.0405721)
(9.80344e-05 0.210191 -0.0421363)
(0.00206859 0.21336 -0.0450271)
(-0.00143732 0.215028 -0.0449913)
(-0.00363229 0.213064 -0.0439142)
(-0.000252378 0.190006 -0.0436187)
(-0.00197083 0.204636 -0.0489701)
(-0.00195395 0.20125 -0.0455787)
(0.0015967 0.193997 -0.0497818)
(0.000650372 0.196263 -0.0538127)
(-0.00215968 0.200848 -0.0540946)
(-0.00154058 0.198705 -0.0502322)
(0.000743447 0.121538 0.0115793)
(-0.00595103 0.115856 0.000888029)
(0.00481413 0.111733 0.00512632)
(-0.000970062 0.11364 -0.0103834)
(0.00198163 0.105098 0.000353592)
(-0.000956994 0.10845 -0.0052894)
(0.00275636 0.100626 0.0151287)
(0.00973624 0.0820529 0.0083171)
(-0.00185917 0.105291 0.0168438)
(-0.00821373 0.104124 0.000916941)
(-0.0154797 0.117139 0.00655807)
(-0.0139799 0.113865 0.00606338)
(-0.00116872 0.104924 -0.0012319)
(0.0117705 0.102589 0.00635645)
(0.0147115 0.0741405 0.0117177)
(-0.00318499 0.0958317 0.00365687)
(-0.000579164 -1.66913 -0.0374845)
(-0.000579665 -1.65725 -0.0209696)
(-0.00163781 -1.67109 -0.0531135)
(-0.00287942 -1.63508 -0.0332922)
(0.000227262 -1.66105 -0.0473532)
(-0.00374054 -1.64129 -0.0246806)
(-0.000425311 -1.66269 -0.0393323)
(-0.0361591 0.0995932 0.18603)
(0.0103648 0.153081 0.0901494)
(-0.00259747 0.0913235 0.0341659)
(-0.00315361 0.193269 0.0358793)
(-0.0136455 0.116793 0.0460605)
(0.0276126 0.173474 0.0589799)
(-0.0223409 0.0546176 0.0743031)
(0.000322457 0.248593 0.0471381)
(-0.00191907 0.254491 0.0598525)
(0.00238435 0.263083 0.0580218)
(-0.00129576 0.250571 0.0355045)
(-0.00131199 0.244465 0.0416008)
(-0.00140606 0.250978 0.0530744)
(-0.00040403 0.260553 0.0467413)
(-0.00199367 0.346986 0.0348669)
(0.000537997 0.328653 0.0362249)
(0.00158279 0.350755 0.0434258)
(0.00191661 0.332778 0.0484193)
(0.00131926 0.329541 0.0389428)
(0.00207688 0.348694 0.0467376)
(-0.000504216 0.343917 0.0357993)
(-0.00435456 0.43387 0.030018)
(0.00398613 0.443958 0.0357846)
(0.00109567 0.426978 0.00907045)
(0.0002131 0.421398 0.000244443)
(-0.00100916 0.418162 0.00301735)
(0.0029018 0.434491 0.0218754)
(-0.00239313 0.429944 0.0241903)
(0.000932441 0.50836 0.19631)
(0.023616 0.536182 0.206243)
(-0.00898785 0.539314 0.276661)
(-0.0394313 0.496901 0.372385)
(-0.0291018 0.521338 0.280353)
(-0.0170183 0.549444 0.257813)
(-0.0508916 0.510017 0.35427)
(-0.0122967 0.238961 0.660905)
(0.0189441 0.341844 0.74187)
(0.0036142 0.203521 0.629257)
(0.00258481 0.296311 0.723524)