/*--------------------------------*- C++ -*----------------------------------*\
| =========                 |                                                 |
| \\      /  F ield         | OpenFOAM: The Open Source CFD Toolbox           |
|  \\    /   O peration     | Version:  v2012                                 |
|   \\  /    A nd           | Website:  www.openfoam.com                      |
|    \\/     M anipulation  |                                                 |
\*---------------------------------------------------------------------------*/
FoamFile
{
    version     2.0;
    format      ascii;
    class       volScalarField;
    location    "0.2";
    object      alpha.water;
}
// * * * * * * * * * * * * * * * * * * * * * * * * * * * * * * * * * * * * * //

dimensions      [0 0 0 0 0 0 0];


internalField   nonuniform List<scalar> 
6576
(
1
1
1
1
1
1
1
1
1
1
1
1
1
1
1
1
1
1
1
1
1
1
1
1
1
1
1
1
1
1
1
1
1
1
1
1
1
1
1
1
1
1
1
0.0529573
0.0529445
0.0366787
0.0526088
0.0411333
0.0427817
0.0233845
0.0233417
0.0430537
1.79369e-33
3.74273e-33
2.42669e-33
7.13106e-33
2.47968e-33
1.82313e-33
5.28182e-33
1.25479e-29
1.53471e-29
1.73006e-29
6.33323e-29
2.79812e-29
2.46923e-29
3.98098e-29
1.01646e-24
6.75303e-25
4.58244e-25
3.99841e-25
6.22849e-25
2.84047e-25
3.4261e-25
0.00165911
0.000279644
0.00296694
0.000227617
0.0024886
0.0070726
0.001253
1.78207e-05
7.34716e-06
7.48802e-06
1.35323e-05
1.79849e-05
7.22208e-06
1.82007e-06
0.00766012
0.00489612
0.0049326
0.00500455
0.00847101
0.00594772
0.00969212
0.0103773
0.000898997
0.0300923
0.00266782
0.000820052
0.0223648
0.0100664
0.999976
0.999731
0.999982
0.999956
0.999978
0.999901
0.998995
0.998377
0.998085
0.997437
0.993155
0.987549
0.991368
1.35315e-06
6.98805e-59
2.62928e-07
5.85758e-10
4.64556e-11
1.12259e-07
1.46573e-07
0.175816
0.780582
0.946992
0.960166
0.921966
0.983747
0.919585
1.33189e-15
1.04341e-16
3.34261e-72
3.0841e-10
8.3896e-11
1.27492e-10
2.95671e-11
2.04136e-14
2.06886e-15
7.92811e-15
2.79037e-14
3.03385e-14
5.31778e-15
1.18817e-14
4.56062e-13
1.17577e-12
8.84885e-14
1.52796e-12
1.47955e-12
1.58113e-13
6.1237e-13
3.00643e-13
3.15152e-13
1.8912e-13
3.84357e-13
1.27692e-13
7.90033e-14
2.98862e-13
2.5331e-12
1.80777e-11
4.72771e-11
3.86322e-12
1.60484e-11
6.02766e-11
5.81973e-11
4.36351e-11
7.15238e-12
1.22259e-11
6.31924e-12
1.18038e-11
1.84061e-11
4.69578e-12
2.62248e-12
1.29565e-11
4.32074e-11
1.74256e-10
6.72491e-10
7.88453e-11
1.71844e-10
9.15716e-10
8.52177e-10
4.15795e-10
2.10542e-10
3.70298e-09
3.71433e-08
4.18607e-08
5.76257e-09
2.64661e-08
2.12329e-08
2.39461e-08
7.70865e-09
1.33206e-08
5.27323e-07
5.50589e-08
1.08257e-07
1.42628e-08
2.64215e-08
3.38246e-08
8.9868e-08
2.41895e-06
4.3286e-06
9.35633e-06
2.39933e-06
1.19334e-06
1.96434e-06
5.16148e-06
1.95211e-05
2.48751e-05
4.23872e-05
1.98179e-05
3.42743e-05
3.86038e-05
2.64959e-05
4.01506e-06
5.43676e-06
4.82469e-06
1.1287e-06
3.64939e-07
1.15615e-06
2.28639e-06
2.1213e-06
6.22046e-06
7.61137e-06
3.60103e-07
6.81758e-07
2.58514e-06
1.85843e-06
4.65641e-08
1.10999e-07
4.67945e-08
4.92275e-07
1.26582e-07
5.47128e-08
2.97831e-07
1.04926e-09
1.0146e-09
8.62359e-10
1.60724e-09
3.47109e-09
1.81528e-09
1.43229e-09
3.90654e-11
6.98667e-11
9.72338e-11
6.67166e-11
4.66358e-11
7.70286e-11
2.2891e-11
3.13249e-12
5.71951e-12
2.3001e-12
3.44649e-12
5.17354e-12
3.60468e-12
7.0644e-12
5.16748e-12
2.54331e-12
1.25793e-13
1.86716e-13
9.38717e-14
2.72459e-13
1.93048e-13
3.38348e-13
2.11565e-13
5.02613e-18
2.19922e-18
3.46598e-18
3.88407e-17
1.54242e-17
7.4912e-18
1.42457e-17
0.992128
0.995936
0.984885
0.999255
0.985074
0.712417
0.972451
0.926269
0.992022
0.00998448
0.0190053
0.0101488
0.00848716
0.00846235
0.0214468
0.0149699
0.00484822
0.00451053
0.00670744
0.00670744
0.00670722
0.00275843
0.00397258
0.00670722
0.00316072
0.019173
0.00846235
0.016219
0.0057561
0.00472839
0.00571847
0.00472839
0.00472865
0.00473171
0.00472865
0.00132162
0.00201389
0.00142461
0.00451051
0.00198538
0.00247694
0.00583414
0.0886847
0.0377981
0.0184966
0.0348535
0.0227376
0.0191493
0.0188791
0.0174542
0.0183508
9.51712e-07
3.44449e-06
5.58902e-06
2.70432e-06
1.71439e-06
4.85806e-06
1.63825e-05
0.000542069
0.000540559
0.000544103
0.000147398
0.000262013
0.000273152
0.000152283
0.000244136
0.000145098
0.000412786
0.000178312
0.000289441
0.000252264
0.000473052
0.000473032
0.00024137
0.00227098
0.0334434
0.0217217
0.0018915
0.0237867
0.00556219
0.0138453
0.0131442
0.0035562
0.998859
0.997529
0.992935
0.998179
0.998103
0.95076
0.978601
0.999145
0.984735
0.998549
0.998922
0.995121
0.707313
0.975089
0.952387
0.994346
0.0257647
0.00930913
0.0380165
0.057662
0.0975802
0.0197812
0.0288285
0.0028144
0.00203228
0.00277267
0.00724579
0.00421278
0.00419451
0.00242132
0.000403682
0.000448473
0.000244146
7.9026e-05
0.00026128
8.33995e-05
0.000116223
0.000286011
0.000190526
6.98151e-07
8.96619e-07
6.95681e-07
7.65546e-07
7.01875e-07
1.07425e-06
6.98151e-07
3.49873e-05
3.38597e-05
3.60218e-05
0.000372059
0.000223953
0.000316419
0.00011262
3.56916e-05
7.13026e-05
0.0407586
0.103698
0.32603
0.0941594
0.0340675
0.0216817
0.10147
0.948277
0.948228
0.948277
0.883873
0.947749
0.911604
0.948146
2.21352e-17
9.29771e-17
5.41396e-17
6.17043e-17
3.06701e-17
1.64403e-16
8.83724e-17
8.77305e-20
1.76198e-19
3.20052e-20
8.48353e-20
9.88568e-20
4.86171e-20
3.61723e-20
2.34861e-22
2.1235e-22
1.81277e-22
3.14067e-22
6.0562e-22
3.87699e-22
2.91409e-22
5.63045e-25
9.00871e-25
6.66641e-24
2.87965e-24
1.56332e-24
1.52626e-23
6.73229e-23
7.31758e-24
1.3448e-23
1.67514e-25
6.05813e-26
9.09176e-26
1.66402e-25
9.77393e-25
2.74136e-25
1.01017e-24
6.08662e-29
9.03127e-28
1.45825e-28
5.26467e-29
1.93693e-29
3.28152e-28
6.93755e-29
1.17894e-28
5.09557e-29
1.97754e-29
2.13561e-28
1.26858e-27
2.79379e-28
3.66403e-29
2.09845e-34
5.54752e-34
2.59673e-33
1.07975e-34
6.2239e-35
2.04783e-34
7.77772e-34
6.23341e-31
9.65247e-32
5.29442e-32
1.21894e-31
3.17898e-32
9.30643e-33
2.20874e-32
1.2531e-35
5.0877e-35
2.6589e-35
2.65139e-31
1.09088e-31
1.72195e-30
3.40179e-32
7.15482e-33
3.05051e-32
7.61272e-33
1.4653e-31
2.17529e-31
1.2367e-32
2.65283e-32
1.82547e-32
7.28803e-33
3.02649e-31
4.88113e-32
1.14769e-31
1.80791e-32
2.89756e-33
6.62599e-32
1.71552e-32
5.53781e-31
2.10442e-31
3.02154e-31
1.35137e-29
3.46818e-29
6.74387e-30
1.27265e-29
1.15338e-29
4.1245e-30
4.92869e-27
1.12868e-29
2.57196e-27
1.78183e-26
7.71647e-27
3.75637e-28
2.64601e-29
6.86222e-27
1.20795e-29
6.72799e-25
3.61362e-25
2.88819e-23
1.03027e-24
3.10035e-25
1.10531e-23
1.11797e-22
4.98677e-18
1.10781e-20
2.94937e-21
9.63729e-16
2.32945e-16
1.09326e-19
3.79772e-20
8.29888e-21
1.9953e-20
1.78959e-17
3.22153e-17
3.77205e-17
3.21655e-15
7.69125e-16
2.58386e-15
2.83052e-16
7.42921e-14
3.93097e-14
1.84734e-14
2.6657e-13
3.82938e-13
1.31665e-13
4.13775e-14
4.01409e-15
4.54665e-15
2.14014e-15
1.36652e-13
5.44971e-14
5.78172e-15
1.1438e-14
6.09922e-12
1.06953e-11
8.66305e-12
2.61835e-12
1.36072e-12
1.64263e-10
2.91974e-10
2.42513e-10
2.06954e-10
1.69675e-10
2.2465e-10
1.25365e-10
7.54353e-10
1.53401e-09
1.10696e-09
3.08009e-09
3.69936e-09
7.05002e-09
3.69036e-09
7.41636e-08
1.31445e-07
2.51728e-07
1.33576e-06
9.02794e-07
1.06403e-06
4.94525e-07
6.01651e-07
8.01866e-07
4.19374e-07
2.24811e-07
2.85369e-08
3.2601e-08
1.24702e-07
1.23733e-08
7.11678e-09
8.35541e-09
3.17944e-09
7.90692e-10
3.01579e-09
8.39797e-10
1.27294e-09
5.8445e-09
1.81475e-08
1.28152e-08
2.02723e-08
6.12997e-09
2.28982e-08
1.30318e-09
6.74443e-09
0.0028861
0.00115577
0.00094619
0.00071656
0.000523382
0.000451397
0.00165987
2.29189e-05
3.44425e-05
5.36813e-05
8.17346e-05
8.60123e-05
0.000249699
0.000201685
8.51978e-06
2.47115e-06
1.59599e-06
6.75217e-07
1.44394e-06
4.45683e-06
7.60306e-07
5.90391e-06
3.42995e-06
6.30698e-06
7.90861e-06
1.74435e-06
1.10947e-05
4.79642e-06
0.000378883
0.00030817
0.000239951
0.000391968
0.000280592
0.000787692
0.000334743
0.000429216
0.000133353
0.000709315
0.000774436
0.000508195
0.000935404
0.000539751
0.00131918
0.000777893
0.00182152
0.00113023
0.00655938
0.00825345
0.00825348
0.00410551
0.00461837
0.00817559
0.00825427
0.0082541
0.00825402
0.00423035
0.0031257
0.00750789
0.0031257
0.00825418
0.0042358
0.00791167
0.00707573
0.00593398
0.00548493
0.0054829
0.00812174
0.00825127
0.00560416
0.00238244
0.00261539
0.00460778
0.00486584
0.00261168
0.000953029
0.000760826
0.00286145
0.000990293
0.00106296
0.000761372
0.00568173
0.00235407
0.0019213
0.00135904
0.00389779
0.00472839
0.0087144
0.00472531
0.000453972
0.00094706
0.00315068
0.00183688
0.00191441
0.00816445
0.00557804
0.01071
0.0155313
0.0038304
0.00188999
0.00392877
0.0178492
0.0132757
0.0132653
0.0153978
0.0132831
0.0354263
0.0174234
0.999856
0.999803
0.999731
0.891032
0.939055
0.970121
0.986617
0.987775
0.994677
0.996589
0.96152
0.967291
0.91875
0.986492
0.994641
0.955533
0.903009
0.959846
0.946208
0.991729
0.994644
0.994639
0.999456
0.999459
0.996905
0.999919
0.999735
0.986804
0.995577
0.997306
0.998108
0.995467
0.999193
0.997729
0.999583
0.996583
0.995672
0.996733
0.98565
0.999905
0.993338
0.999957
0.999782
0.999985
0.999656
0.999786
0.999588
0.998253
0.990027
0.892502
0.973164
0.996726
0.990287
0.746756
0.996348
0.0181955
0.0154145
0.0153872
0.119624
0.0303804
0.0535271
0.0526449
0.0106902
0.00768625
0.00774159
0.00781124
0.00863727
0.0175274
0.00861123
0.299188
0.188242
0.0928368
0.714752
0.259217
0.109374
0.0901038
0.00310159
0.0322847
0.00782041
0.0392744
0.030467
0.0176884
0.0145836
0.00559299
0.00209777
0.00295735
0.00517589
0.0143663
0.0138797
0.0104293
0.000141331
0.00147268
0.00027632
0.000955999
0.00343797
0.000859776
0.00199499
0.000458677
0.000298186
7.71319e-05
3.25175e-05
0.000233535
6.94864e-05
0.000105651
4.48747e-05
0.000180018
3.15763e-05
8.51449e-05
0.000159634
7.84039e-05
0.000153113
6.41125e-05
1.57019e-05
6.06142e-05
3.23265e-05
1.35596e-11
1.10062e-11
1.35392e-11
5.79013e-12
1.70154e-12
3.00194e-12
8.02236e-12
1.07588e-10
3.77173e-10
3.85712e-10
9.05056e-11
2.79493e-10
3.08898e-10
2.35628e-10
3.68947e-11
1.85591e-11
5.8775e-12
6.64641e-12
3.1413e-12
8.89814e-21
8.58372e-21
6.10423e-21
8.70322e-21
1.62569e-20
1.18011e-20
5.67711e-21
2.83224e-23
9.39192e-23
3.5178e-23
2.72305e-22
8.7722e-22
1.67882e-22
9.78815e-23
3.18705e-19
1.72025e-18
1.99829e-19
3.85296e-19
6.5176e-20
3.82259e-20
8.28333e-20
4.46232e-24
5.92839e-23
1.034e-23
3.92655e-24
1.52465e-24
2.23705e-23
5.09231e-24
8.12686e-22
3.04525e-22
1.45787e-22
7.45397e-21
1.41094e-21
1.55913e-21
2.64382e-22
4.73476e-25
3.81874e-27
2.43704e-24
8.20225e-27
5.31588e-26
2.37948e-23
7.37138e-24
1.29197e-24
1.61091e-25
1.36695e-26
2.53468e-24
1.02601e-23
5.57372e-23
1.20924e-26
2.96744e-27
1.4546e-26
2.79391e-26
1.4086e-25
7.70997e-27
1.4378e-25
4.51854e-26
1.09064e-29
3.11661e-29
5.66531e-30
1.83023e-28
7.64105e-29
8.84209e-28
1.16008e-29
2.33098e-29
1.48172e-28
2.93192e-29
1.93231e-31
3.31051e-31
1.3016e-31
8.865e-32
1.13978e-31
4.75839e-31
1.15948e-31
6.83591e-28
6.41198e-28
1.51445e-27
1.3665e-27
5.89546e-28
5.49607e-28
2.30561e-27
3.3209e-25
3.53536e-25
2.60788e-25
9.03569e-25
7.42211e-25
1.39913e-24
3.9288e-23
2.26999e-22
3.97718e-22
9.68862e-24
2.18908e-21
1.30646e-21
1.64587e-19
1.647e-21
6.71386e-19
8.82705e-20
7.34202e-17
9.8488e-17
2.47274e-17
4.38623e-16
1.46137e-16
7.95322e-16
5.81854e-14
1.01067e-14
9.37295e-13
2.31353e-13
2.19243e-14
1.26037e-12
4.1462e-12
2.09141e-10
2.30908e-10
2.60518e-10
4.65743e-10
5.7654e-10
9.67543e-10
5.91262e-10
4.08784e-12
8.68883e-12
8.11191e-11
3.76788e-09
1.48511e-09
4.38636e-11
3.83504e-10
1.1435e-09
5.73853e-10
4.98195e-11
2.46824e-12
5.43478e-13
9.42162e-12
2.05102e-12
5.92082e-12
3.98308e-11
1.46779e-09
2.00295e-09
1.48068e-09
7.24438e-09
3.56102e-09
1.4711e-09
1.48371e-09
8.34397e-09
4.59061e-09
7.48537e-09
3.3174e-08
1.58838e-08
2.49752e-07
2.30586e-07
6.25264e-07
9.07604e-07
2.70559e-06
4.68257e-07
8.13877e-07
7.7045e-08
1.33576e-06
7.74551e-07
5.3228e-08
6.30598e-08
5.33088e-08
6.41354e-08
1.21068e-06
3.73602e-07
8.61696e-05
4.2618e-05
3.80588e-05
6.37515e-05
1.8197e-05
2.62153e-05
7.22583e-06
7.01708e-06
2.68858e-05
4.95001e-12
8.55499e-12
1.28623e-11
3.26314e-12
1.01596e-12
6.2065e-12
1.12248e-11
2.97023e-13
2.0969e-12
6.87703e-12
1.27863e-11
2.5794e-11
8.0054e-13
1.41531e-12
2.35551e-09
9.25228e-09
5.799e-10
9.24152e-10
2.70059e-09
5.57461e-11
6.26877e-11
1.76956e-10
4.57481e-11
4.19019e-08
4.36473e-08
3.79162e-07
9.20684e-09
2.95492e-08
1.23219e-07
9.84531e-09
2.6515e-06
9.91348e-07
9.7484e-07
1.82107e-06
1.99176e-06
1.01029e-06
9.7484e-07
5.42685e-05
2.46061e-05
5.17051e-05
1.70546e-05
2.41091e-05
2.05195e-05
3.11871e-05
2.06419e-05
4.39814e-05
1.25626e-05
1.21314e-05
3.31206e-05
1.21314e-05
3.71225e-05
2.77525e-05
1.51088e-05
0.000255323
0.000131932
0.000357662
0.000196432
0.000267694
0.000360043
0.000593903
0.000154528
0.000117997
0.000117997
0.000632838
0.00222285
0.0017553
0.00427966
0.00825413
0.00825413
0.000281147
0.000682114
0.000698183
0.000509188
0.000710939
0.000790949
0.000473587
0.998756
0.999935
0.999579
0.993507
0.978781
0.993492
0.972361
0.820965
0.765525
0.999514
0.999984
0.999201
0.999422
0.986317
0.994316
0.986039
0.978225
0.994255
0.959596
0.991335
0.994821
0.998685
0.99134
0.999129
0.999665
0.999104
0.99588
0.998201
0.998582
0.997997
0.988942
0.991238
0.992288
0.995028
0.992166
0.948
0.0522375
0.051668
0.0967346
0.0876771
0.310997
0.110493
0.0417327
0.0724258
0.0725722
0.123452
0.249677
0.921308
0.0981627
0.22949
0.548717
0.783066
0.345925
0.641745
0.345925
0.929482
0.833346
0.139172
0.106883
0.425335
0.0594241
0.917334
0.0677685
0.181935
0.0557343
0.0418157
0.399588
0.0863337
0.576546
0.0755052
0.112663
0.643303
0.787399
0.865784
0.774258
0.865788
0.865757
0.861918
0.000854691
0.00188742
0.00263113
0.0114557
0.0114867
0.00310443
0.00355494
0.00770593
0.00329237
0.00158541
0.00794742
0.00211891
0.000864806
0.00407552
4.82034e-07
7.68531e-07
2.99953e-06
4.07245e-06
3.3838e-06
7.22158e-07
1.72789e-06
8.69417e-15
1.17168e-14
1.08217e-14
5.40178e-15
3.64239e-15
8.00056e-15
8.87664e-15
2.89766e-19
1.81303e-19
7.72879e-20
3.62055e-19
2.67351e-18
4.57187e-19
8.46498e-20
2.75685e-19
1.71871e-19
4.10794e-19
1.31585e-18
3.36954e-18
6.12817e-19
1.1969e-18
6.5218e-18
1.45074e-17
9.97123e-18
4.66265e-17
1.06877e-16
4.04054e-17
2.23837e-17
3.439e-16
8.85416e-16
4.87098e-16
1.476e-15
6.0354e-15
9.31669e-16
1.88185e-15
4.90128e-18
1.18643e-17
1.62122e-17
1.55831e-17
5.31632e-17
3.15716e-17
1.30336e-16
1.16068e-16
2.97381e-17
4.63805e-17
4.38544e-16
1.0889e-16
4.92909e-17
2.21518e-17
2.12035e-16
6.60384e-17
1.31146e-16
6.14191e-17
3.11046e-17
2.16878e-16
8.99726e-16
2.44703e-16
5.11165e-17
3.33337e-19
1.57329e-18
1.73575e-19
4.23007e-19
1.72799e-19
4.9742e-20
8.71191e-20
5.38398e-22
1.40803e-21
1.40923e-21
1.7577e-20
3.38318e-21
7.39355e-21
1.82446e-21
4.33324e-19
3.54444e-18
7.54042e-19
1.83879e-22
8.65639e-22
3.46188e-22
4.46115e-25
8.47785e-25
2.16749e-24
2.66708e-23
5.62202e-23
1.55036e-22
3.0013e-22
4.95654e-23
1.50358e-21
2.694e-22
1.80164e-24
2.02015e-24
5.54184e-25
3.50911e-24
1.87058e-23
3.18672e-27
4.91508e-27
1.52092e-26
8.29349e-26
1.61646e-25
2.882e-26
1.38441e-26
2.21552e-25
1.00428e-24
4.09306e-25
1.86229e-25
2.75736e-25
6.74902e-25
3.71848e-25
5.00519e-27
6.06137e-27
7.30412e-27
9.52486e-27
2.26951e-26
1.80717e-26
1.02924e-26
1.87162e-20
3.29029e-21
9.59252e-21
1.72931e-19
5.31818e-20
1.52182e-16
5.52395e-16
1.30868e-18
3.71031e-17
1.13194e-16
4.80251e-19
1.82776e-18
6.57823e-18
3.43992e-18
8.03295e-17
3.29765e-15
9.51518e-15
2.04548e-16
4.7524e-16
1.33621e-14
1.38486e-13
1.17362e-13
3.55785e-14
1.02631e-12
3.57351e-12
2.72252e-13
7.71727e-15
4.28259e-14
1.25699e-14
1.00691e-10
9.157e-11
9.36915e-11
2.47425e-10
2.45889e-10
3.59363e-10
3.42482e-10
4.83247e-11
1.631e-10
1.14042e-10
2.23586e-08
7.64649e-08
2.24458e-08
2.24663e-08
6.01046e-08
6.35334e-08
2.66601e-08
3.02531e-09
5.79551e-09
4.81725e-08
7.49958e-09
2.31677e-08
1.89234e-07
9.45969e-08
1.93257e-09
1.99462e-09
5.48326e-09
5.93066e-07
9.95466e-07
1.08518e-06
9.73114e-07
1.81505e-06
2.63103e-06
2.54484e-06
2.9222e-07
4.99859e-07
5.68985e-07
1.17356e-06
1.52938e-06
4.63598e-06
5.51224e-06
1.82848e-05
1.82853e-05
1.82853e-05
1.82848e-05
1.82823e-05
1.82848e-05
1.82848e-05
1.60576e-05
7.39572e-06
4.66101e-06
3.2642e-06
5.02136e-06
9.72429e-06
8.74597e-06
0.000180034
0.000169111
0.00017989
9.59535e-05
0.000142971
0.000151965
0.000152466
8.13293e-05
8.69141e-05
0.000128452
0.000178587
0.000202451
0.000176196
0.00012889
3.8443e-05
1.77913e-05
1.78414e-05
2.12777e-05
1.7842e-05
4.34233e-05
2.3774e-05
2.0348e-06
7.17671e-07
2.62203e-06
1.11972e-07
4.02704e-07
2.38273e-07
7.59832e-07
1.49779e-06
4.32194e-07
1.00486e-06
1.70003e-06
8.59797e-07
2.87387e-06
4.91583e-06
2.33247e-06
3.83231e-07
3.75592e-08
2.56479e-08
5.91751e-08
3.98524e-09
1.43032e-08
5.60562e-09
3.01324e-08
1.30655e-11
1.37929e-11
9.66484e-12
2.97524e-12
4.92541e-12
6.61479e-12
7.57143e-12
7.28806e-12
9.87939e-12
6.52194e-14
8.69707e-14
1.15989e-13
9.25055e-14
3.11258e-14
9.56414e-14
4.06761e-14
5.62177e-14
1.11953e-13
2.08168e-13
1.78183e-13
2.23968e-13
5.04899e-14
1.02891e-13
1.25187e-13
1.64525e-13
7.57228e-13
1.8283e-12
4.24505e-12
3.21732e-13
2.29276e-13
6.22243e-13
1.01156e-12
6.92833e-13
9.92888e-13
3.2156e-13
4.70385e-12
1.20004e-12
4.04594e-13
1.85013e-12
1.12386e-10
2.13344e-10
4.75506e-10
7.31916e-11
4.85105e-11
9.49187e-11
2.00684e-10
8.51676e-11
1.1025e-10
1.37733e-10
2.76711e-10
1.7095e-10
5.39568e-10
2.05584e-10
2.13336e-09
2.10658e-09
4.06553e-09
6.50182e-09
1.50964e-08
5.71156e-09
2.94472e-09
2.23592e-07
1.50101e-07
8.95018e-08
5.49618e-07
1.95558e-07
1.20118e-07
2.18094e-07
2.61424e-08
1.06711e-08
6.22457e-09
5.51428e-09
5.56977e-09
1.60812e-08
1.19613e-08
4.55076e-07
1.182e-07
2.80996e-07
1.24011e-07
9.57306e-07
7.04005e-08
6.15287e-06
3.3942e-06
1.38319e-06
3.32074e-06
7.13802e-06
2.18176e-06
1.92636e-06
2.03319e-06
3.92844e-06
1.15419e-06
7.79726e-05
5.57873e-05
2.15856e-05
0.00490394
0.00219167
0.00396246
0.0031884
0.00382659
0.00807861
0.00423969
0.999227
0.98982
0.996156
0.99501
0.995036
0.998313
0.998346
0.999567
0.999625
0.999742
0.998205
0.998268
0.998079
0.997338
0.994406
0.992159
0.992866
0.995812
0.998268
0.995695
0.0149237
0.0583714
0.0184363
0.0108163
0.0162191
0.0461894
0.0329701
0.0233323
0.0692065
0.0898545
0.0202211
0.0666435
0.4085
0.34133
0.00138479
0.00167712
0.000414544
0.000935945
0.0047385
0.00409153
0.00116832
0.142369
0.0768479
0.144847
0.366162
0.0330668
0.0132867
0.0575634
0.013082
0.108205
0.00062408
0.0015112
0.000583478
0.114519
0.034433
0.482162
0.199041
0.000333277
0.0001708
0.000168165
0.000477042
0.000214167
0.000690352
0.00172276
0.000487053
0.000596458
0.000226518
0.000233217
0.000339579
0.000276583
0.000607663
0.000905324
0.000847884
0.00183776
0.000889857
5.50822e-06
2.88398e-06
6.8494e-06
7.6947e-06
6.95474e-06
1.58753e-05
1.69367e-05
8.11342e-16
6.3471e-16
1.52423e-15
1.76553e-15
2.82123e-15
3.60588e-15
9.78213e-15
1.66746e-14
1.38313e-14
3.20761e-14
3.64852e-14
5.50341e-14
7.06713e-14
1.83636e-13
8.62517e-14
1.8691e-13
1.6306e-13
2.87808e-13
9.98161e-13
5.4034e-13
1.90822e-13
3.11968e-15
5.94254e-15
6.34664e-15
2.22208e-14
6.5753e-15
1.13858e-14
4.08983e-14
5.98162e-13
1.86275e-12
3.45927e-13
8.61596e-13
1.75289e-12
1.54254e-15
1.50894e-15
3.39727e-15
6.09916e-15
2.97148e-15
2.69804e-12
5.02415e-13
2.34896e-12
7.5578e-13
3.90492e-13
1.0318e-15
2.82142e-15
1.78832e-14
5.14911e-15
2.16114e-15
3.00781e-17
8.684e-18
1.53872e-17
5.1043e-17
8.75432e-18
7.40862e-18
3.70987e-16
8.50255e-17
1.12968e-15
4.26933e-16
1.60576e-16
7.07198e-17
1.03517e-16
2.20313e-16
3.95212e-16
1.43471e-20
2.26426e-20
3.82807e-20
3.3185e-19
1.09285e-19
1.04551e-19
5.09178e-20
2.25626e-21
2.925e-21
7.19912e-21
1.37407e-20
8.10259e-21
2.17941e-20
6.46363e-20
1.89564e-24
2.17244e-24
4.30595e-24
3.1737e-23
2.5139e-23
7.73101e-24
7.66139e-24
1.79962e-17
1.39107e-17
2.41074e-17
3.49295e-17
1.9131e-17
6.45317e-17
3.49673e-17
2.87745e-09
1.88995e-08
2.31185e-09
2.03318e-07
8.36582e-08
4.67759e-09
6.77183e-09
5.89727e-07
5.89766e-07
1.53006e-06
9.22113e-06
9.25365e-06
9.25709e-06
1.38467e-05
1.35493e-05
1.2489e-05
1.36546e-05
6.358e-06
1.44371e-05
1.38543e-05
5.02282e-06
1.15342e-05
1.29849e-06
1.00692e-05
2.97797e-06
1.69488e-06
1.98796e-06
1.68623e-05
1.68314e-05
1.17462e-05
3.4052e-12
1.88907e-28
2.09034e-08
7.20165e-09
9.57621e-09
1.53662e-12
9.58733e-10
1.83437e-13
3.03189e-10
2.18196e-05
1.49424e-05
1.33034e-05
4.57e-05
2.48262e-05
1.43448e-05
1.33643e-05
0.337457
0.808637
0.969621
0.980624
0.986441
0.973696
0.968554
0.000397736
0.000997093
0.000243603
0.00253821
0.000704922
0.000214578
0.000265686
0.00143971
0.0195073
0.00469085
0.0111168
0.00164284
0.0625438
0.00753466
3.81663e-07
6.50346e-07
9.17634e-07
2.64522e-07
1.09705e-05
3.66663e-06
5.15261e-08
1.67463e-06
5.38413e-06
4.13234e-06
9.49718e-07
5.72324e-05
1.87981e-06
1.74264e-05
8.99143e-07
4.48746e-07
4.99551e-07
2.59977e-06
6.32155e-07
1.31111e-06
3.48947e-06
2.00929e-07
4.06435e-07
1.50945e-08
2.93438e-08
1.17836e-08
1.09891e-07
1.30698e-07
3.25752e-08
8.73482e-09
6.17465e-09
3.12022e-09
3.91126e-09
4.99841e-08
1.84568e-08
2.62248e-09
1.40481e-08
1.06848e-09
9.68848e-10
7.58679e-10
5.29155e-10
1.71568e-10
3.8865e-10
1.52862e-10
3.58916e-13
5.97618e-13
7.92045e-13
8.1125e-13
5.43738e-13
1.07147e-12
1.27728e-12
2.61032e-16
3.5182e-16
3.01036e-16
8.13718e-17
1.51991e-16
2.3233e-16
1.46086e-16
4.20225e-15
2.32663e-15
8.88125e-15
1.9512e-14
6.41754e-14
1.64367e-14
5.73268e-15
2.38776e-13
6.88634e-14
4.19488e-14
8.32293e-14
3.13658e-14
1.36229e-14
2.28647e-14
1.11444e-11
2.98733e-11
7.02138e-12
1.25098e-12
2.18287e-12
3.76784e-12
9.9578e-12
2.55873e-12
3.93064e-12
8.04375e-13
3.67974e-13
2.52056e-12
7.02469e-13
9.11023e-13
4.18436e-13
1.01173e-12
2.12382e-11
3.19147e-11
3.39749e-11
4.02612e-11
9.30006e-11
1.53815e-10
5.62457e-11
1.8961e-11
9.52412e-12
1.32744e-11
1.69956e-09
7.30162e-10
4.2903e-10
5.51791e-10
9.07862e-10
2.69514e-10
3.52868e-10
1.93091e-09
2.71631e-09
1.34704e-09
4.24753e-09
9.9646e-09
4.46794e-09
2.04102e-09
7.91826e-10
2.86051e-09
1.20098e-09
1.49523e-08
5.72483e-08
2.24012e-08
2.68111e-08
6.21706e-08
9.64645e-08
1.78479e-08
2.22209e-08
2.33745e-08
4.38678e-08
0.0968549
0.0444412
0.0195364
0.0133339
0.0291508
0.0185452
0.0680517
0.728917
0.717885
0.503753
0.929146
0.581903
0.92974
0.910177
0.851559
0.619213
0.954438
0.90164
0.632443
0.951127
0.953917
0.0913758
0.42723
0.376372
0.497144
0.100908
0.214982
0.900813
0.940411
0.94029
0.94029
0.940411
0.939173
0.939322
0.841803
0.71696
0.880613
0.865666
0.880613
0.880613
0.88057
5.771e-13
5.14972e-13
1.03749e-12
1.56696e-12
1.23273e-12
5.03331e-12
2.35317e-12
8.14806e-12
6.93747e-12
1.22531e-11
2.07248e-11
1.57481e-11
5.21021e-11
2.64149e-11
8.82321e-11
1.34207e-10
1.10267e-10
2.01325e-10
4.73381e-10
2.58722e-10
1.68943e-10
4.60385e-11
1.2284e-10
4.89741e-11
8.12622e-11
1.90756e-10
2.8353e-10
7.44863e-11
8.56632e-12
1.52797e-11
1.23617e-11
6.34454e-11
2.39342e-11
4.09302e-11
1.78233e-11
9.8678e-12
4.48076e-12
6.27494e-12
1.08883e-11
5.687e-12
6.77906e-12
1.71098e-11
4.60549e-11
1.19298e-11
1.80143e-11
7.8872e-13
3.79097e-13
4.38024e-13
3.90402e-12
1.6699e-12
9.17447e-13
1.2701e-12
2.17336e-14
2.66587e-14
4.68017e-14
2.61061e-13
1.09579e-13
8.2238e-14
5.63636e-14
6.40153e-15
1.61822e-14
4.96292e-14
1.77951e-15
3.76368e-15
4.72368e-15
1.16505e-14
1.76112e-07
7.64224e-07
1.03813e-07
7.05094e-07
1.63622e-06
2.25305e-07
3.04372e-07
1.2283e-07
5.70585e-08
1.22586e-07
1.67069e-07
6.21255e-08
7.72734e-08
7.76992e-08
6.12594e-07
1.42143e-06
2.92057e-07
9.63219e-07
5.82829e-08
2.79359e-06
2.62776e-06
2.00912e-06
1.33105e-06
9.61649e-07
1.85441e-06
8.40038e-07
0.942099
0.57902
0.973704
0.802299
0.316005
0.0769347
0.894137
0.00141455
0.00407076
0.00139624
0.00126545
0.00330982
0.00513057
0.00258743
0.000611189
7.54293e-05
0.000228798
2.10452e-05
2.82872e-05
7.45355e-05
0.000135532
2.7955e-08
9.96158e-09
8.6949e-09
2.00882e-05
8.98569e-06
1.2144e-05
1.07364e-05
2.97632e-05
2.25047e-05
5.41247e-05
2.01568e-05
2.92044e-06
1.1887e-05
9.00695e-06
8.9376e-06
1.09134e-05
1.18932e-05
2.80739e-05
1.70179e-05
2.34149e-06
9.88424e-07
3.13057e-06
5.27444e-07
4.11095e-07
1.72475e-06
1.18676e-06
9.40087e-08
7.08769e-08
3.19267e-08
5.30156e-08
3.21249e-08
1.73242e-08
2.82965e-08
6.08366e-14
5.74008e-14
1.30242e-13
1.19644e-14
3.66148e-14
7.2762e-14
1.30554e-14
1.94758e-16
3.22995e-16
2.22925e-16
6.8106e-17
1.2719e-16
2.02976e-16
9.52551e-17
5.46642e-19
7.48523e-19
2.84921e-19
4.67406e-19
1.21986e-18
1.82302e-18
3.87922e-19
2.66541e-20
9.73414e-20
1.22923e-20
2.27664e-21
2.22848e-21
7.11422e-21
3.4987e-21
1.11212e-20
1.29645e-20
7.69078e-22
1.00319e-21
2.26775e-21
2.10342e-21
4.18929e-21
1.69499e-20
3.87452e-21
1.43732e-17
2.68157e-17
1.13961e-16
3.09774e-18
5.42002e-18
6.51568e-18
2.60567e-17
3.0286e-16
7.71732e-16
6.94395e-16
8.7053e-17
1.97584e-17
1.04452e-17
1.02909e-17
2.51595e-17
3.15166e-18
5.41133e-18
1.03261e-14
1.58275e-15
2.78094e-15
6.92235e-16
5.48249e-15
4.28152e-16
1.24065e-13
5.61375e-14
4.15887e-13
5.02162e-14
2.50292e-14
8.56028e-14
1.38944e-13
4.8588e-13
1.6178e-13
3.84449e-14
1.51205e-12
9.20756e-13
5.00417e-12
5.26249e-12
4.22691e-12
8.59775e-12
4.07649e-11
1.36483e-11
1.51716e-11
9.41325e-12
1.55609e-09
3.14361e-09
1.01116e-09
8.21491e-10
5.85952e-10
1.50708e-09
7.83164e-10
0.000162589
0.000325658
0.000132148
4.51147e-05
8.21457e-05
0.00104912
0.000372738
0.00101633
0.000903208
0.000985277
0.000321188
0.000786737
0.000224298
0.000736541
0.00139355
0.00144693
0.000835117
0.000786775
0.00033571
0.00107548
0.000624225
0.00147624
0.000466241
0.000344419
0.00469816
0.00542875
0.00318948
0.00995285
0.0034365
0.013047
0.00506078
0.214725
0.0543478
0.274414
0.187479
0.114118
0.0227006
0.0495094
0.149939
0.0222154
0.167765
0.0338704
0.00694608
0.103669
0.151449
0.940411
0.866701
0.48464
0.958357
0.958424
0.958424
0.958424
0.958424
0.958322
0.957927
0.95838
0.899851
0.94387
0.643819
0.958393
0.628672
0.957027
0.952723
0.955883
0.958051
0.957966
0.941254
0.841015
0.958408
0.958353
0.958277
6.43199e-09
1.54443e-08
4.02295e-09
3.94425e-09
2.89498e-09
5.7148e-09
9.48305e-09
6.81242e-09
1.41238e-08
3.18958e-08
1.13207e-09
7.04352e-10
3.10049e-10
4.49943e-10
5.65071e-10
2.24641e-10
2.7064e-10
5.18588e-08
1.57309e-07
7.41326e-08
2.6049e-07
8.06833e-07
2.70074e-07
1.15656e-07
1.73179e-09
1.71497e-09
3.25235e-09
7.15566e-09
2.12929e-09
3.2096e-09
9.87802e-09
0.000134473
0.000276841
0.000146013
0.000116165
0.000101335
9.03086e-05
3.95498e-05
2.66578e-05
1.95611e-05
3.88644e-05
1.27224e-05
7.68317e-06
2.9359e-05
2.69146e-05
7.45607e-05
9.0301e-05
0.000159948
0.00214999
0.000902592
0.00136657
0.0017242
3.63044e-05
1.19008e-05
3.01617e-05
3.62576e-05
1.55824e-05
9.61904e-05
8.6206e-05
0.000228242
0.000257558
0.000426692
0.000581668
0.0013968
0.00110555
0.000256994
9.55995e-05
7.29122e-05
5.82133e-05
8.04497e-05
8.01623e-05
6.50683e-05
6.04761e-05
0.000121278
7.60331e-05
3.34538e-05
7.16078e-05
4.93089e-05
2.85603e-05
3.18971e-05
3.71334e-05
7.20297e-05
1.29462e-06
9.10741e-07
2.77673e-06
9.02323e-07
2.25838e-06
5.08836e-06
5.87002e-07
3.13057e-06
1.84585e-06
2.81575e-06
3.38555e-09
2.82063e-09
2.80431e-09
3.09866e-09
6.40492e-09
2.77058e-09
6.45936e-09
1.38668e-08
6.41411e-09
9.67856e-09
6.27698e-11
4.8703e-11
2.56669e-10
9.30432e-11
3.96903e-10
5.47594e-10
4.7104e-12
2.00766e-12
3.1706e-12
4.57571e-13
6.77601e-13
3.70117e-12
5.66797e-12
1.30877e-18
2.06215e-18
7.30184e-20
9.453e-19
1.3792e-18
1.3892e-19
8.40809e-20
5.10334e-19
1.72791e-19
9.87662e-24
1.14621e-24
2.13202e-24
5.62234e-24
2.05532e-24
8.03869e-24
2.64153e-23
3.77588e-22
1.96294e-21
2.00068e-22
9.58769e-22
3.15452e-22
1.69005e-22
8.19988e-23
1.16197e-23
1.95139e-24
9.64729e-25
9.96095e-25
2.5887e-24
2.31836e-25
4.20017e-25
3.63691e-22
6.42286e-22
1.00388e-21
3.58571e-21
8.96799e-22
1.79382e-21
9.66314e-21
9.4038e-23
3.28071e-22
1.58905e-22
1.00678e-19
1.06383e-18
1.23966e-19
2.31111e-19
4.64235e-20
2.81906e-20
4.37446e-17
2.43208e-17
1.85882e-16
5.87378e-15
9.12518e-15
1.3228e-14
1.8496e-14
3.59217e-14
8.10369e-14
2.66238e-14
1.53253e-06
2.05711e-06
6.67938e-06
7.31597e-06
6.38742e-06
6.73621e-05
3.60389e-05
0.000681393
0.000308173
0.000133488
0.000119862
0.00010716
4.63563e-05
3.55204e-05
0.000118434
0.000115537
0.00028894
0.000659255
0.000211781
5.0262e-05
0.00057831
0.00209643
0.000995035
0.00280838
0.00119971
0.000954361
0.00129662
0.0019273
0.000944142
0.000979441
0.000671037
0.000989451
0.000762418
0.000295835
0.000502308
1.51894e-05
4.75038e-06
7.87534e-06
1.04647e-05
3.79542e-06
7.14694e-06
3.35098e-05
0.0005328
0.000289082
9.73931e-05
9.41188e-05
0.000170606
1.53254e-05
3.74564e-06
5.79572e-06
9.8787e-06
4.72721e-06
2.47752e-06
4.13126e-06
4.83282e-05
0.000100944
6.33426e-05
3.70436e-05
2.18969e-05
2.59404e-05
2.13316e-05
6.36399e-05
6.6567e-05
6.09282e-05
5.88343e-05
9.66048e-05
4.41659e-05
5.80716e-05
0.958063
0.958109
0.958114
0.972301
0.971803
0.971803
0.959283
0.933006
0.972301
0.966522
0.940377
0.941373
0.940377
0.940347
0.8046
0.897554
0.991615
0.991615
0.991615
0.991471
0.982248
0.990637
0.986823
0.955235
0.972301
0.945436
5.33198e-09
7.34298e-09
5.96591e-09
2.40079e-08
2.24567e-08
1.23405e-08
1.22514e-08
7.47496e-07
1.91785e-06
7.20373e-07
1.02622e-06
1.34652e-06
1.01438e-06
7.11343e-07
8.76752e-08
1.63724e-07
1.49027e-07
5.35234e-07
2.69424e-07
2.31903e-07
1.49483e-07
1.02326e-06
2.40739e-06
4.17384e-06
6.91001e-08
6.89243e-08
6.89243e-08
6.06353e-08
6.48059e-08
7.98646e-08
2.77419e-07
1.30849e-07
1.57865e-07
8.64968e-08
8.29629e-09
1.41398e-08
5.04813e-09
2.58774e-08
9.90751e-09
3.53536e-08
9.05469e-09
2.87475e-08
1.19581e-08
9.66647e-05
5.51102e-05
5.67588e-05
6.47036e-05
0.000136753
6.29548e-05
0.000139858
5.46574e-05
7.39532e-05
5.44556e-05
9.67352e-05
0.00012771
0.00011854
5.46528e-05
6.73271e-10
3.34382e-10
1.25156e-09
2.23775e-09
2.05539e-09
9.77501e-10
4.50812e-10
3.35372e-12
6.33802e-12
4.81257e-12
5.81887e-14
7.90132e-14
8.41382e-14
3.1803e-14
1.38011e-14
1.58743e-14
4.53421e-14
6.93926e-15
8.04114e-15
9.95221e-15
1.29628e-14
2.0301e-14
1.11592e-14
7.50055e-15
8.11945e-15
1.35963e-14
1.51956e-14
1.19541e-14