/*--------------------------------*- C++ -*----------------------------------*\
| =========                 |                                                 |
| \\      /  F ield         | OpenFOAM: The Open Source CFD Toolbox           |
|  \\    /   O peration     | Version:  v2012                                 |
|   \\  /    A nd           | Website:  www.openfoam.com                      |
|    \\/     M anipulation  |                                                 |
\*---------------------------------------------------------------------------*/
FoamFile
{
    version     2.0;
    format      ascii;
    class       volScalarField;
    location    "0.2";
    object      p_rgh;
}
// * * * * * * * * * * * * * * * * * * * * * * * * * * * * * * * * * * * * * //

dimensions      [1 -1 -2 0 0 0 0];


internalField   nonuniform List<scalar> 
6576
(
2795.41
2773.6
2779.02
2786.44
2800.66
2808.32
2783.77
2784.3
2802.78
2793.18
2830.66
2816.11
2804.32
2814.11
2778.49
2786.19
2753.26
2780.15
2780.31
2825.11
2765.84
2820.11
2822.76
2778.01
2807.52
2833.71
2884.45
2803.07
2770.26
2771.36
2792.5
2751.6
2790.02
2811.51
2805.36
2826.33
2802.39
2827.85
2788.83
2809.03
2776.56
2765.89
2793.15
21.3452
20.0348
17.8895
20.3487
19.5186
17.193
14.3127
12.927
18.3068
0.00830536
0.0060859
0.00238652
0.0156583
0.010324
0.00454627
0.0116794
0.00769045
0.0135895
0.016372
0.0222844
0.0144546
0.007265
0.0162042
0.0664947
0.054003
0.0502599
0.0467252
0.0564333
0.0381996
0.0489612
1.6956
0.182461
3.81084
-0.0561775
2.39618
7.78577
1.35639
-0.374749
-0.573025
-0.577209
-0.369144
-0.179043
-0.368397
-0.448435
10.2338
8.35093
7.66597
7.49477
13.6534
8.27935
9.73703
5.3553
5.40948
7.22548
5.50579
5.46601
8.89805
6.37899
104.476
104.234
104.506
104.613
105.132
104.52
105.585
104.071
104.072
102.133
104.07
102.099
102.851
0.0285772
0.0263168
-0.0464651
-0.111686
-0.442613
-0.16277
-0.147004
474.62
2090.68
2500.51
2602.18
2577.93
2684.11
2582.65
0.052628
-0.0408848
-0.0433855
-0.550232
0.0525608
-0.883516
0.0885565
0.25263
0.271236
0.259851
0.235843
0.249718
0.260762
0.250506
0.228088
0.221811
0.235855
0.209341
0.215024
0.223161
0.218782
0.236796
0.23909
0.239671
0.236529
0.240306
0.240683
0.23697
0.228443
0.231964
0.220764
0.224801
0.228235
0.213436
0.211001
0.219565
0.216116
0.243587
0.246756
0.244931
0.23611
0.239667
0.243221
0.240329
0.249511
0.258188
0.249896
0.24411
0.252089
0.241854
0.251656
0.246985
0.237952
0.357845
0.374532
0.376028
0.362771
0.381773
0.394439
0.372853
0.369494
0.391711
0.382386
0.375662
0.358954
0.359693
0.374629
0.354768
0.377552
0.433575
0.423836
0.462205
0.45215
0.43759
0.430777
0.448822
0.419973
0.414937
0.477847
0.483147
0.444997
0.4814
0.504398
-0.111356
-0.26872
-0.451659
0.0216371
-0.230061
-0.292123
-0.361432
0.160408
0.162475
0.223842
0.204051
0.201045
0.202075
0.221443
0.235896
0.220062
0.257756
0.246798
0.2565
0.28572
0.276176
0.32134
0.31833
0.303619
0.325009
0.34825
0.332316
0.31703
0.269354
0.27802
0.276036
0.284058
0.27428
0.276545
0.26899
0.252366
0.24807
0.245804
0.255821
0.261084
0.253345
0.257176
0.250771
0.248241
0.240178
0.239806
0.242482
0.239693
0.241627
0.238165
0.240884
0.338617
0.333424
0.330173
0.354826
0.350595
0.345021
0.346975
109.168
105.344
106.086
107.474
105.354
81.0884
104.988
100.784
106.556
7.12178
6.11024
8.78132
5.25176
2.44522
10.4177
7.95534
7.08497
6.83116
7.74728
7.67201
7.68592
6.32597
6.95349
7.64032
6.25753
7.81587
6.22147
4.87165
7.11072
7.47467
7.28688
7.5112
6.87588
6.55269
6.5764
-4.48039
-8.02737
-6.58065
-3.54062
-2.27135
-0.119353
-0.322566
153.529
63.796
33.1062
62.6998
38.9721
34.2999
33.5256
30.5998
34.2397
-4.97807
-4.89873
-5.77707
-4.03109
-4.44003
-4.39456
-4.79765
5.49041
5.48741
5.5246
5.25729
5.38372
5.41445
5.32266
5.33959
5.31121
5.42585
5.29112
5.30773
5.36278
5.42078
5.41313
5.34393
6.00592
13.6993
12.1493
5.84131
11.2067
7.01167
9.34059
8.78612
6.32089
108.802
108.446
108.91
109.519
109.643
107.705
109.78
108.265
107.504
109.649
107.938
106.868
81.098
105.713
104.973
107.868
10.6559
7.62628
12.7494
14.4739
19.3863
9.49242
10.9059
6.3686
6.10105
6.47116
7.56959
6.68529
6.88426
6.29072
-8.76119
-8.02747
-10.0496
-6.9112
-7.02582
-7.32821
-8.01489
-9.64777
-8.43231
-4.48112
-4.1687
-4.42449
-4.39666
-4.69701
-4.36736
-4.64806
-3.16612
-3.3338
-3.28566
-2.91936
-3.36706
-2.94648
-3.42999
-3.3504
-3.15777
65.8687
152.696
494.672
155.326
52.2909
31.782
159.421
1442.27
1455.71
1470.94
1346.1
1398.27
1387.07
1475.52
0.216626
0.219663
0.210812
0.218049
0.212147
0.216232
0.208121
0.196173
0.191076
0.182659
0.188939
0.193993
0.185268
0.179184
0.207561
0.205788
0.197763
0.203649
0.210433
0.20529
0.197499
0.207569
0.198274
0.210871
0.211025
0.203499
0.214874
0.224667
0.211907
0.219496
0.170547
0.162116
0.173771
0.171784
0.178253
0.162927
0.171402
0.138121
0.160809
0.144014
0.140017
0.12883
0.149606
0.139677
0.139511
0.135852
0.12519
0.144432
0.154796
0.144411
0.137042
0.0599777
0.0651895
0.0779231
0.0582498
0.0482469
0.0599268
0.0753157
0.107583
0.100358
0.0962531
0.0981243
0.0887074
0.0852383
0.0950739
0.0409712
0.0597377
0.0536472
0.104514
0.100256
0.12343
0.00932313
0.0186486
0.0162352
0.0177754
0.00900331
0.0151388
0.0215085
0.0191119
0.0155058
0.00788656
0.0354691
0.0249539
0.0249865
0.0184663
0.0113195
0.00272766
0.0197102
0.0206762
0.0357401
0.0251565
0.00878522
0.0177649
0.0134013
0.0228888
0.0306258
0.0198455
0.00257097
0.00861208
0.010589
0.0130692
0.018284
0.0217415
0.0364803
0.0256191
0.0139193
0.00930911
0.00764383
0.00242618
0.017337
0.0187182
0.0142243
0.0137489
0.108398
0.111418
0.123335
0.111401
0.0934058
0.113364
0.0990065
0.107678
0.119875
0.164249
0.175545
0.160144
0.160688
0.142843
0.170892
0.157867
0.171578
0.154889
0.164005
0.177281
0.175955
0.158202
0.16548
0.208928
0.208159
0.198824
0.215373
0.200057
0.194105
0.2076
0.25292
0.25218
0.258656
0.250042
0.246565
0.271607
0.269129
0.275314
0.287168
0.283043
0.282167
0.279949
0.266329
0.26649
0.272366
0.288824
0.282614
0.278121
0.282099
0.316869
0.311166
0.317157
0.339995
0.320232
0.327621
0.338873
-0.827594
-0.859303
-0.776604
-0.960319
-0.864059
-0.820529
-0.886771
-0.981213
-0.88042
-0.986257
-1.10037
-0.923538
-1.06895
-0.922933
-0.892807
-1.017
-1.53441
-1.69162
-1.45407
-1.60443
-1.5282
-1.33592
-1.3531
3.53427
2.39514
0.815798
0.384402
0.744221
1.72015
2.32257
2.49853
2.17045
2.51996
2.70303
2.4377
2.90316
2.73162
2.8141
2.71565
2.59528
2.42538
2.53987
2.70884
2.63444
3.68923
3.60575
3.75884
3.76644
3.69929
3.89436
3.8096
4.47147
4.34484
4.22289
4.29824
4.10725
4.55913
4.32686
4.37283
4.11437
4.38911
4.58644
4.42615
4.73672
4.43628
4.9253
4.45355
5.1687
4.62649
7.79785
8.92653
9.19209
6.83951
6.86008
9.00592
8.97447
9.03646
9.04707
6.83212
6.2344
8.59574
6.12199
8.96608
6.66466
9.03001
8.58983
8.07427
7.7453
7.84068
9.11674
9.09525
7.64697
6.27534
6.45754
6.82625
7.13841
6.1128
5.62252
5.42185
6.21989
5.56684
5.63278
5.46508
7.82098
6.30899
5.9887
5.73897
6.88544
6.45144
7.83441
6.67998
5.44189
5.59554
6.28464
5.86738
5.90133
7.54382
6.86156
7.99666
8.43743
6.64735
5.82909
6.44698
6.94014
9.07651
11.1617
7.43761
7.24904
10.9342
6.61387
109.386
108.809
108.045
96.1247
104.321
106.781
107.924
106.341
107.256
106.613
109.079
108.482
108.346
109.809
108.239
107.989
107.649
108.456
108.276
110.866
109.803
110.27
108.007
108.021
108.996
108.408
107.933
107.729
107.944
108.518
107.469
107.929
107.7
107.887
107.748
107.432
106.312
107.294
108.205
107.716
107.254
110.093
108.966
110.114
112.735
110.206
109.643
114.434
106.79
101.899
108.633
107.168
106.876
82.6598
105.997
10.2867
10.5463
9.54547
18.7153
10.1525
16.664
13.826
8.21464
8.41627
7.18494
6.98296
5.63916
8.28203
5.54278
71.9986
33.6349
11.5603
200.588
86.1271
25.39
43.9294
-0.773517
15.7188
-3.78702
12.5439
18.0611
9.04696
8.68609
-2.22443
-4.00256
-4.92941
-2.40065
2.01143
-0.328101
-2.39164
-3.23356
-1.6876
-4.24461
-2.15247
0.430319
-2.48856
-1.16187
-3.55165
-3.2662
-5.00832
-4.5973
-4.4317
-3.84159
-5.24123
-3.97767
-5.14377
-4.34875
-5.05601
-3.87012
-3.90335
-3.97871
-4.00241
-4.04789
-4.06081
-4.13542
0.189789
0.195031
0.190389
0.211067
0.210208
0.203321
0.203045
0.174299
0.153654
0.171683
0.18276
0.165841
0.173324
0.190554
0.221998
0.230603
0.223009
0.215793
0.223819
0.262079
0.256751
0.25208
0.265217
0.271381
0.261825
0.259987
0.259885
0.269692
0.264345
0.270758
0.2748
0.267488
0.263083
0.294908
0.30929
0.289135
0.294979
0.286355
0.274759
0.283717
0.254203
0.278951
0.258224
0.253019
0.242809
0.260664
0.252097
0.254715
0.249338
0.240128
0.271129
0.258735
0.255826
0.2496
0.200764
0.217511
0.2173
0.21254
0.235577
0.229413
0.217972
0.212583
0.236417
0.216552
0.21455
0.219884
0.231753
0.177772
0.165205
0.180299
0.181342
0.193081
0.172537
0.1948
0.18263
0.137855
0.140915
0.13053
0.145095
0.138598
0.156422
0.125135
0.134711
0.145068
0.136557
0.0453002
0.0554869
0.059414
0.0657107
0.0775929
0.0657979
0.0573889
0.06127
0.0555527
0.0452089
0.06625
0.0773422
0.065063
0.0568457
0.0188777
0.0157832
0.024226
0.0678035
0.0611373
0.0796345
0.0463774
0.0576547
0.0681678
0.0591353
0.019246
0.0137266
0.0033789
0.023129
0.0144693
0.0156813
0.0172911
0.00370232
0.0152832
0.0158071
0.0180005
0.0234873
0.00924959
0.00805255
0.00220149
0.0223354
0.0216509
0.0174931
0.0205448
0.0128002
0.0290508
0.0223267
0.0126522
0.0257779
0.0264785
0.0180745
0.0834757
0.0954391
0.0785024
0.0808126
0.0608706
0.0743086
0.0859951
0.0727104
0.0585203
0.201867
0.194627
0.207269
0.172853
0.181811
0.192371
0.187056
0.31511
0.316665
0.295385
0.343334
0.313271
0.322764
0.29762
0.377383
0.353664
0.360514
0.391878
0.405369
0.42031
0.425685
0.434967
0.437961
0.454242
0.439577
0.442337
0.369392
0.355479
0.365014
0.397052
0.370968
0.387784
0.369917
0.36065
0.373189
-0.539205
-0.573169
-0.529942
-0.53601
-0.582037
-0.480169
-0.513048
-0.542856
-0.523564
-0.276351
-0.287847
-0.379023
-0.279935
-0.17641
-0.252074
-0.340291
-0.257709
-0.294311
-0.423489
-0.477427
-0.451468
-0.307233
-0.336037
-0.443461
-0.346612
-0.19981
-0.336908
-0.252674
-0.0496227
0.0109549
-0.0805343
-0.144582
0.586042
0.424732
0.55384
0.423473
0.311819
0.429379
0.515679
3.08094
3.04295
3.00733
2.94629
3.03015
2.89614
2.99804
3.4264
3.44595
3.50085
3.42507
3.33767
3.26923
3.35946
3.38486
3.46326
3.26652
3.3757
3.47034
3.39209
3.38803
3.30533
3.21758
3.74346
3.77038
3.92423
3.80645
3.92551
3.99842
4.18168
3.60314
3.75504
3.69232
4.50724
5.62698
5.30863
6.83113
9.20254
9.06566
5.43508
5.49735
5.52176
5.49252
5.55444
5.58002
5.46288
107.158
107.505
106.531
109.045
108.689
107.392
108.388
91.864
86.3221
108.627
110.685
108.912
109.311
122.576
127.232
130.904
125.566
140.685
132.322
152.057
118.188
128.794
118.559
369.953
348.868
379.324
560.889
377.21
379.226
467.251
278.946
201.001
194.845
167.487
172.53
210.772
10.5455
19.6446
27.5971
22.4001
57.2891
26.7161
13.0347
41.4033
32.1192
85.0234
127.6
234.461
68.4448
87.7642
69.4868
158.738
37.576
139.649
17.0295
232.802
181.57
45.8178
62.3902
187.55
36.0703
303.174
47.7358
66.6253
44.4642
26.6992
273.522
48.955
407.598
54.1621
78.4013
578.405
643.889
768.005
670.21
766.064
771.323
718.429
0.900871
2.003
2.19793
10.808
11.9187
2.33042
2.56461
8.81197
3.32892
1.43532
8.01786
2.10154
0.660328
3.26522
-0.335911
-0.398238
-0.20402
-0.188443
-0.213237
-0.282802
-0.298957
0.252451
0.250718
0.240584
0.260304
0.268724
0.259787
0.252912
0.310176
0.297625
0.300026
0.316921
0.320816
0.305053
0.308596
0.322372
0.322432
0.334082
0.337469
0.34128
0.327479
0.330948
0.341629
0.353935
0.342497
0.356412
0.361833
0.351992
0.347049
0.357207
0.368979
0.360839
0.37444
0.377691
0.360313
0.366294
0.319078
0.330151
0.328772
0.32224
0.33388
0.329763
0.347619
0.342305
0.328208
0.372297
0.41466
0.385644
0.373954
0.362394
0.392583
0.378491
0.385447
0.377513
0.366007
0.387625
0.402511
0.383287
0.377107
0.338488
0.364649
0.344975
0.340235
0.32753
0.320935
0.333915
0.279943
0.291075
0.287068
0.315401
0.293846
0.305165
0.290625
0.338012
0.36366
0.343918
0.285393
0.29542
0.290155
0.242137
0.249727
0.250305
0.198001
0.207985
0.211448
0.215475
0.207836
0.227274
0.216548
0.209585
0.208338
0.199675
0.213092
0.224173
0.16365
0.170754
0.17443
0.179456
0.191322
0.179328
0.170683
0.211984
0.223127
0.213521
0.208507
0.214269
0.22215
0.215269
0.161439
0.172082
0.169321
0.170775
0.176306
0.169425
0.161482
0.110321
0.102077
0.091581
0.11989
0.126044
0.048483
0.0604094
0.0605911
0.047832
0.0583754
0.0565383
0.06527
0.1341
0.123715
0.122002
0.118903
0.133215
0.125375
0.135447
0.0622738
0.0526099
0.0675883
0.0640585
0.0541678
0.0691919
0.0742568
0.0211574
0.0277811
0.0191556
0.0256385
0.0085016
0.0254566
0.0413543
0.0272223
0.0350302
0.0478876
0.021818
0.00240088
0.0359353
0.00606862
0.0246818
0.0231351
0.0263043
0.0350654
0.0488257
0.0340019
0.00751179
0.00713109
0.00182561
0.0239553
0.0266439
0.0246514
0.030948
0.020357
0.0230957
0.0297039
0.00207352
0.00958799
0.000591256
0.0136616
0.0162893
0.0144274
0.011212
0.036073
0.0439553
0.0203386
0.0388743
0.0323095
0.0229106
0.0327137
0.0188251
0.0229184
0.0160074
-0.0234222
0.0187851
-0.0175452
-0.0672963
0.0212675
-0.021275
0.0308976
0.0506401
0.0526894
-0.00285598
0.00796849
0.428032
0.303178
0.337714
0.219428
0.415598
0.433038
0.324513
0.0367897
0.0242897
0.120169
0.316127
0.258263
0.319961
0.149822
0.0636385
-0.00979171
-0.0207556
-0.0262766
-0.044216
0.0439219
-0.0349041
-0.286183
-0.249729
-0.268387
-0.219441
-0.208306
-0.23407
-0.225091
-0.262588
-0.277536
-0.36113
-0.404293
-0.359371
-0.317199
-0.372022
-0.401408
-0.357826
-0.297676
-0.26254
-0.305979
-0.226983
-0.243114
-0.270259
-0.279283
-0.187449
-0.171662
-0.140436
-0.0750335
-0.108842
-0.119058
-0.140413
-0.159847
-0.177736
0.0413127
0.0185534
-0.0293469
0.0546949
0.0989124
0.0320758
0.0758525
0.0339924
-0.0101467
-0.0333318
-0.00756722
-0.0836909
0.0930086
0.0313717
0.0249651
-0.0203362
0.781086
0.795345
0.917954
0.83081
0.761874
0.799082
0.875896
0.934364
0.973873
0.923422
1.09083
1.04605
0.995025
1.01376
1.55842
1.59485
1.7205
1.57022
1.4733
1.54766
1.63687
1.54292
1.58944
1.64174
1.61244
1.56005
1.67561
1.6294
1.93534
1.83855
1.94503
1.98818
2.10365
2.01203
1.93734
2.73669
2.68474
2.69289
2.75138
2.70696
2.66289
2.71347
2.44939
2.33329
2.34166
2.16497
2.2762
2.33751
2.23284
2.79188
2.68795
2.71431
2.54858
2.78258
2.66514
3.16676
3.07255
3.03816
3.06699
3.14225
2.99314
2.97446
2.8608
3.07599
2.99893
3.51542
3.47609
3.40946
6.4055
6.07355
6.04203
7.36668
7.17535
8.6118
7.38357
357.587
341.087
297.535
488.705
286.985
270.445
360.665
387.763
368.269
330.706
598.502
582.654
599.739
697.35
602.609
630.507
766.516
625.595
623.617
584.033
38.765
55.3581
42.5379
28.3928
37.2182
35.7509
18.9009
80.5729
135.158
86.3262
59.9797
73.7202
154.616
127.607
-12.3794
-12.2271
-9.61784
-7.76886
-6.14856
-11.0954
-8.47313
104.535
58.0186
108.796
243.911
20.6088
4.59023
41.8036
6.66866
75.8062
1.87245
3.99771
1.41466
96.8121
30.6893
384.06
154.403
1.76909
-0.72538
-0.316835
0.77993
0.989838
-5.38031
-0.611256
-2.55355
-4.59196
0.281594
-0.577388
-0.916717
-0.425682
-0.508892
-1.98456
-2.24461
-0.325112
-1.63492
-1.19805
-1.48093
-1.89434
-1.67917
-1.70849
-2.24291
-1.97228
0.387953
0.394371
0.411147
0.405143
0.405051
0.420686
0.421605
0.429599
0.431316
0.448519
0.44021
0.442677
0.452577
0.457881
0.472882
0.494925
0.485409
0.492177
0.514726
0.493486
0.472937
0.422535
0.43116
0.432049
0.457384
0.438312
0.441837
0.463419
0.483942
0.523062
0.491028
0.49622
0.518635
0.423284
0.439724
0.437121
0.437678
0.420556
0.525696
0.487764
0.521732
0.492756
0.487675
0.426595
0.439598
0.441381
0.420698
0.414167
0.377848
0.368739
0.377312
0.331667
0.315622
0.322102
0.350327
0.337398
0.380369
0.369382
0.358882
0.354989
0.356052
0.365857
0.372666
0.278884
0.282516
0.282262
0.298702
0.289951
0.294713
0.288393
0.29045
0.291514
0.300806
0.297744
0.293797
0.302145
0.306285
0.229528
0.236474
0.240181
0.256578
0.247167
0.245834
0.238767
0.186505
0.179065
0.192517
0.192335
0.188523
0.202275
0.19762
0.169279
0.174716
0.187033
0.189151
0.161047
0.166948
0.182014
0.0283957
0.0143007
0.0302139
0.0104707
-0.0196534
-0.0188253
0.0219374
-0.00594744
-0.034759
0.00496113
0.0162487
-0.00608961
0.0367
-0.139719
-0.0324069
-0.0611704
-0.155547
-0.170847
-0.177186
-0.106776
-0.11147
-0.0822864
-0.0772684
0.025215
-0.0272427
-0.0136454
-0.0574023
-0.0241758
-0.0257836
-0.163501
0.0236495
0.0435238
-0.713028
-0.376749
-1.09618
-0.868074
-0.39684
-1.99513
-1.10653
931.755
2085.48
2638.77
2689.09
2709.54
2646.78
2723.36
0.620397
-0.599741
-3.25246
4.7656
-1.63792
-3.5878
2.04069
4.44145
48.9614
10.9355
26.8835
1.17759
164.525
17.3009
-0.412255
0.271989
-0.147646
0.00225206
0.155106
0.128148
-0.000628784
-0.0844141
0.217791
-0.613242
0.69554
1.3966
-0.0346126
-0.562422
-0.120725
-0.108776
-0.106941
-0.103861
-0.102088
-0.101969
-0.0970599
-0.096284
-0.0929448
-0.0883785
-0.0885664
-0.0790823
-0.0879629
-0.0925761
-0.0835993
-0.077892
-0.148136
-0.121325
-0.128817
-0.129132
-0.115027
-0.114002
-0.133434
-0.110304
-0.107602
-0.0933472
-0.0996234
-0.0963014
-0.0833647
-0.0701037
-0.0158867
-0.0339656
-0.046745
-0.0329967
-0.0190468
-0.0553799
-0.0415779
0.15122
0.107338
0.151561
0.204604
0.163473
0.143432
0.181115
0.885782
0.836102
0.883638
0.901602
0.980075
0.928757
0.876269
1.24936
1.18192
1.18904
1.19097
1.13891
1.13451
1.17564
1.45229
1.52145
1.41976
1.41779
1.39394
1.40941
1.45772
1.35667
1.41816
1.37158
1.4273
1.5092
1.4257
1.43141
1.37348
1.33455
1.61779
1.6906
1.68734
1.69714
1.79315
1.82012
1.73165
1.70277
1.57624
1.65103
2.08725
1.9925
1.97634
1.92365
1.99737
1.85802
1.93362
1.93319
1.95523
1.83624
1.98754
2.10401
1.98734
1.90974
2.00464
2.12268
2.04403
2.31782
2.46044
2.37072
2.31253
2.35824
2.45992
2.25136
2.18455
2.27551
2.33872
34.267
5.54427
-1.19329
0.846537
7.81288
1.44801
25.3398
244.663
159.206
130.107
241.369
168.99
208.924
257.917
551.13
283.802
451.754
326.802
162.754
506.235
500.188
94.0171
173.142
295.277
113.363
117.648
110.04
296.073
447.012
73.3631
191.922
730.624
392.583
622.309
418.736
304.903
433.872
246.623
323.985
14.2095
189.621
0.469942
0.484571
0.506553
0.495877
0.500266
0.522606
0.523664
0.538875
0.543633
0.569338
0.561556
0.556109
0.586273
0.579183
0.585691
0.609765
0.591299
0.617257
0.626894
0.602873
0.590989
0.63564
0.625312
0.612027
0.636068
0.676994
0.640696
0.626325
0.537713
0.560626
0.559659
0.609122
0.570352
0.583049
0.559018
0.56169
0.537091
0.553329
0.535378
0.517035
0.519425
0.537066
0.546086
0.522666
0.530137
0.499697
0.482017
0.47767
0.514529
0.510528
0.49164
0.494537
0.436298
0.423349
0.454113
0.466955
0.466766
0.446187
0.449156
0.379286
0.367329
0.396941
0.376525
0.389858
0.364022
0.383237
0.237538
0.231965
0.216296
0.234921
0.211968
0.200031
0.223387
0.271265
0.277997
0.29182
0.273993
0.282699
0.299447
0.296012
0.384785
0.378891
0.398171
0.354361
0.358051
0.400599
0.373435
0.381145
0.353857
0.349631
0.411333
0.376412
2343.7
1379.4
2396.3
2012.47
778.874
182.031
2218.67
2.28345
8.51367
0.583171
2.63674
7.31748
12.6352
5.73785
1.28199
-0.310666
0.438363
-0.494205
-0.799137
-0.326802
-0.205102
-0.16846
-0.585185
-0.278515
0.0497599
0.0109296
0.0126749
0.0308171
0.0636534
0.0392848
0.117822
0.0716007
0.0102072
0.0181553
-0.0409384
-0.0344811
-0.00642594
-0.0373961
0.0306236
0.016339
-0.0266372
-0.00141917
-0.00596896
-0.0231648
-0.023331
-0.0268344
-0.0379891
-0.0995862
-0.0897005
-0.0773276
-0.0912327
-0.0861056
-0.0638005
-0.0587997
0.0150867
0.0183138
-0.000274293
0.0400062
0.0238967
0.0135193
0.0265418
0.0780414
0.0599646
0.0824705
0.10807
0.0853375
0.0770506
0.0959729
0.158242
0.150914
0.17879
0.167409
0.151687
0.145377
0.165106
0.26962
0.31006
0.286458
0.308353
0.27534
0.308755
0.275649
0.306945
0.273468
0.367992
0.370474
0.396585
0.378401
0.387052
0.412937
0.407424
0.817916
0.831283
0.899634
0.759622
0.808899
0.791854
0.840158
0.936063
0.984831
0.960613
0.879709
0.827043
0.826777
0.794556
0.831942
0.765805
0.808837
1.08091
1.00646
1.01018
1.00578
1.09322
0.923249
1.21163
1.17807
1.3105
1.16132
1.1267
1.1967
1.21365
1.28032
1.20108
1.17308
1.46546
1.43631
1.54153
1.30751
1.29159
1.35383
1.403
1.37815
1.34459
1.31239
1.82691
1.92351
1.77141
1.63388
1.62566
1.71252
1.68646
-5.73845
-4.6414
-5.23268
-4.04864
-3.33245
-4.37806
-4.76114
-4.56845
-5.14103
-4.37832
-4.83007
-4.69162
-2.38574
-1.84535
-0.871875
0.0927197
-1.45244
-1.3664
-2.17343
-2.15451
-3.93546
-1.10475
-2.81637
-2.90055
0.489691
0.264306
-0.807293
2.59357
-2.62314
3.83939
-0.769994
74.4498
28.5217
117.529
83.1008
59.9424
12.6088
29.9376
66.1144
21.2881
67.4105
27.7919
7.32838
26.983
60.5695
681.157
259.738
388.216
3899.65
2079.65
2826.24
2375.1
1485.62
3672.58
2901.01
1466.77
877.999
1892.74
1276.67
1821.91
1970.08
1486.18
1056.13
907.12
872.9
943.785
128.805
640.989
1664.21
4743.39
3372.23
0.860658
0.899871
0.862482
0.84892
0.822759
0.827254
0.858706
0.856538
0.873282
0.937235
0.702867
0.686047
0.642441
0.679315
0.694887
0.63901
0.638046
0.108637
0.0321536
0.155683
-0.123938
-0.00818305
0.0813313
0.015987
0.163112
0.146216
0.0569843
0.178632
0.226876
0.187541
0.131969
0.592664
0.945384
0.513589
0.980329
0.405471
0.273034
0.44558
0.390925
0.364554
0.488079
0.363995
0.389311
0.30648
0.364228
0.141977
-0.291133
0.482675
2.42686
1.37399
2.56566
3.41043
-0.161831
0.0446045
1.10804
-0.108522
-0.0641721
0.901999
-0.873297
0.535173
0.771459
1.01077
1.43986
3.48349
2.53986
0.502454
0.199891
0.0115873
0.176411
0.0627684
-0.113051
0.0919332
0.135078
0.249568
0.054738
-0.649108
-0.455175
-0.64604
-0.909288
-0.64563
-0.68583
-0.465021
-0.107947
-0.134146
-0.173507
-0.121449
-0.140268
-0.149231
-0.13032
-0.0269502
-0.0557051
-0.0584936
-0.0236269
-0.00886733
-0.0223054
-0.00444
-0.0196029
-0.0143712
-0.0253487
-0.0202657
-0.00203143
-0.0159862
-0.00810545
-0.0109729
-0.00205454
-0.0127873
-0.0120194
-0.009338
-0.00450471
-0.00115029
-0.00270873
-0.0014347
-0.00253109
-0.00339774
-0.00470865
0.0440836
0.0444743
0.0545639
0.0491047
0.0497835
0.0693939
0.0667236
0.062773
0.0611026
0.278646
0.253845
0.248734
0.278413
0.254068
0.260592
0.286044
0.349596
0.381128
0.34554
0.382407
0.357671
0.362912
0.341535
0.481563
0.446003
0.443527
0.424121
0.448939
0.402769
0.429165
0.523866
0.550972
0.554047
0.593656
0.554106
0.569173
0.607061
0.504594
0.554034
0.53551
0.66732
0.739444
0.663156
0.684075
0.648188
0.622604
0.846
0.829159
0.893015
0.758608
0.814748
0.77726
0.72668
0.792088
0.788386
0.715778
-0.423265
-0.338941
-0.967209
-0.536326
-0.649146
-0.80515
-1.20072
0.404776
-1.05776
-0.269207
-0.340107
-0.828561
0.188743
0.0886853
-5.13935
-4.69285
-5.28302
-6.24133
-5.61994
-5.68207
-6.17403
-15.9292
-13.7513
-13.147
-10.3638
-7.75167
-12.743
-9.23889
-10.1058
-11.8898
-9.84196
-12.1603
-11.2964
-10.7655
-10.7418
-5.75497
-5.4862
-5.58956
-5.07524
-5.07922
-5.31523
-5.32956
-9.69932
-7.92402
-8.43002
-7.06453
-7.87385
-4.00584
-4.10407
-4.12494
-3.59806
-3.80323
-3.78034
-3.62569
-3.0355
-3.05272
-2.65043
-3.65265
-3.40432
-2.69225
-2.88712
-2.9403
-3.02661
-2.64725
-2.98827
-2.9921
-2.86588
-2.63537
2027.53
1325.37
1210.4
558.278
758.354
946.068
272.629
397.142
172.612
311.088
-425.508
266.28
748.955
254.852
463.133
71.9717
309.149
606.645
612.055
477.791
478.567
815.658
658.195
511.155
205.364
301.939
1.08893
1.15142
1.09655
1.24923
1.29517
1.19197
1.20717
1.21056
1.25301
1.19433
1.16195
1.20152
1.13852
1.17722
1.01854
1.02427
0.984513
1.10133
1.04319
1.07644
1.02329
1.21622
1.23641
1.32083
0.96006
0.998894
1.02144
0.906068
0.917754
0.957194
0.983437
0.970375
0.939357
0.921968
0.85886
0.931725
0.873382
0.890691
0.8415
0.933163
0.878018
0.969399
0.9049
0.189905
0.130262
-0.196204
-0.343557
-0.0740149
-0.122058
0.145357
0.0671898
0.0472497
-0.0564282
0.064581
0.134041
0.0246067
-0.0740483
-0.0517255
-0.0410418
-0.0574673
-0.0615999
-0.0702007
-0.0605166
-0.0524719
-0.00490446
-0.00657492
-0.00651503
0.00170578
0.00206522
-0.00421323
0.00486452
0.0118194
0.00721042
0.00160284
0.0017345
0.00147425
0.00308443
0.00507743
0.00480939
0.00257401
0.00215135
0.00357782
0.00381315
8.10483e-05
0.000177719
0.000947874
0.000812503
0.00204178
0.00292874
0.00517515
0.00506698
0.00613851
0.00576001
0.00423762
0.00550923
0.00701639
0.00588805
0.00163284
0.00829309
0.0105508
0.00537134
0.0079347
0.00453846
0.00868789
0.0108907
0.00574915
0.012242
0.0159557
0.0120628
0.143615
0.129704
0.138149
0.134695
0.145141
0.142023
0.128689
0.281133
0.319775
0.285828
0.293311
0.274241
0.253034
0.356265
0.390151
0.350267
0.336129
0.327292
0.365231
0.343061
0.327643
0.46322
0.450072
0.49099
0.417739
0.410841
0.441475
0.427175
0.393642
0.399394
0.430883
0.457423
0.455352
0.489091
0.501607
0.50707
0.469393
0.480608
0.605515
0.56814
0.59184
0.571463
0.608209
0.561385
0.597377
0.534978
0.549906
0.55342
0.483135
0.486485
0.505133
0.513028
0.619075
0.67094
0.64904
0.729499
0.658134
0.650856
0.700217
0.392146
0.4455
0.377269
0.354685
0.406983
0.380084
0.325401
0.522874
0.597019
0.469909
0.493234
0.560522
0.538039
0.449832
-0.150408
-0.238833
-0.0998535
-0.0341297
0.0636578
-0.0441997
-0.123119
0.270257
0.109421
0.257273
0.225363
0.113243
0.262663
0.326338
-0.00960197
-0.182866
-0.184554
-0.367864
-0.173578
-1.46363
-1.51211
-1.76856
-2.18263
-1.9962
-1.53587
-1.65163
-1.7818
-1.92295
-1.01642
-1.34853
-1.15996
-1.36164
-1.08462
-0.893929
-1.14575
-1.19641
-0.930872
-3.032
-3.20466
-3.1945
-3.7158
-3.18705
-3.69295
-3.33523
-3.87993
-3.97784
-3.56554
-4.4391
-3.94711
-3.6783
-4.02091
-6.24486
-6.78596
-7.30809
-5.84308
-6.62098
-6.48574
-5.75181
-5.33152
-5.75581
-5.66817
-5.90926
-5.56319
-5.72711
-5.43878
-5.07363
-4.91538
-4.80856
-4.48034
-4.7065
-4.61562
-4.86968
164.984
150.845
79.7675
140.465
55.324
251.083
63.1832
233.169
344.95
526.165
500.449
479.219
488.733
520.032
720.304
659.668
533.56
837.866
909.276
644.022
721.895
760.03
662.27
484.41
586.847
537.408
124.15
157.63
125.689
105.082
104.229
120.99
113.347
346.678
205.07
262.641
222.13
266.306
290.884
400.052
240.123
-12.0662
-36.0721
-24.0026
4.86864
4.282
-22.6359
-16.6339
-19.2198
-21.8842
-27.4699
-19.7591
-8.21524
-14.711
-25.4034
12.737
23.5197
-7.72529
23.8092
20.6085
-17.79
9.54124
11.0932
-12.9869
-4.98905
8.98807
-2.06633
8.87391
12.9405
22.4025
-0.45041
12.409
16.6617
3.11672
3.75778
3.17077
3.70074
3.82291
4.49211
4.16803
3.15828
3.18116
2.92002
2.96192
2.86507
2.80861
2.57166
1.77695
1.70269
1.80305
1.81421
1.67565
1.6493
1.77845
2.01224
2.09689
1.91733
1.87281
1.81335
1.92761
1.98446
1.62048
1.55796
1.67035
1.6991
1.65609
1.73298
1.80643
1.62801
1.71389
1.73266
1.71517
1.76643
1.65028
1.73249
1.74065
1.64867
1.712
1.84227
1.79963
1.39615
1.45247
1.47705
1.44944
1.49162
1.49073
1.5803
1.35325
1.41735
1.42857
1.42238
1.365
1.6602
1.69841
1.59801
1.77894
1.82681
1.74011
1.71971
2.22856
2.15916
2.28356
2.31857
2.2323
2.17426
2.27427
2.57056
2.38727
2.40506
2.2853
2.1205
2.35413
2.21438
11.6636
11.7366
7.72621
6.08209
5.6305
7.47729
8.45137
13.6355
13.3583
16.3426
12.162
11.7803
13.3172
11.0759
11.7185
18.9696
16.2474
11.1238
11.5724
10.7778
14.1468
10.2909
20.9671
22.1747
20.8271
13.7325
18.3129
3.43994
3.99961
3.61879
3.63709
3.43648
3.72716
3.73856
3.80492
4.17515
3.39894
3.75727
4.02857
4.00132
3.9273
2.49624
2.9584
3.49222
3.04623
3.12698
3.14109
2.85095
-0.458143
-0.48676
-0.671158
-0.729171
-0.88207
-0.600015
-0.527157
-1.54442
-1.26789
-0.996301
-1.21433
-1.05857
-0.851705
-0.908568
-0.0894215
-0.0799147
-0.145721
-0.258044
-0.181955
-0.0990984
-0.130741
-0.218541
-0.277051
0.0671769
-0.0105301
0.0734198
0.0511831
-0.0567123
-0.0793763
0.0287973
1550.74
1492.71
1313.42
341.797
1068.26
1535.36
934.047
1492.7
1263.72
716.98
686.331
976.637
1517.09
1529.4
1076.17
817.375
1497.78
1620.18
712.757
1655.38
475.793
17.1073
110.848
39.2393
11.5703
18.2992
79.4016
141.684
2.28205
31.9832
28.4814
3.06859
0.00217366
-0.570525
-0.315532
-0.490073
-0.369088
-0.284686
-0.206636
-0.412833
-0.58985
-0.468616
-0.473879
-0.534228
-0.577763
-0.13352
-0.121854
-0.128013
-0.0896466
-0.101566
-0.106779
-0.0982874
-0.0540355
-0.0388509
-0.0441607
-0.0114898
-0.0248258
-0.0361828
-0.0278131
-0.0382507
-0.0288413
-0.0214144
-0.0275768
-0.0193087
-0.00750672
-0.0190617
0.0459408
0.0601047
0.0456528
0.0452417
0.034258
0.0398595
0.0510757
0.0542317
0.0634525
0.0487169
0.0607371
0.0478206
0.0435102
0.0543177
0.0420509
0.0428788
0.0521641
0.055852
0.0455282
0.0182061
0.0129353
0.0148854
0.0264785
0.0186283
0.0185306
0.0248598
0.00135847
0.0059324
0.00976542
0.0175486
0.0301159
0.0191943
0.00751239
0.0159608
0.0111783
0.0196814
0.0259055
0.0163042
0.00684217
0.00794861
0.00216576
0.0123746
0.0163454
0.0313014
0.0234599
0.0162066
0.0122528
0.00239289
0.0122837
0.00914878
0.0784776
0.0581609
0.0643493
0.0695449
0.0578849
0.0673963
0.0795253
0.0657152
0.052806
0.0728575
0.064927
0.0814378
0.0727899
0.0838413
0.0617712
0.0374507
0.0545836
0.112685
0.138387
0.11581
0.121023
0.10718
0.0872908
0.139665
0.150327
0.154226
0.174523
0.157938
0.137206
0.149074
0.158325
0.146973
0.152549
0.176549
0.152231
0.150146
0.139523
0.159799
0.147114
0.245195
0.211719
0.216116
0.20268
0.221085
0.225691
0.202269
0.291825
0.280332
0.286631
0.253
0.251436
0.262508
0.268568
0.204933
0.236483
0.202029
0.203406
0.176623
0.215802
0.188951
0.329237
0.292836
0.32835
0.261537
0.256692
0.350486
0.354362
0.318205
0.346413
0.380244
0.360294
0.326862
0.267858
0.294492
0.2825
0.213785
0.23342
0.255594
0.24735
0.317951
0.359747
0.325532
0.378027
0.323518
0.375787
0.334586
0.0260774
0.0518985
0.0952671
-0.0363258
0.00951828
0.213709
0.258107
0.237132
0.186064
0.19762
0.245482
0.223156
0.208634
0.198311
0.137099
0.240414
0.287294
0.242464
0.19643
-0.20548
-0.147305
-0.105772
-0.226349
-0.248408
-0.18731
-0.16494
-0.427248
-0.405974
-0.508297
-0.604966
-0.600443
-0.553736
-0.55358
-0.472544
-0.475914
-0.16712
-0.244049
-0.252334
-0.264422
-0.341864
-0.278551
-0.21822
-0.964402
-0.830963
-0.840615
-1.08022
-1.14714
-0.703651
-0.704174
-0.571519
-0.784296
-0.659048
-0.612045
-0.726335
-1.39631
-1.45475
-1.61309
-1.50741
-1.56315
-1.80833
-1.68351
-3.41811
-3.0604
-3.12085
-2.99806
-3.15768
-3.211
-3.48645
-2.96898
-2.71608
-2.81174
-2.76269
-2.99804
-2.89432
-3.08013
-3.92104
-3.50103
-3.68741
-3.63951
-3.87856
-3.72377