/*--------------------------------*- C++ -*----------------------------------*\
| =========                 |                                                 |
| \\      /  F ield         | OpenFOAM: The Open Source CFD Toolbox           |
|  \\    /   O peration     | Version:  v2012                                 |
|   \\  /    A nd           | Website:  www.openfoam.com                      |
|    \\/     M anipulation  |                                                 |
\*---------------------------------------------------------------------------*/
FoamFile
{
    version     2.0;
    format      ascii;
    class       surfaceScalarField;
    location    "0.15";
    object      alphaPhi0.water;
}
// * * * * * * * * * * * * * * * * * * * * * * * * * * * * * * * * * * * * * //

dimensions      [0 3 -1 0 0 0 0];
oriented        oriented;


internalField   nonuniform List<scalar> 
49400
(
-5.66194e-06
9.62162e-10
5.61873e-06
4.22465e-08
1.30576e-05
3.59868e-06
-2.23182e-05
1.28554e-05
2.03203e-07
-3.42617e-06
1.73078e-05
-8.26286e-06
2.02147e-05
-2.00422e-05
-2.07714e-05
5.09345e-05
-3.53462e-07
8.06296e-06
1.95834e-05
-4.99646e-05
-1.57645e-07
-6.16445e-07
-1.22904e-05
2.33556e-07
1.21473e-05
-9.05108e-08
2.62984e-05
1.15622e-05
-5.01509e-05
2.59155e-05
-1.31283e-05
1.51222e-06
2.37633e-05
-1.32635e-05
4.47087e-08
2.94737e-05
-3.1175e-05
5.69014e-05
-2.68283e-05
4.52178e-07
2.63968e-05
-2.07351e-08
9.19607e-06
1.56094e-05
-5.16337e-05
5.14977e-07
9.13327e-06
4.11751e-05
2.27068e-05
-4.82725e-05
1.73262e-05
5.02457e-05
7.66099e-06
-7.39322e-06
2.47211e-07
-3.71391e-06
2.05082e-05
6.24767e-06
9.06592e-06
1.98599e-05
8.83529e-06
4.77844e-07
-2.00106e-05
4.9354e-05
3.27198e-07
-2.44601e-13
6.12507e-13
-1.77779e-13
-6.75495e-13
2.29786e-12
-4.98793e-13
-3.41803e-12
-2.40638e-13
-1.53035e-12
-7.29376e-13
2.07516e-13
-2.03349e-13
1.08931e-12
-4.04308e-12
-1.45606e-12
3.56403e-13
-4.65295e-12
6.26506e-10
5.23568e-10
8.67037e-10
-2.07774e-09
2.41618e-10
6.57422e-10
-4.05396e-10
4.89232e-10
1.7935e-10
-3.06291e-10
-7.4615e-10
1.48217e-09
-1.4795e-09
1.17514e-09
-2.61487e-10
6.44782e-11
-1.10725e-09
2.58444e-09
8.05321e-10
-1.89264e-09
-3.97467e-10
-1.68501e-09
-9.22481e-10
5.46341e-09
-2.23873e-09
1.32691e-09
-4.43582e-10
1.11288e-09
-1.84738e-09
4.59799e-10
-9.26194e-10
8.26914e-11
-4.87283e-10
-8.14555e-10
-1.92961e-12
-1.45723e-12
5.17059e-13
2.64998e-12
-9.45467e-13
1.36513e-12
-3.56135e-12
-1.85179e-13
-2.71995e-12
-4.4566e-12
2.98312e-13
5.71229e-12
-7.72744e-13
-9.43531e-12
-1.29807e-12
2.17699e-12
-2.70003e-12
-2.61252e-08
-2.17413e-08
-6.23063e-09
5.56259e-08
-3.60146e-09
-4.86363e-08
2.60993e-08
-2.84113e-08
2.61643e-09
6.49647e-08
3.45923e-08
-1.45735e-07
7.36628e-08
1.55493e-08
9.22916e-09
-2.91721e-09
7.4851e-08
-4.53472e-17
-7.23338e-17
1.84797e-16
4.50383e-16
-5.44137e-17
3.28756e-16
-3.06597e-16
1.05381e-16
-1.93827e-16
1.33457e-16
-2.05029e-16
3.576e-16
-2.76787e-16
1.00733e-15
-6.08395e-17
1.53898e-16
-1.1707e-16
-3.12589e-12
-2.07553e-12
-5.74995e-13
6.25077e-12
-7.12205e-13
5.78131e-13
-1.56849e-13
-3.27555e-13
-2.99925e-12
-3.72142e-13
1.86709e-12
-3.27166e-14
7.93202e-14
-3.04544e-13
2.99751e-13
-5.77385e-13
1.87251e-12
-2.14004e-06
-1.0711e-05
-5.60477e-06
1.89759e-05
8.94871e-08
-2.24102e-06
-2.37006e-08
-1.32775e-05
2.62738e-06
2.74394e-06
2.61902e-06
-7.60429e-06
2.70867e-06
-4.7814e-14
-1.0384e-05
7.70191e-06
-2.10559e-05
3.00459e-12
6.28152e-13
-3.90742e-12
4.08134e-13
1.5641e-13
1.69205e-12
-2.79664e-13
-7.64317e-13
4.04304e-13
1.92539e-12
4.0175e-12
-1.00976e-11
-6.10649e-13
2.42379e-12
1.2782e-13
2.62664e-13
2.20174e-12
-5.02994e-21
-1.30921e-21
1.62601e-21
5.37986e-21
2.23028e-21
-2.25302e-23
-6.72604e-21
-1.18793e-22
1.71273e-21
3.44583e-22
-2.12987e-22
-2.02898e-22
3.40372e-23
2.15346e-21
4.4772e-22
-5.54815e-22
2.16521e-21
2.64147e-29
1.45208e-29
-7.51607e-29
-1.01522e-29
-2.54169e-29
-3.85689e-29
7.23488e-29
-1.08377e-28
6.28272e-29
5.27763e-29
9.4491e-29
-3.53185e-28
3.582e-29
-5.05665e-29
-4.79108e-29
2.60819e-29
-1.0646e-28
4.83202e-17
6.63452e-17
6.93204e-17
-3.39487e-16
5.97553e-18
2.64141e-17
-3.46341e-17
1.23718e-17
4.05196e-18
-7.13625e-18
-1.3029e-17
1.60841e-17
-3.60431e-17
8.38235e-18
-8.6313e-18
2.26567e-18
-2.06842e-17
3.69953e-51
3.39152e-52
-6.0057e-50
4.87223e-52
-5.28993e-50
-8.14837e-51
1.3845e-50
1.15576e-51
-1.11228e-48
-1.94329e-48
1.6518e-49
1.56314e-50
1.14788e-48
-2.47307e-47
5.42772e-50
6.20944e-50
4.67489e-50
1.21585e-52
1.3417e-51
3.46906e-51
6.14113e-52
3.01095e-51
8.67374e-53
3.74988e-54
-9.02966e-52
-1.90161e-55
-4.67458e-52
-9.82618e-53
1.18025e-52
2.78811e-53
-9.87239e-51
-1.27272e-50
1.12935e-51
1.31185e-52
1.01156e-50
-1.79529e-49
-3.61378e-52
1.23657e-52
-4.21318e-54
7.07406e-52
8.52108e-51
-1.59167e-53
-8.25903e-50
2.5728e-51
-2.4959e-50
-4.31438e-54
-4.853e-53
-1.00976e-54
-5.5457e-52
1.34712e-41
1.58116e-41
1.19551e-41
-1.77731e-40
-4.03376e-44
7.11306e-43
3.71098e-44
1.69522e-42
-6.42495e-47
-2.21847e-43
-2.86304e-43
3.02306e-43
-2.00752e-42
3.9661e-44
1.40946e-42
-1.86146e-42
4.81058e-43
2.12694e-22
-7.17535e-24
-2.17791e-22
1.29735e-22
-2.04194e-23
-1.09528e-23
2.66043e-22
-1.39043e-23
-9.49482e-24
4.76837e-22
3.41982e-23
-5.94106e-22
1.95113e-22
5.41963e-22
-2.45256e-23
2.2687e-22
-1.27521e-23
3.50544e-09
-7.7549e-10
-2.9086e-09
1.20135e-09
-3.52619e-09
-1.11348e-09
8.87159e-09
-3.99682e-10
-2.36591e-09
3.41089e-11
6.41476e-10
-7.93582e-10
1.73726e-09
-3.31463e-09
-1.42641e-10
-2.46022e-10
-1.11199e-09
-8.45503e-10
-1.12964e-11
7.36229e-10
-1.36456e-10
4.92209e-10
4.51849e-10
-1.75564e-09
3.08585e-10
8.05936e-12
-5.23665e-10
-9.01866e-11
7.1847e-10
-5.46792e-10
7.32069e-11
7.49911e-10
-8.54202e-10
1.23547e-09
2.34194e-10
-3.11605e-10
-5.39629e-10
1.54471e-10
-6.95054e-10
-1.06717e-10
8.38833e-10
-4.69616e-10
-4.28414e-10
4.845e-10
2.18658e-11
-1.14641e-09
1.93599e-10
3.18484e-10
-4.63182e-10
4.52396e-10
-1.00317e-09
-2.11603e-10
-2.08961e-10
1.22718e-09
7.57191e-10
3.30553e-10
1.65851e-09
-1.98893e-09
2.66102e-09
-9.61726e-10
-8.11176e-10
-2.20088e-09
7.3163e-09
-3.05311e-09
4.15348e-09
6.00576e-10
-9.16306e-10
1.22025e-09
1.26934e-10
2.06402e-10
3.92966e-10
-7.34336e-10
1.86193e-10
4.0872e-10
-5.74621e-10
2.03695e-10
1.74999e-10
-7.62576e-11
-2.98763e-10
5.70249e-10
-4.20975e-10
5.11062e-10
-9.56321e-11
2.00111e-10
-8.47241e-11
-2.02094e-10
-2.82755e-10
9.98715e-13
5.064e-10
1.00792e-10
-2.21412e-10
-1.09376e-10
-2.35618e-10
4.65912e-10
5.02799e-10
3.56871e-10
-1.28001e-09
2.49302e-10
1.06218e-09
1.30718e-10
-1.09804e-10
3.67487e-10
1.58853e-10
-1.09302e-11
-1.96609e-10
1.75134e-11
-1.43987e-10
-2.12887e-10
3.86708e-10
-2.89191e-12
-5.09088e-10
-1.5761e-10
2.10045e-10
-1.13594e-10
2.12911e-10
-1.12746e-09
-3.49347e-11
-5.73694e-11
-1.0346e-10
3.93567e-09
9.7432e-10
7.80698e-09
-1.15606e-08
-5.75364e-10
3.90523e-09
1.32107e-09
3.34008e-09
-2.51415e-09
-7.83613e-09
-7.55189e-09
1.97698e-08
-1.4317e-08
8.70281e-09
4.79192e-09
-9.98718e-09
2.96541e-09
-1.09519e-05
-1.45955e-05
-8.84175e-06
3.48615e-05
-1.35275e-07
-2.86748e-08
-1.03232e-05
-1.39797e-05
-7.06571e-07
-1.24525e-05
1.27072e-05
-1.26249e-08
8.48751e-06
-3.12859e-05
1.0024e-05
-1.55547e-05
1.38546e-05
-6.87779e-11
3.22114e-11
1.35145e-10
-2.56424e-11
1.86993e-10
-1.58263e-10
-8.81041e-11
1.07346e-10
1.06902e-10
-8.00115e-11
-1.69398e-11
3.2771e-10
9.08506e-11
-1.53614e-10
5.96982e-11
-9.30715e-11
2.28467e-10
4.83925e-11
4.31733e-11
1.90878e-11
-1.42776e-10
8.7148e-12
2.17908e-11
-1.24355e-11
1.61781e-11
1.46931e-11
-2.51139e-11
-9.50568e-12
3.9383e-11
-3.17395e-11
-3.62249e-11
-3.02664e-11
2.60213e-11
-6.45057e-11
-1.97907e-10
-1.64795e-10
-2.16494e-10
4.89976e-10
-3.61965e-11
-3.55053e-10
2.1206e-10
-2.73065e-10
-4.52634e-11
2.12604e-10
2.47198e-10
-7.15953e-10
1.67341e-10
-4.65233e-11
2.34983e-10
-3.30577e-10
1.52215e-10
-2.30048e-10
1.19637e-10
3.44987e-10
-3.06371e-11
7.02421e-10
-2.4224e-12
-8.09805e-10
2.32634e-10
6.49832e-10
-2.072e-10
-6.53959e-13
6.56187e-10
-5.8783e-11
-1.6992e-10
1.87842e-10
-2.8207e-10
5.5348e-10
-3.10735e-11
-1.2102e-10
2.6117e-11
5.03554e-11
-6.15006e-11
7.46642e-11
-1.23005e-10
1.82036e-10
-4.574e-10
2.14628e-11
-1.01173e-10
6.02187e-11
-5.91505e-11
8.31119e-11
-2.30754e-11
6.29567e-12
-1.36582e-11
-5.36851e-09
1.18077e-09
-3.59756e-09
1.34546e-08
4.38451e-10
-1.3995e-09
-2.47369e-09
-4.96082e-10
2.8235e-09
-1.08277e-09
-1.1162e-09
-2.64819e-09
-1.05784e-09
-4.35801e-09
-1.49091e-07
-4.55552e-07
2.07493e-07
4.02983e-07
-6.65822e-07
3.49992e-07
1.73068e-07
3.13716e-07
-1.42698e-06
3.2689e-07
2.33189e-07
-2.01453e-07
9.35412e-07
3.47104e-07
-1.02227e-07
-1.17629e-07
1.47104e-07
3.67538e-07
1.11256e-08
9.32253e-09
-1.40269e-07
5.54738e-08
-1.57584e-08
-2.61568e-08
8.48982e-08
3.26232e-08
1.37399e-08
-3.91874e-08
2.23974e-08
9.16601e-09
2.69021e-07
-5.6249e-10
-4.97861e-09
1.46747e-08
-2.1524e-09
4.1175e-09
-4.13872e-09
-1.4106e-09
-7.01616e-09
1.99695e-08
1.06272e-08
-5.15158e-09
-4.98767e-09
-2.05203e-10
4.79501e-10
-9.42723e-09
1.75128e-08
6.3678e-10
7.88418e-12
4.46847e-10
-1.3234e-09
-6.8172e-10
5.16938e-10
9.27454e-10
7.64328e-10
-1.45613e-09
3.69092e-10
-5.33395e-10
8.8669e-10
-7.44793e-10
2.11954e-09
-8.69541e-11
1.14084e-10
-1.70258e-10
1.44585e-10
1.49833e-09
-2.26306e-10
-3.39798e-09
9.6292e-10
-3.60207e-09
5.48195e-10
-1.00932e-09
2.17648e-09
-2.99693e-09
8.07817e-10
5.32963e-10
-2.0858e-11
-8.65166e-09
3.70804e-09
-9.31391e-09
2.4204e-09
3.00857e-09
2.09116e-09
-1.33319e-09
-4.98436e-09
-8.54934e-10
7.99818e-11
2.74771e-09
-3.85035e-10
1.14933e-09
7.42798e-10
-2.59071e-11
-1.31293e-09
5.06877e-10
1.11246e-09
-2.13019e-09
1.91612e-09
-3.47229e-09
-6.05594e-10
6.38041e-10
6.19831e-10
-1.67346e-09
8.51307e-10
-1.08733e-09
-1.12051e-09
-4.79433e-11
9.81106e-10
-2.26994e-09
3.84631e-10
1.31335e-09
9.01393e-10
-8.34952e-09
1.50736e-09
-4.03528e-09
1.16722e-09
1.67671e-10
3.40001e-10
-7.64515e-12
-5.16951e-10
8.38122e-11
-7.46708e-12
7.37481e-11
2.62042e-11
3.90145e-10
7.52831e-11
-2.63862e-11
-6.17461e-11
8.42185e-12
1.46609e-10
-6.4994e-11
8.7743e-11
-1.04399e-10
-1.57495e-09
-1.32325e-08
3.78479e-10
1.39124e-08
-2.06511e-08
2.47032e-08
-1.57985e-09
1.29685e-08
-4.72011e-08
6.24263e-08
-5.8607e-08
2.55952e-09
-1.36109e-08
9.24744e-08
-4.21818e-08
5.44364e-08
-8.71805e-08
-2.8744e-09
-6.34208e-09
-7.09703e-09
1.81636e-08
-3.58138e-09
-2.88845e-09
4.48491e-09
-1.99002e-09
-4.53358e-09
4.71858e-10
2.76218e-09
-4.73246e-09
8.84652e-09
-1.07133e-08
6.06664e-10
-5.15063e-10
2.18905e-09
-2.42052e-13
5.07502e-14
3.27474e-13
-1.33536e-14
1.8136e-13
1.00575e-13
-4.32261e-13
8.44328e-14
4.39621e-13
2.48236e-13
-1.87585e-13
1.19081e-13
-4.03734e-13
1.61647e-12
6.43275e-14
-1.26018e-13
2.18814e-13
-2.7176e-30
-1.37307e-29
-2.05819e-30
1.95981e-29
6.78795e-31
-2.9895e-30
-5.59629e-31
-1.88197e-29
7.07199e-30
3.37025e-29
3.98791e-30
-6.19368e-29
1.47604e-29
2.35653e-29
4.29859e-30
-4.31857e-30
1.64634e-29
2.18033e-29
-8.83729e-31
3.66838e-30
-2.70254e-28
-9.21062e-30
-8.87548e-30
1.17702e-29
-5.5228e-29
-3.80685e-31
-3.65244e-28
4.99774e-29
2.15448e-29
1.55349e-28
-2.48551e-27
-4.71678e-29
1.8984e-29
-1.81124e-28
9.76345e-34
1.02225e-32
-7.59682e-32
-8.83774e-36
4.23891e-32
5.37371e-33
-6.2437e-31
-1.28717e-32
1.65713e-32
-8.99334e-31
1.09756e-31
3.08896e-32
5.7248e-31
-7.92075e-30
-5.03255e-32
2.51151e-32
-2.26861e-34
5.9066e-41
4.75614e-41
4.75709e-41
-6.85039e-40
9.38617e-44
6.57349e-42
-4.06305e-43
2.68411e-42
4.07258e-44
-1.20013e-42
-1.09806e-42
1.12799e-42
-1.16606e-41
1.199e-43
-7.98927e-42
2.11662e-42
-4.72742e-41
2.24728e-46
8.69935e-48
-2.22776e-45
-1.41027e-47
-1.15982e-45
-2.3989e-46
3.36762e-46
3.55426e-47
-2.12577e-44
-3.15113e-44
3.24899e-45
1.23732e-46
2.22357e-44
-3.6217e-43
-1.92721e-45
7.76478e-46
-3.52433e-45
-7.52977e-51
1.55101e-46
-1.5859e-45
7.5517e-48
1.27752e-48
-2.51709e-47
2.02574e-50
-6.45485e-47
4.26002e-47
2.41346e-47
1.7596e-47
2.37282e-48
1.62995e-50
-6.52945e-46
3.02044e-47
-1.28071e-44
7.09239e-44
-2.36123e-41
2.5013e-42
-5.70281e-45
-1.90739e-41
4.14885e-44
1.01196e-42
2.13438e-41
-3.01179e-40
2.30631e-43
-2.49605e-42
4.24462e-44
-3.0302e-43
3.18325e-43
-1.18495e-42
4.01297e-43
-4.12347e-43
-7.09434e-43
-1.22321e-45
1.3912e-45
3.75252e-44
8.39027e-43
6.2098e-43
-9.30998e-42
9.04076e-44
-2.49918e-47
1.44751e-44
-1.11086e-43
2.49709e-45
-1.62909e-44
1.88317e-44
7.73041e-44
-1.07885e-43
2.71888e-44
-5.99942e-31
9.45187e-32
4.84747e-31
-4.20158e-32
9.51599e-31
3.92621e-31
-1.87636e-30
7.28763e-31
3.45252e-31
-3.15491e-31
-2.34886e-31
9.96251e-31
-3.88398e-31
-3.71507e-33
4.06276e-31
-4.11394e-31
8.93838e-31
-3.01049e-20
1.58898e-20
2.20411e-20
-8.36504e-22
6.77796e-20
-1.71332e-22
-8.71487e-20
2.15731e-20
7.17543e-20
-2.49756e-21
4.20243e-22
2.48915e-20
-1.52689e-21
-1.4571e-21
3.34097e-21
-4.07419e-21
2.51081e-20
-4.50737e-18
-5.27939e-17
8.7686e-17
6.31123e-17
1.29237e-18
1.02622e-17
-1.25192e-17
1.73364e-16
-1.76641e-16
-1.11315e-17
-1.55527e-16
3.07238e-16
-1.01774e-17
8.6217e-17
-8.00288e-19
3.00657e-18
4.94367e-17
1.15456e-05
-3.19915e-08
-1.13332e-05
-1.7444e-07
-1.16831e-05
-9.34228e-06
3.16166e-05
-1.27082e-05
-2.29357e-07
1.30035e-05
9.09623e-06
-3.34008e-05
1.34486e-05
-6.16563e-07
-7.62176e-06
1.17196e-05
-1.1089e-05
-3.33654e-10
-5.20142e-11
2.66869e-10
1.17483e-10
3.27273e-10
9.59816e-11
-7.57648e-10
2.95291e-10
-5.67754e-11
-6.48237e-10
-2.33432e-10
1.17652e-09
-4.20513e-10
-1.93615e-10
4.42748e-10
-7.68178e-10
4.75241e-10
-5.25948e-11
9.97215e-11
-1.23619e-10
1.26131e-10
1.56869e-10
-1.62079e-11
-9.12848e-11
-8.04827e-11
3.96215e-10
-5.35154e-11
8.08954e-11
-2.37426e-11
1.35783e-10
-2.43738e-10
-2.1494e-12
1.0808e-11
1.70952e-11
-1.65866e-09
1.89826e-10
2.40634e-09
-5.65529e-10
1.97563e-09
1.59938e-09
-5.21174e-09
9.04086e-11
1.49083e-09
2.12711e-09
-2.5874e-09
1.63488e-10
-1.19697e-09
4.83541e-09
1.90587e-09
-2.87178e-09
3.13665e-09
8.79557e-10
1.47204e-09
2.99129e-09
-5.26946e-09
7.47008e-10
-6.85657e-10
8.76584e-10
3.48007e-09
-1.17237e-09
1.05699e-09
-1.6555e-09
-2.43553e-10
-6.51984e-10
2.57905e-09
7.73192e-10
-3.89658e-09
1.41431e-09
-2.26255e-09
2.1965e-09
-4.87311e-09
5.01631e-09
-5.41463e-09
8.03608e-10
-3.09677e-11
-1.96023e-09
4.47803e-09
-1.92815e-10
2.90355e-10
1.16819e-10
-2.74953e-10
-9.93309e-11
-2.41416e-10
-5.15783e-10
1.06633e-09
-4.0294e-10
3.69491e-10
4.90939e-11
6.40731e-10
-9.30121e-10
3.21794e-10
-3.49503e-10
9.80037e-11
-4.2404e-10
4.12276e-10
-7.06576e-10
-7.55038e-10
9.6654e-10
6.97848e-10
1.6147e-09
-1.75197e-09
1.31372e-09
-3.00747e-09
-2.49214e-09
-5.64753e-10
-1.84501e-10
2.06503e-10
3.17718e-10
7.47621e-10
-1.09413e-09
-1.31108e-09
-1.09927e-09
1.32332e-09
1.84704e-09
1.08565e-09
-6.05014e-09
8.28156e-10
1.25367e-09
1.68347e-09
-4.20463e-09
1.77884e-09
-4.02467e-10
3.93155e-10
1.64239e-10
-1.99479e-10
1.42177e-09
-1.03429e-09
-1.00198e-09
-4.55033e-10
1.95091e-09
-4.7265e-10
4.24944e-10
1.85472e-10
3.08414e-10
-1.01867e-09
6.27079e-10
-1.38457e-09
6.07105e-10
-6.6812e-11
1.14449e-10
1.96096e-10
-3.47749e-10
1.99513e-10
-4.04499e-11
-3.83764e-10
7.25431e-11
1.49957e-10
-9.10827e-10
3.22785e-11
9.22245e-10
-2.47016e-10
-1.36232e-09
3.56116e-10
-8.4911e-10
3.41103e-10
-2.14321e-09
1.85413e-09
2.40123e-09
-5.25845e-09
4.03462e-09
-3.97173e-09
-4.28468e-09
5.61677e-10
3.76271e-09
-5.69747e-09
1.02153e-09
4.83143e-09
6.05479e-09
-2.23959e-08
4.34219e-09
-5.8354e-09
4.51223e-09
5.94363e-10
-6.5892e-11
-1.81364e-10
2.03418e-10
-3.42777e-10
-7.11885e-11
1.15171e-09
-1.29547e-10
-2.38185e-10
4.65234e-10
9.42719e-11
-6.94964e-10
6.38624e-10
3.71918e-10
-1.59207e-10
8.19171e-10
-1.77214e-10
-2.70917e-16
-1.12641e-15
-1.56597e-15
3.46729e-15
-4.19937e-16
-1.86752e-16
5.2208e-16
-1.05747e-16
-5.6808e-16
7.27567e-17
1.57244e-16
-2.84518e-16
2.4962e-15
-2.06657e-15
6.79195e-17
-6.77597e-17
1.49126e-15
7.4377e-24
-3.10061e-25
-1.05549e-23
6.22411e-24
-9.69587e-25
1.1759e-25
9.5211e-24
-5.37155e-25
-2.41598e-25
2.07952e-23
-4.7809e-26
-3.29773e-23
4.9111e-24
2.27481e-23
-9.88458e-25
6.95498e-24
-1.06793e-24
-2.72975e-25
-1.18915e-24
-3.59072e-25
6.42898e-25
3.30862e-26
-1.38353e-24
-7.2853e-27
-1.24614e-23
2.58742e-25
1.91219e-23
6.73794e-24
-1.02755e-22
2.97526e-24
1.52382e-24
1.49927e-24
-1.04181e-24
1.25989e-24
-2.82208e-32
-3.47861e-32
-2.58005e-32
2.32357e-32
-2.98286e-33
-1.94669e-31
1.53848e-33
-7.35697e-31
-2.45804e-33
1.74512e-30
1.69381e-30
-1.61036e-29
2.25166e-31
1.20431e-32
-9.93201e-32
8.18805e-32
2.19446e-31
-2.72699e-40
4.5907e-39
-4.4617e-38
9.57323e-40
5.70907e-39
-9.8742e-38
-1.43572e-40
-3.88625e-39
3.71452e-39
1.42443e-37
8.31633e-38
-1.21443e-36
1.71948e-38
-7.4214e-41
5.0131e-38
-2.40023e-37
1.65306e-38
-1.65388e-23
-2.88554e-23
-1.85131e-23
6.22771e-23
5.60297e-25
-1.73408e-23
-5.54987e-25
-3.06772e-23
1.07739e-24
4.01559e-23
2.43396e-23
-9.17418e-23
3.8669e-23
6.18004e-24
1.23568e-23
-5.17025e-24
3.34539e-23
-2.90515e-21
-5.54873e-21
-3.33076e-21
1.31025e-20
1.75501e-22
-1.92764e-21
-3.7331e-22
-3.96564e-21
5.1761e-22
4.3329e-21
1.89422e-21
-1.09704e-20
4.51388e-21
1.61127e-21
1.20827e-21
-9.88249e-22
3.36061e-21
-3.32391e-11
-4.93047e-12
7.99977e-11
2.27301e-11
1.92611e-11
6.35029e-11
-1.1112e-10
3.68548e-11
-6.02035e-12
-8.68158e-11
-4.6985e-11
2.37465e-10
-5.26231e-11
2.87647e-11
-4.61046e-12
2.98495e-11
4.78099e-13
9.28229e-12
-1.77827e-11
3.32885e-11
-1.83245e-11
-1.52362e-11
2.62135e-11
8.25639e-12
1.4816e-11
-5.66902e-11
-1.50229e-11
-2.67279e-11
7.38256e-11
-1.86275e-11
1.12465e-11
-1.14114e-11
1.61148e-11
-1.55615e-11
-1.19151e-10
-3.73481e-11
3.96833e-11
7.35436e-11
1.85468e-10
5.1206e-12
-4.06514e-10
-5.05415e-11
8.84749e-11
9.40747e-11
-7.52363e-11
-9.72297e-11
-7.62856e-12
1.76382e-10
9.54189e-11
-2.20645e-10
9.75749e-11
1.18328e-13
-3.54388e-11
-5.99575e-11
1.10205e-10
-3.14041e-11
-3.14397e-11
8.92106e-11
-1.02602e-11
-5.09289e-11
-5.87936e-12
3.87202e-11
-1.87324e-11
8.25689e-11
-1.68309e-10
-8.44225e-12
1.82194e-11
-2.76015e-12
-2.28882e-11
8.5042e-10
-1.55391e-09
4.04851e-10
2.03413e-10
-2.31094e-10
-1.92279e-11
-6.2029e-10
1.47195e-09
3.9917e-10
3.22355e-10
-9.11688e-10
5.3444e-10
-1.32069e-10
-1.39401e-09
1.23061e-09
-2.97704e-09
-1.38841e-10
-9.52801e-11
-1.06062e-10
4.47519e-10
-6.71949e-12
-1.90677e-10
2.33021e-10
-3.06172e-12
-2.766e-11
-2.38692e-11
7.78609e-11
-3.24859e-11
1.81156e-10
-1.92659e-10
1.75418e-11
-5.0152e-12
2.4993e-11
-2.13474e-09
-4.94618e-10
3.79277e-09
5.13475e-09
3.36134e-09
-1.86011e-09
-1.18575e-09
-1.61699e-09
1.14043e-08
-7.82883e-09
2.94995e-09
1.30104e-08
3.26663e-09
-9.08475e-09
-1.36613e-09
4.46179e-10
-1.46528e-09
3.14415e-08
-1.25484e-07
-8.08387e-09
2.5672e-07
-2.78621e-07
-2.0026e-08
8.0486e-07
-1.15574e-07
-2.63984e-07
2.31886e-07
-1.50405e-07
-5.12488e-08
-3.17482e-08
6.49859e-07
-1.42621e-07
3.01882e-07
-3.59275e-07
-1.38462e-09
2.56003e-09
9.80481e-10
-2.29328e-09
3.13332e-09
-5.19091e-09
-2.23293e-11
-2.54962e-09
7.83254e-09
-3.24629e-09
3.19987e-09
9.46622e-10
5.44846e-09
-1.08336e-08
2.30765e-09
-2.27298e-09
2.77023e-09
-1.08206e-07
-5.04972e-09
7.10143e-08
2.09487e-08
3.44226e-08
5.3512e-08
-1.93056e-07
-4.59832e-09
4.65826e-08
9.95224e-08
-9.27285e-08
-1.93684e-08
-3.31331e-08
1.57875e-07
5.6233e-08
-1.11663e-07
7.86431e-08
2.13911e-07
-1.7959e-05
1.82783e-05
-5.6749e-07
-1.44678e-05
1.44689e-05
1.19679e-07
1.08982e-05
-4.3333e-05
-1.74027e-05
-1.06694e-05
4.27979e-05
-1.71764e-05
2.26929e-07
-1.49006e-05
2.25232e-05
-2.11899e-05
-5.20028e-08
-1.93677e-09
1.96728e-08
1.51105e-08
4.07947e-08
1.63544e-08
-1.07596e-07
-1.79289e-09
1.21114e-08
1.63666e-08
-1.78554e-08
-1.18288e-08
-7.14655e-09
2.59978e-08
2.12797e-08
-3.38645e-08
2.34467e-08
4.25635e-16
1.69557e-16
-9.81799e-19
-8.42543e-16
-4.36419e-17
4.41251e-17
2.89823e-16
-1.4551e-18
3.61627e-17
3.45226e-18
-1.67709e-18
-4.83865e-18
3.43489e-18
2.52418e-17
-5.18336e-18
4.03596e-17
-1.07446e-17
-2.79435e-25
-1.68961e-26
-2.64229e-27
9.96088e-26
9.64706e-26
-9.82353e-26
-1.30789e-24
-1.18265e-25
1.20947e-26
2.52792e-25
2.54105e-26
-1.17701e-24
2.28543e-26
5.24724e-26
1.5995e-25
-7.20171e-25
6.16493e-26
-8.91916e-26
-2.55929e-28
6.10937e-27
4.30149e-28
1.01496e-25
6.83095e-26
-7.47896e-25
1.70119e-26
9.50325e-28
-1.28127e-26
-1.21978e-26
9.35025e-27
-7.80351e-26
1.1311e-27
3.62304e-26
-2.23989e-25
3.39043e-27
5.22723e-28
5.56168e-26
-5.05065e-25
2.75351e-26
-1.5406e-25
2.41668e-27
2.66943e-26
5.74465e-25
-6.00102e-24
-1.16532e-24
5.95407e-31
6.77119e-32
-1.21344e-29
-7.28813e-32
-6.46732e-31
-4.49502e-31
5.44137e-31
-4.51942e-30
1.19888e-31
3.24315e-29
2.99148e-29
-2.52819e-28
4.50573e-30
8.80502e-32
-5.20801e-30
3.9541e-30
8.54884e-31
5.36154e-29
6.52792e-30
-6.07285e-28
-7.42764e-30
-6.90111e-28
1.13456e-28
1.60146e-29
-3.46924e-27
2.51238e-29
-3.25244e-32
-1.71719e-32
-2.71473e-32
2.11582e-32
4.41759e-34
-2.28024e-31
2.03434e-33
3.23491e-31
-1.49316e-30
8.22464e-32
-3.62949e-19
3.03763e-23
4.06705e-19
-2.92145e-22
3.44826e-19
1.9776e-19
-8.51282e-19
3.57126e-19
4.84636e-20
-1.40093e-19
-2.75869e-19
8.31354e-19
-1.38765e-19
-8.76704e-21
6.22536e-20
-3.49589e-20
1.35331e-19
-1.3202e-12
1.23079e-11
-7.91841e-12
8.49876e-12
3.84339e-12
8.51541e-13
-4.60955e-12
5.86566e-12
1.10955e-11
9.5209e-12
-1.08352e-12
-1.96105e-11
1.50787e-12
1.72754e-11
1.63018e-12
-1.6894e-12
1.03263e-11
-3.8431e-12
-1.4232e-12
3.34973e-12
3.43554e-12
2.7055e-12
1.09641e-11
-1.77886e-11
5.98456e-12
-3.81484e-12
-7.27644e-13
-9.32876e-12
9.19558e-12
-2.41976e-11
2.59231e-11
8.50009e-12
-2.58736e-11
2.49764e-12
4.61401e-12
6.00827e-12
1.33546e-12
-1.31867e-11
1.04469e-12
-1.42936e-13
2.84174e-12
3.48221e-12
2.82081e-12
-1.98692e-12
-3.69134e-13
-7.36226e-13
6.2943e-12
-4.17098e-12
7.54382e-12
-3.46992e-12
4.20144e-17
3.55583e-16
-2.64792e-16
-1.50739e-16
1.41331e-16
2.39337e-17
-1.46859e-16
-9.8435e-17
5.80087e-16
-2.14093e-16
1.60055e-16
6.15312e-17
1.30919e-16
-5.07063e-16
-1.93639e-16
2.3973e-16
-3.52118e-16
-6.33607e-18
-5.24824e-16
2.55671e-16
2.31937e-17
-4.84685e-16
-3.35096e-19
1.74944e-16
3.89871e-16
-2.01917e-15
2.94587e-16
-3.95658e-16
3.39411e-18
-1.84365e-16
5.54986e-16
1.78992e-16
-3.44329e-16
1.41944e-16
4.99228e-11
-1.76159e-11
-3.48506e-11
4.60553e-11
-6.88648e-11
3.42483e-12
1.43778e-10
-1.20414e-11
-4.63753e-11
7.75131e-11
7.99752e-13
-1.26e-10
3.64482e-11
1.11918e-10
-2.37348e-11
6.64802e-11
-3.70197e-11
-3.06827e-10
1.67899e-10
4.88294e-10
-3.49198e-10
3.10443e-10
3.54319e-10
-9.55393e-10
1.59186e-10
2.43145e-10
1.0255e-10
-4.37968e-10
4.89558e-10
-4.65398e-10
8.13185e-10
9.09682e-11
-1.5008e-10
1.15117e-10
-1.96398e-16
-7.35488e-14
3.32178e-16
1.95676e-14
-8.88337e-14
2.70984e-14
3.28539e-15
6.58218e-14
-3.89981e-13
1.37035e-14
-3.75655e-14
-3.4135e-16
-1.19436e-14
2.21979e-14
-3.21168e-14
2.09149e-14
-6.49813e-14
2.53417e-14
-1.00182e-13
8.06671e-16
-1.73998e-14
3.0298e-14
1.18928e-13
-5.13012e-13
4.86029e-14
2.90112e-15
1.31708e-14
1.8778e-11
3.76901e-11
3.48954e-11
-1.15013e-10
6.91764e-12
1.86279e-11
-2.80146e-11
6.66649e-12
2.04936e-11
6.57553e-12
-2.31984e-11
1.96933e-11
-1.79778e-11
3.40966e-11
-8.92743e-12
2.52894e-12
-1.33173e-11
9.25227e-10
9.57506e-10
3.58699e-10
-2.09936e-09
8.40907e-11
5.84921e-10
1.09547e-10
5.94264e-10
5.50325e-11
-6.67285e-10
-5.25274e-10
1.55898e-09
-5.077e-10
-2.41473e-10
-8.27117e-10
7.92124e-10
-8.78673e-10
1.70997e-09
-1.89929e-09
-1.58525e-09
1.34035e-09
2.19891e-09
-5.64507e-10
2.78456e-09
-2.58135e-09
9.61717e-10
2.61303e-09
-9.14194e-10
-6.11953e-09
6.01058e-10
1.76257e-09
2.63866e-09
-5.02528e-09
1.05966e-09
-2.71642e-08
1.94361e-08
1.20604e-07
-1.83367e-07
-8.17537e-08
7.51207e-09
1.08162e-08
-2.01271e-08
-9.66841e-08
1.03676e-07
4.70755e-08
-3.37927e-08
-1.35473e-08
-8.43944e-08
4.32386e-08
2.71371e-09
6.95107e-08
-1.1208e-10
-1.68275e-10
-1.7391e-10
4.21505e-10
-4.03427e-11
-1.40932e-10
4.58473e-11
-1.73734e-10
-1.01941e-10
4.51575e-10
2.12746e-10
-9.42561e-10
8.3483e-10
-7.12665e-10
2.01142e-10
-1.8463e-10
7.84657e-10
1.59303e-08
-1.12002e-09
-3.08095e-08
3.07468e-09
-1.83956e-08
-2.09739e-08
3.80749e-08
-2.38928e-08
-1.56454e-08
1.39086e-08
5.64638e-08
-1.39225e-07
4.39457e-08
-8.55176e-08
-5.8148e-09
1.90755e-08
-2.11738e-08
1.74749e-06
-5.10605e-08
-1.96172e-07
1.16007e-08
-1.31679e-05
-5.58379e-06
2.7296e-05
-1.37295e-05
8.62948e-07
5.78823e-07
1.43163e-06
-1.88927e-06
1.43454e-06
-2.74482e-08
-3.71436e-06
3.62361e-06
-8.46011e-06
2.36861e-09
1.07075e-09
3.42678e-10
-3.76012e-09
-3.1326e-10
2.78388e-09
1.32167e-09
1.09173e-09
-2.0217e-10
-1.47037e-09
-6.23482e-10
3.42546e-09
-7.79369e-10
-7.9446e-10
-1.23918e-09
3.95766e-09
-1.61703e-09
2.51941e-11
2.13321e-11
-1.5152e-11
-4.5968e-11
1.22141e-13
-5.26414e-11
6.66032e-11
-2.19222e-11
3.2891e-11
-1.20768e-11
2.1336e-11
-3.06799e-11
8.11848e-11
-1.75464e-10
-4.87724e-12
1.67363e-11
-7.44043e-12
-7.64065e-21
-1.31728e-22
7.3631e-22
1.48571e-22
8.36842e-21
6.11186e-21
-5.01805e-20
1.82689e-21
3.85288e-23
-1.21352e-21
-1.25659e-21
1.16254e-21
-6.08201e-21
2.5164e-22
2.90149e-21
-1.37288e-20
4.4838e-22
1.4163e-22
4.43972e-21
-3.15533e-20
2.37404e-21
-1.08835e-20
4.32178e-22
2.67466e-21
3.92103e-20
-3.06533e-19
-5.50409e-20
-5.68224e-27
2.03222e-25
4.38809e-26
-2.18605e-24
4.70345e-26
-2.39855e-25
-6.30789e-27
-6.0541e-26
1.07471e-25
-3.34736e-24
5.08567e-25
2.59119e-25
1.18074e-24
-1.83514e-23
2.59271e-25
-1.93605e-25
2.11504e-25
-9.46855e-30
-3.23889e-31
6.66589e-31
2.11066e-31
6.32297e-30
1.10596e-29
-9.41192e-29
1.40457e-30
-2.67715e-30
-2.36247e-31
-4.65926e-31
3.54871e-31
-2.85806e-30
3.27775e-31
2.50511e-31
-6.99874e-31
-3.17312e-31
-5.06769e-31
-7.02679e-32
3.71273e-31
1.28447e-31
4.00867e-31
6.73897e-31
-1.52737e-30
3.46357e-31
-3.44827e-32
-3.81243e-31
-3.80058e-31
1.06171e-30
-8.71189e-31
5.71887e-31
2.28212e-31
-4.07154e-31
1.76321e-31
2.80382e-20
5.14026e-19
-2.7641e-19
-2.45895e-19
4.32456e-19
-4.14213e-19
1.62081e-20
-6.16275e-18
-3.27839e-18
1.32888e-19
-8.62298e-19
-2.28454e-18
-5.12431e-18
-6.06985e-18
-6.70026e-17
-2.24457e-17
-1.10735e-18
8.34413e-17
1.45926e-17
-1.29354e-17
-9.42797e-17
3.23212e-18
-1.87662e-17
2.64943e-17
-2.28002e-17
-3.20158e-17
-2.79135e-17
4.8537e-17
-3.81818e-17
-1.04671e-16
-6.04844e-16
-4.58569e-16
-2.20509e-16
-8.20944e-16
-8.41539e-16
-1.23004e-05
-1.00662e-05
-1.04017e-05
3.28134e-05
-3.40869e-07
-1.29145e-05
9.5579e-07
-9.83861e-06
-5.34089e-07
9.57048e-06
7.58353e-06
-2.6994e-05
1.03081e-05
-1.22878e-06
5.44768e-06
-1.07782e-05
5.3745e-06
-4.64251e-11
-6.8512e-11
-7.91259e-11
2.35032e-10
-1.32374e-11
-2.57849e-11
-6.91526e-12
-1.13593e-11
-4.23317e-12
1.34151e-11
-1.73846e-12
-2.05764e-11
6.09883e-11
-1.26444e-11
3.96126e-12
-3.05215e-11
-2.32801e-12
4.42929e-16
-4.85403e-15
-4.86626e-17
3.12589e-15
-9.12404e-15
3.81508e-15
5.01616e-15
2.88565e-15
-1.85806e-14
9.22389e-16
-1.42214e-15
-1.31225e-16
-8.75775e-16
4.61083e-15
-1.53723e-15
3.40522e-15
-1.21836e-15
-5.90821e-16
-4.26548e-15
1.99588e-15
1.9003e-15
-3.07669e-15
-9.4843e-16
1.71452e-15
2.34079e-15
-1.11279e-14
4.14327e-15
-3.3882e-15
-3.63947e-15
-1.13706e-15
5.64624e-15
2.44125e-15
-4.20019e-15
2.71035e-15
-1.19794e-16
5.56622e-17
2.2585e-16
-1.30765e-16
1.33231e-16
1.14066e-16
-3.24071e-16
2.80382e-16
7.33255e-16
3.06636e-16
-2.64156e-16
4.39805e-16
-2.23311e-16
1.48153e-15
1.52359e-16
-2.56216e-16
1.99743e-16
1.92675e-13
-5.73216e-15
-3.92635e-14
6.428e-14
-4.81511e-14
-6.79134e-15
3.12555e-13
-1.45549e-14
-2.26692e-14
1.04889e-13
2.37578e-14
-1.50548e-13
1.01549e-13
1.31943e-13
-1.70441e-14
1.38494e-13
-4.99057e-15
1.62841e-10
4.53269e-11
-4.58051e-12
-1.64505e-10
-9.44419e-11
6.47661e-11
3.60592e-10
1.30954e-10
-1.87836e-11
-7.50172e-11
-1.92961e-12
2.49685e-10
-1.71741e-11
-3.91118e-11
-4.15449e-11
1.42626e-10
-4.56909e-11
2.26461e-10
5.71738e-11
-8.73353e-11
-2.37742e-10
-1.83288e-10
6.23937e-12
4.54699e-10
1.15539e-10
-1.65426e-10
-3.99632e-10
1.20228e-10
3.97098e-10
-3.08994e-11
-5.29834e-10
-1.87699e-10
2.4088e-10
-2.88708e-10
-4.79545e-12
-1.09586e-12
3.7547e-14
7.50313e-12
9.46328e-13
4.84584e-14
-5.21216e-12
1.29945e-14
7.65811e-14
4.48113e-13
-1.59788e-13
-3.13494e-14
-4.72732e-13
1.38168e-12
4.93685e-13
-1.62922e-13
1.26568e-12
6.48801e-08
-1.85926e-07
-3.0413e-09
6.26241e-08
-7.69516e-08
-1.98019e-08
1.81346e-07
-1.21681e-07
-2.16302e-07
3.47495e-09
6.05336e-08
-1.00891e-07
5.88791e-09
5.93325e-09
-4.59394e-08
-4.81297e-09
-1.3711e-07
8.78981e-08
5.9562e-08
5.02564e-08
-1.97489e-07
-9.94011e-08
-2.24846e-08
2.09792e-07
2.34593e-08
-6.27215e-08
4.73992e-07
-2.46788e-07
-2.05033e-07
-2.72417e-07
6.73496e-07
2.21303e-08
-2.18549e-07
-2.73378e-07
-4.60631e-08
-3.77801e-08
5.77547e-08
2.61036e-08
7.64662e-08
4.78346e-08
-1.70297e-07
6.6927e-08
-2.83254e-08
-3.6295e-08
2.08286e-07
-1.14237e-07
1.99114e-07
-1.87734e-07
-1.55974e-07
4.31337e-07
1.41847e-08
6.42048e-08
-3.31449e-07
4.79e-07
-3.49998e-07
-9.4943e-07
1.86569e-10
-2.68753e-09
-4.86492e-10
2.30645e-09
-2.83093e-09
2.26397e-09
3.47259e-10
3.61685e-09
-9.84605e-09
7.45437e-09
-6.14137e-09
-2.35229e-09
-2.30189e-09
1.15824e-08
-3.68507e-09
3.31922e-09
-6.76989e-09
-6.41491e-09
-1.82415e-08
-7.35231e-09
2.04268e-08
3.03561e-11
-1.62966e-08
2.63042e-10
-4.51133e-08
4.53115e-09
6.5234e-08
3.70969e-08
-2.1802e-07
2.43503e-08
1.5001e-08
2.8247e-08
-2.86022e-08
2.55284e-08
7.41834e-07
9.07356e-07
5.65561e-07
-2.82319e-06
-2.73563e-08
4.76611e-07
4.93673e-08
4.24479e-07
-5.60349e-08
-4.4096e-07
-3.87845e-07
1.01011e-06
-5.83368e-07
5.85893e-08
4.40481e-07
-6.49469e-07
2.7852e-07
1.77017e-06
1.24364e-06
1.28858e-06
-5.58298e-06
-3.24075e-08
6.60385e-08
8.43835e-07
7.55689e-07
-4.08277e-08
9.48001e-07
-1.67282e-06
1.34033e-07
-8.96355e-07
1.99783e-06
-1.15862e-06
5.13734e-07
-2.80618e-06
1.38295e-16
3.01472e-16
-1.23239e-16
-9.49702e-16
1.95923e-16
-8.60492e-16
4.23642e-16
-2.83103e-16
5.31489e-16
-6.66316e-16
4.16815e-16
-2.73537e-16
1.22426e-15
-4.00616e-15
1.09211e-16
-2.72316e-16
4.55228e-17
-1.19881e-19
-4.39628e-19
-1.34162e-19
3.80939e-19
5.37261e-21
-4.63238e-19
4.26498e-21
-2.43159e-18
6.07256e-21
-3.73796e-19
-1.17835e-18
7.81569e-19
-2.98783e-18
6.35918e-19
4.12967e-18
-1.92429e-17
8.96578e-20
7.20247e-20
5.91635e-21
-2.04857e-19
2.02546e-20
-4.05019e-33
-7.7803e-33
-9.73949e-33
7.79194e-33
-2.92824e-33