/*--------------------------------*- C++ -*----------------------------------*\
| =========                 |                                                 |
| \\      /  F ield         | OpenFOAM: The Open Source CFD Toolbox           |
|  \\    /   O peration     | Version:  v2012                                 |
|   \\  /    A nd           | Website:  www.openfoam.com                      |
|    \\/     M anipulation  |                                                 |
\*---------------------------------------------------------------------------*/
FoamFile
{
    version     2.0;
    format      ascii;
    class       surfaceScalarField;
    location    "0.15";
    object      phi;
}
// * * * * * * * * * * * * * * * * * * * * * * * * * * * * * * * * * * * * * //

dimensions      [0 3 -1 0 0 0 0];
oriented        oriented;


internalField   nonuniform List<scalar> 
49400
(
-5.66194e-06
9.49437e-10
5.61873e-06
4.22626e-08
1.30576e-05
3.59867e-06
-2.23182e-05
1.28553e-05
2.03199e-07
-3.42617e-06
1.73078e-05
-8.26288e-06
2.02146e-05
-2.00421e-05
-2.07714e-05
5.09345e-05
-3.53522e-07
8.063e-06
1.95833e-05
-4.99645e-05
-1.57619e-07
-6.16408e-07
-1.22904e-05
2.33522e-07
1.21473e-05
-9.04875e-08
2.62984e-05
1.15622e-05
-5.01509e-05
2.59155e-05
-1.31283e-05
1.51223e-06
2.37634e-05
-1.32635e-05
4.4707e-08
2.94737e-05
-3.1175e-05
5.69014e-05
-2.68283e-05
4.52317e-07
2.63968e-05
-2.08166e-08
9.19617e-06
1.56093e-05
-5.16338e-05
5.15126e-07
9.13336e-06
4.11751e-05
2.27068e-05
-4.82725e-05
1.73262e-05
5.02457e-05
7.66098e-06
-7.3932e-06
2.4735e-07
-3.71397e-06
2.05083e-05
6.24773e-06
9.06583e-06
1.986e-05
8.83523e-06
4.77948e-07
-2.00106e-05
4.93541e-05
3.2732e-07
-8.0818e-07
4.1812e-06
-1.11678e-06
-2.25624e-06
7.27463e-06
-1.57408e-06
-6.50873e-06
-3.64718e-06
-6.12584e-06
-1.74497e-06
1.27971e-06
-6.51525e-07
2.9248e-06
-6.24384e-06
-5.65197e-06
3.2845e-06
-8.85302e-06
1.13752e-05
1.33864e-05
1.55153e-05
-4.02769e-05
4.0249e-06
1.73982e-05
-1.00479e-05
1.2753e-05
4.65827e-06
-9.14673e-06
-1.52937e-05
3.71935e-05
-1.64369e-05
1.19485e-05
-3.70483e-06
5.80931e-06
-4.62641e-06
3.76616e-06
1.16951e-06
-3.10143e-06
-1.83424e-06
-2.22192e-06
-3.8767e-06
9.86478e-06
-5.30499e-06
4.25258e-06
-1.37743e-06
2.73076e-06
-4.45475e-06
2.15715e-06
-5.36882e-06
5.05933e-07
-2.22549e-06
-2.0683e-06
-4.30806e-06
-1.30841e-05
3.61055e-06
1.37816e-05
-6.14138e-06
6.45188e-06
-4.61855e-06
-1.57727e-06
-1.76482e-05
-1.318e-05
9.59131e-07
1.86728e-05
-3.49911e-06
-1.42995e-05
-9.57471e-06
1.41444e-05
-1.46511e-05
-1.14933e-05
-1.08819e-05
-5.78822e-06
2.81635e-05
-8.84395e-06
-1.47744e-05
1.2125e-05
-2.24427e-05
2.71688e-06
8.59459e-06
1.07447e-05
-3.41137e-05
1.96834e-05
1.03617e-06
4.49202e-06
-1.619e-05
1.83872e-05
-2.07361e-07
-8.62702e-07
3.11599e-07
7.58463e-07
-6.34332e-07
1.454e-06
-1.02702e-06
1.25978e-06
-2.75682e-06
5.13505e-07
-1.65609e-06
1.45418e-06
-1.28229e-06
2.55426e-06
-4.79321e-07
6.51027e-07
-8.75629e-07
-6.64514e-07
-1.30631e-06
-4.67034e-07
2.43785e-06
-4.46597e-07
1.22892e-07
-3.40809e-07
-6.9256e-07
-1.06034e-06
-4.92697e-07
6.32873e-07
-1.72842e-08
1.83002e-07
-1.01651e-06
6.44295e-07
-1.15385e-06
8.10135e-07
-7.26551e-06
-1.20752e-05
-8.7383e-06
2.8079e-05
4.32123e-07
-6.54099e-06
-1.15664e-06
-1.4328e-05
2.68492e-06
7.61642e-06
3.75208e-06
-1.79095e-05
9.28713e-06
-2.82735e-06
-1.2155e-05
1.27038e-05
-2.27309e-05
5.53058e-07
1.15036e-07
-7.45693e-07
7.75989e-08
7.59934e-08
7.42098e-07
-2.65034e-07
-3.702e-07
5.61229e-07
3.03385e-07
1.33341e-06
-2.38249e-06
-4.52302e-07
8.33287e-07
9.3242e-08
1.96554e-07
1.05645e-06
-1.54268e-06
-5.12942e-07
4.77639e-07
1.57798e-06
6.84204e-07
-5.5451e-08
-2.17143e-06
-5.00446e-07
6.71707e-07
1.45239e-06
-5.28981e-07
-1.42386e-06
3.2416e-08
2.09169e-06
1.11095e-06
-1.69539e-06
1.62101e-06
1.09063e-06
5.99501e-07
-1.16152e-06
-5.28615e-07
-8.32188e-07
-1.71682e-06
3.63964e-06
-2.28947e-06
2.05678e-06
8.15677e-07
1.46054e-06
-3.43773e-06
1.86577e-06
-1.57871e-06
-1.01217e-06
1.16112e-06
-1.8411e-06
1.3997e-06
1.92216e-06
2.0095e-06
-5.33135e-06
5.0878e-07
2.2478e-06
-1.35688e-06
1.83108e-06
5.99856e-07
-1.64035e-06
-2.5227e-06
5.99414e-06
-2.96969e-06
1.9292e-06
-7.09493e-07
4.34591e-07
-1.66969e-06
4.39664e-07
4.05179e-08
-5.38096e-07
5.79141e-08
-1.53858e-06
-4.3967e-07
2.41792e-06
3.37742e-08
-1.53184e-06
-2.6766e-06
2.47589e-06
2.3448e-07
1.58009e-06
-5.78852e-06
4.86406e-07
5.55586e-07
2.52263e-06
5.07998e-08
5.627e-07
2.18625e-06
3.87176e-07
5.16687e-06
1.05784e-06
4.5869e-08
-9.7327e-07
-1.3044e-07
-1.06074e-06
-7.48915e-07
2.8675e-06
6.34778e-08
-1.07835e-06
-1.39021e-06
1.30215e-06
1.51533e-07
1.10481e-06
-3.57337e-06
-3.89515e-07
9.42752e-07
-2.57975e-07
3.23705e-07
3.89866e-06
-9.74265e-07
-3.2481e-06
3.7565e-06
-2.49005e-06
-2.95162e-06
-2.9709e-06
-1.1116e-07
-4.20314e-06
1.07083e-06
1.25683e-06
9.50504e-07
-3.27816e-06
-3.35758e-08
1.04961e-06
5.47893e-08
1.41271e-06
-1.89448e-07
-1.27268e-06
-9.05877e-07
3.22817e-06
-1.44569e-06
2.27793e-07
1.01488e-06
-1.51006e-06
1.52171e-06
7.75989e-07
-4.5949e-07
-7.89334e-07
4.72834e-07
-1.30828e-06
-6.94473e-08
2.15372e-06
-5.19244e-07
-1.24853e-06
1.72776e-06
1.24404e-07
-2.6415e-06
5.83087e-07
1.61751e-06
-9.15226e-07
1.42887e-06
-1.31007e-06
3.93669e-06
-9.78405e-07
-6.39543e-06
3.43714e-06
-4.47307e-06
-4.19841e-06
1.26082e-05
-1.63546e-06
-3.81601e-06
1.05112e-07
2.65673e-06
-4.39731e-06
3.49069e-06
-7.20159e-06
-5.43843e-07
-9.97832e-07
-3.44858e-06
-9.98847e-06
-2.68493e-07
1.06662e-05
-4.09249e-07
7.84221e-06
7.70206e-06
-2.55327e-05
7.38015e-06
1.93567e-07
-9.31757e-06
-6.12099e-06
2.28187e-05
-1.12574e-05
2.13343e-06
8.57665e-06
-1.2132e-05
1.31219e-05
4.77846e-06
-2.81422e-06
-4.73725e-06
2.773e-06
-1.08009e-05
-1.0634e-06
1.66428e-05
-4.78488e-06
-8.83027e-06
8.27935e-06
1.48707e-07
-1.31653e-05
3.32468e-06
7.72767e-06
-6.82884e-06
9.09012e-06
-1.1465e-05
-4.32468e-06
-2.39837e-06
4.15538e-06
2.56767e-06
2.40071e-06
7.73018e-06
-1.44556e-05
8.0866e-06
-8.08426e-06
-2.17316e-06
-6.22634e-06
1.25549e-05
-8.18068e-06
8.57519e-06
2.47237e-06
-2.92286e-06
4.33263e-06
1.02475e-06
2.11128e-06
3.21418e-06
-6.3502e-06
1.57032e-06
3.62886e-06
-4.17443e-06
1.9808e-06
1.70079e-06
-8.38315e-07
-3.36611e-06
6.18523e-06
-3.50703e-06
4.36951e-06
-9.90192e-07
1.25294e-06
-1.28304e-06
-1.99605e-06
-9.0837e-07
-1.57973e-09
2.906e-06
1.42897e-06
-2.33023e-06
-1.09479e-06
-9.69391e-07
1.48999e-06
1.67974e-06
2.22416e-06
-4.8733e-06
1.04556e-06
2.12418e-06
1.02922e-06
-1.13529e-06
2.0732e-06
5.05046e-06
-2.06061e-07
-6.42611e-06
1.58171e-06
-4.15908e-06
-7.13472e-06
1.63443e-05
-2.32752e-08
-4.34187e-06
-3.82505e-06
5.18361e-06
-1.38184e-06
4.20772e-06
-1.23746e-05
-9.35056e-07
-1.01606e-06
-3.15344e-06
5.3655e-06
1.23434e-06
6.53467e-06
-1.31345e-05
-2.9461e-06
6.33291e-06
1.97869e-06
6.906e-06
-8.61776e-06
-6.85703e-06
-6.99304e-06
2.0183e-05
-1.01816e-05
5.30325e-06
3.89197e-06
-7.5389e-06
3.80493e-06
-1.23111e-05
-1.54982e-05
-9.24652e-06
3.70558e-05
-1.46123e-07
-2.92383e-08
-1.21357e-05
-1.48962e-05
-7.48122e-07
-1.51108e-05
1.50977e-05
-1.61717e-08
9.0118e-06
-3.62583e-05
1.16188e-05
-1.75032e-05
1.747e-05
-8.90482e-07
3.0485e-07
1.21015e-06
-6.24522e-07
1.0581e-06
-1.05458e-06
-8.94005e-07
9.4313e-07
4.19818e-07
-7.25565e-07
-2.64658e-07
2.20038e-06
9.19587e-07
-2.26967e-06
3.83425e-07
-5.18414e-07
1.0619e-06
3.29658e-06
5.55716e-06
1.36673e-06
-1.02205e-05
1.28324e-06
3.20589e-06
-1.19256e-06
3.55214e-06
3.28826e-06
-5.49147e-06
-1.3767e-06
1.00741e-05
-3.77645e-06
-2.90757e-06
-4.49909e-06
6.67454e-06
-6.90881e-06
-4.48176e-06
-4.2065e-06
-3.89764e-06
1.25859e-05
-9.24467e-07
-5.43959e-06
1.88229e-06
-3.99925e-06
-1.13172e-06
4.16499e-06
3.59124e-06
-1.17555e-05
5.70178e-06
-2.6685e-06
3.90262e-06
-5.75097e-06
5.70676e-06
-3.27148e-06
1.32865e-06
3.62567e-06
-1.68283e-06
6.97249e-06
-4.08732e-08
-1.02031e-05
2.49526e-06
5.80587e-06
-6.64916e-06
-3.05365e-08
1.03054e-05
-2.33148e-06
-6.00051e-06
5.33153e-06
-7.70388e-06
7.79625e-06
-7.5771e-07
-1.85429e-06
8.81567e-07
1.73044e-06
-1.12864e-06
2.65823e-06
-2.28729e-06
3.24675e-06
-6.22969e-06
1.17532e-06
-3.0877e-06
2.79394e-06
-2.33469e-06
5.24045e-06
-5.6696e-07
8.90498e-07
-4.07905e-07
-1.99073e-06
1.07016e-06
-1.70372e-06
2.62429e-06
1.12357e-06
-7.40091e-07
-2.37421e-06
-5.27288e-07
2.72102e-06
-1.21747e-06
-1.22635e-06
-2.85527e-06
-7.36402e-07
-4.60891e-06
-1.49835e-07
-4.64215e-07
2.08514e-07
4.05536e-07
-6.76505e-07
3.52435e-07
1.74235e-07
3.21591e-07
-1.46231e-06
3.27115e-07
2.33834e-07
-2.00308e-07
9.32958e-07
3.55118e-07
-9.91206e-07
-1.06088e-06
1.25137e-06
8.00712e-07
5.44924e-07
2.34855e-07
-1.77099e-06
7.28407e-07
-1.24436e-06
-1.67804e-06
1.69781e-06
7.08633e-07
1.94659e-06
-4.86899e-06
1.10503e-06
1.07641e-06
4.05422e-06
-3.4282e-07
-9.28152e-07
2.15527e-06
-8.84294e-07
3.47589e-06
-1.59542e-06
-2.22329e-06
-9.0367e-07
3.45141e-06
1.36249e-06
-9.05847e-07
-1.36031e-06
-5.50905e-08
8.88195e-08
-2.59009e-06
2.189e-06
2.09475e-06
1.73841e-08
2.44628e-06
-4.55842e-06
-2.08265e-06
1.48989e-06
2.68752e-06
3.32789e-06
-5.39316e-06
1.88088e-06
-3.17735e-06
2.78636e-06
-3.46098e-06
8.02938e-06
-5.29206e-07
3.96111e-07
-1.26027e-06
1.84698e-07
1.97969e-06
-2.74177e-07
-1.89021e-06
1.83603e-06
-1.87773e-06
2.26405e-07
-8.03662e-07
4.61937e-06
-2.73093e-06
1.34824e-06
1.10851e-06
-1.03951e-08
-4.61074e-06
2.4624e-06
-4.35053e-06
3.00698e-06
4.05322e-06
2.20533e-06
-1.66851e-06
-4.59004e-06
-1.86443e-06
2.78818e-07
5.63883e-06
-2.27437e-06
2.61527e-06
4.86241e-06
-1.40879e-07
-6.9959e-06
9.83595e-07
6.49409e-06
-3.16029e-06
4.4227e-06
-4.96968e-06
-2.0708e-06
2.94765e-06
2.8544e-06
-3.73124e-06
5.67828e-06
-3.21191e-06
-4.53717e-06
-2.08809e-07
8.83474e-06
-8.54356e-06
3.29121e-06
8.10675e-06
1.94416e-06
-1.4219e-05
4.7397e-06
-6.00745e-06
7.82211e-06
8.12304e-06
1.69372e-05
-5.94947e-07
-2.44653e-05
7.00498e-06
-6.14687e-06
7.26493e-06
4.1748e-06
1.97674e-05
1.62358e-05
-5.00262e-06
-1.738e-05
1.13696e-06
2.23637e-05
-1.07459e-05
1.60577e-05
-1.63435e-05
-1.21931e-06
-1.49233e-05
4.28456e-07
1.57142e-05
-2.23027e-05
2.44913e-05
-3.40797e-06
1.25214e-05
-4.97474e-05
1.78585e-05
-1.77108e-05
2.80728e-07
-6.01541e-06
3.95881e-05
-2.36066e-05
4.20825e-05
-2.8796e-05
-5.28064e-06
-9.98217e-06
-1.29908e-05
2.82536e-05
-5.58388e-06
-1.47483e-05
1.50515e-05
-8.89676e-06
-6.66929e-06
1.37641e-06
1.34418e-05
-2.3715e-05
1.6828e-05
-2.21209e-05
3.41251e-06
-4.719e-06
7.2497e-06
-1.54796e-06
2.25057e-07
1.46641e-06
-1.43506e-07
1.41285e-06
1.19593e-06
-4.15673e-06
2.62141e-07
1.37577e-06
1.31295e-06
-1.78918e-06
7.38368e-07
-1.34847e-06
4.03719e-06
7.05036e-07
-1.29829e-06
8.22973e-07
-1.85918e-06
-9.71713e-07
-2.58618e-07
3.08951e-06
4.6433e-07
-1.00003e-06
-1.32347e-06
-1.0078e-06
5.00418e-07
1.80466e-06
2.13784e-07
-3.02624e-06
8.87938e-07
1.41714e-06
1.43761e-06
-2.22386e-06
2.06693e-06
1.35847e-06
-1.9675e-07
2.28527e-07
-1.39025e-06
-2.05116e-06
-9.23015e-07
4.33264e-06
-1.66775e-06
-5.80163e-07
-1.8788e-06
1.47271e-06
6.3462e-07
7.99272e-07
-4.06832e-06
-1.42415e-06
1.97384e-06
-2.29262e-06
1.308e-07
1.36916e-06
-1.26705e-06
-2.32907e-07
1.21735e-06
1.54364e-07
-1.24091e-06
-7.98002e-07
3.38451e-06
-1.78742e-06
1.51539e-06
4.26387e-07
1.13795e-06
-4.16628e-06
-8.39167e-07
1.55656e-06
-9.68267e-07
1.45516e-06
1.17178e-06
1.17228e-06
-3.79922e-06
2.30569e-08
1.61682e-06
-1.84722e-07
1.17703e-06
1.78019e-08
-1.27482e-06
-8.76314e-07
3.32816e-06
-1.38441e-06
1.27394e-07
-9.48369e-07
1.68888e-06
-1.16049e-06
1.14593e-06
4.4511e-08
-1.15475e-06
-3.56883e-08
-1.21801e-06
-6.52436e-07
3.01637e-06
3.73745e-08
-1.21087e-06
-1.79489e-06
1.76512e-06
6.71424e-08
1.26662e-06
-4.27238e-06
-9.98916e-07
2.1116e-06
-8.87045e-07
-6.42423e-09
1.43496e-06
-1.49823e-06
6.96945e-08
1.11074e-06
-1.13492e-06
1.77575e-08
-1.16832e-06
3.71402e-06
1.08814e-06
7.93311e-07
1.09823e-06
7.67554e-09
-6.16825e-07
5.4673e-07
-1.32175e-06
4.14148e-08
-1.33766e-06
1.46372e-06
-1.67472e-07
-1.08042e-06
4.40684e-08
1.07777e-06
1.20913e-06
-3.62721e-06
1.014e-06
-1.15649e-06
1.86559e-07
-8.6593e-07
2.9577e-06
-5.48999e-07
1.14679e-06
-4.96363e-07
-1.06815e-06
-1.90718e-08
3.88762e-08
1.04835e-06
1.26329e-06
9.35127e-07
-3.26657e-06
1.41397e-06
-1.69753e-07
1.26776e-06
-1.44781e-06
2.18917e-07
-9.07372e-07
3.22348e-06
1.00743e-06
-1.52011e-06
1.51403e-06
-9.44484e-07
1.82831e-07
9.38053e-07
-1.764e-07
1.49797e-06
6.1836e-07
-3.06081e-06
1.14089e-06
5.39911e-07
-1.32511e-06
-4.69579e-07
2.73275e-06
-1.06597e-06
-4.35541e-07
1.11479e-06
-1.5624e-06
1.78609e-06
-6.83437e-07
4.9309e-07
6.8461e-07
-4.94262e-07
1.53841e-06
-5.62788e-08
-2.16557e-06
4.70135e-07
1.56136e-06
-1.47639e-06
3.52961e-08
2.1257e-06
-5.0594e-07
-1.46471e-06
1.10614e-06
-1.66836e-06
1.61157e-06
-6.40123e-07
-4.61669e-07
6.385e-07
4.63292e-07
1.84614e-07
1.48778e-06
-2.31252e-06
1.51755e-06
-1.7946e-06
-1.8046e-07
-1.15088e-06
1.96984e-06
-1.14907e-06
1.4319e-06
-6.06112e-09
3.44773e-07
3.606e-07
1.18003e-05
-3.70779e-08
-1.15846e-05
-1.78622e-07
-1.39575e-05
-9.80951e-06
3.55673e-05
-1.37477e-05
-2.46889e-07
1.32584e-05
9.61951e-06
-3.44626e-05
1.37181e-05
-6.38332e-07
-8.00557e-06
1.19142e-05
-1.21337e-05
-4.99767e-06
-6.97792e-07
3.94212e-06
1.75334e-06
3.89024e-06
1.10847e-06
-9.99637e-06
3.94333e-06
-7.50889e-07
-7.10272e-06
-2.63899e-06
1.3685e-05
-5.32371e-06
-2.5299e-06
5.56771e-06
-9.78295e-06
6.87084e-06
-1.41548e-06
2.42157e-06
-4.90565e-06
3.89956e-06
4.22092e-06
-1.42029e-06
-4.21612e-06
-4.95243e-06
1.15949e-05
-3.42288e-06
6.48827e-06
-4.48568e-06
6.28076e-06
-1.39198e-05
-1.56455e-07
1.6923e-06
1.21866e-06
-2.46671e-06
2.56377e-07
3.14406e-06
-9.33732e-07
2.62759e-06
2.05106e-06
-7.14535e-06
1.71001e-07
2.71296e-06
2.99899e-06
-3.35723e-06
5.29247e-07
-1.55692e-06
7.26887e-06
2.47623e-06
-3.78241e-06
4.06338e-06
4.42918e-07
1.22497e-06
2.19658e-06
-3.86446e-06
7.76108e-07
-1.11798e-06
7.84793e-07
3.75666e-06
-1.75558e-06
2.00048e-06
-2.59808e-06
-5.20379e-07
-6.40277e-07
3.42555e-06
1.07649e-06
-5.84449e-06
2.16991e-06
-3.21826e-06
3.65447e-06
-6.69381e-06
7.23221e-06
-1.03417e-05
1.71578e-06
-6.62489e-08
-3.73808e-06
8.87942e-06
-1.49862e-07
1.9478e-06
7.85187e-07
-1.72241e-06
-1.01058e-06
-1.10404e-06
-2.02393e-06
5.07577e-06
-1.70473e-06
1.38588e-06
2.68653e-07
1.93174e-06
-3.9228e-06
2.02935e-06
-2.77127e-06
4.82169e-07
-4.76753e-07
7.0918e-07
-4.84897e-07
-1.23181e-06
8.45557e-07
8.71152e-07
2.09655e-06
-1.87227e-06
2.25061e-06
-3.01534e-06
-2.64654e-06
-1.24635e-06
-2.30424e-07
2.15956e-07
1.26082e-06
1.14967e-06
-7.0764e-07
-1.68838e-06
-6.74079e-07
1.59332e-06
1.90534e-06
3.59837e-07
-2.93925e-06
8.36691e-07
2.66197e-06
1.39087e-06
-1.73868e-06
2.44352e-06
-1.70358e-06
5.21915e-06
2.31567e-06
-5.83124e-06
8.07067e-06
-6.38556e-06
-3.38869e-06
-2.70891e-06
1.59987e-05
-9.62656e-06
6.26455e-06
5.67768e-06
2.6146e-06
-1.80724e-05
7.04427e-06
-1.08152e-05
1.05999e-05
-7.03809e-06
4.99045e-06
7.68591e-06
-5.63827e-06
1.59026e-05
-2.10496e-06
-2.08358e-05
4.54363e-06
1.63495e-05
-1.76227e-05
1.46998e-06
2.38386e-05
-5.03936e-06
-1.82216e-05
1.35763e-05
-2.07207e-05
1.959e-05
-4.48143e-06
3.44123e-06
4.13432e-06
-3.09412e-06
9.18662e-06
-5.08252e-06
-8.58553e-06
9.79755e-07
1.16481e-05
-4.45783e-06
3.46947e-06
5.12269e-06
4.57872e-06
-1.21307e-05
5.83684e-06
-6.34063e-06
1.02861e-05
7.42504e-06
-2.90764e-06
-7.07052e-06
2.55312e-06
-1.2018e-05
-3.75183e-06
2.31949e-05
-9.27572e-06
-5.64994e-06
1.02785e-05
4.43924e-06
-2.17883e-05
9.38512e-06
3.44654e-06
-9.27257e-06
1.49059e-05
-1.41091e-05
-1.14e-06
-1.78584e-06
-2.34632e-06
5.27215e-06
-6.83608e-07
-2.85754e-06
2.40115e-06
-1.68752e-06
-7.81928e-07
1.17099e-06
2.73198e-06
-5.59048e-06
3.38826e-06
-2.9992e-06
9.94492e-07
-1.12006e-06
2.03643e-06
8.81207e-07
-6.74917e-07
-9.43263e-07
7.36973e-07
-2.11137e-06
3.62096e-08
2.95637e-06
-6.61529e-07
-2.12476e-06
1.85806e-06
-5.86862e-08
-2.74264e-06
4.60966e-07
2.13407e-06
-1.21679e-06
1.71396e-06
-1.937e-06
-2.0867e-06
-1.3698e-06
-7.64103e-07
4.22061e-06
2.53027e-07
-1.67233e-06
-6.67395e-07
-1.41506e-06
2.98286e-07
2.17166e-06
7.651e-07
-4.35183e-06
1.63305e-06
8.369e-07
1.81247e-06
-2.7197e-06
2.68141e-06
-1.13522e-06
-1.18336e-06
-8.03914e-07
3.12249e-06
-1.01441e-07
-1.09538e-06
6.15994e-08
-1.25445e-06
-3.03438e-08
2.97666e-06
2.88883e-06
-7.11994e-06
2.79637e-06
1.49942e-07
-5.58938e-07
2.5514e-06
1.23451e-06
-5.40852e-08
1.40879e-06
-1.64867e-06
2.93961e-07
1.13366e-06
-1.17216e-06
-1.55798e-08
-7.10998e-07
3.25345e-06
1.69105e-06
9.87508e-07
-3.85072e-06
1.88266e-06
-2.07195e-07
1.85236e-06
-2.51352e-06
3.02403e-06
-9.28488e-07
-8.28292e-07
-5.52099e-07
2.30888e-06
3.13105e-08
-8.25899e-07
-1.33899e-07
-8.2771e-07
3.07294e-08
1.08311e-06
6.56979e-07
-2.5678e-06
9.60899e-07
1.52942e-07
5.88287e-07
-7.57207e-07
9.97088e-07
-1.06419e-06
-7.68614e-07
-5.98157e-07
2.43096e-06
6.39753e-08
-8.34955e-07
-2.93208e-07
-7.75928e-07
7.12901e-08
8.47295e-07
3.71005e-07
-1.99423e-06
6.77762e-07
2.40824e-07
5.22834e-07
-9.86784e-07
6.02438e-07
-1.58535e-06
-2.98796e-07
1.4672e-06
4.16945e-07
1.8065e-06
3.03578e-06
-6.42763e-06
2.44785e-06
-9.40148e-07
-1.21693e-06
-1.95188e-06
4.63601e-06
-1.7089e-06
9.08912e-07
-2.32094e-07
1.55898e-06
2.63877e-07
1.63237e-06
-3.7494e-06
7.08264e-06
-4.96561e-06
-4.3905e-06
4.58021e-06
1.44266e-06
4.74587e-06
-1.28858e-05
-4.13438e-06
-4.93259e-06
1.36472e-05
-6.94047e-06
4.24875e-06
-4.13088e-06
6.28092e-06
-6.32548e-06
-5.62438e-06
-2.04032e-06
2.48118e-06
5.18352e-06
3.35241e-06
1.60058e-07
-9.13685e-06
-2.29841e-06
3.6105e-06
7.56697e-06
-2.4655e-06
-7.39988e-06
-2.53941e-07
1.14314e-05
4.55163e-06
-6.85708e-06
6.77887e-06
3.72149e-08
-2.99341e-06
-4.36729e-06
7.32349e-06
-2.59674e-06
-4.30854e-06
6.9425e-06
-2.43069e-06
-3.15946e-06
-3.54166e-07
4.77194e-06
-6.84847e-06
5.31108e-06
-8.82471e-06
-7.37852e-07
1.7404e-06
-3.33206e-07
-3.23822e-07
2.71046e-06
-3.44388e-06
1.05725e-06
2.88994e-06
-2.95166e-06
-2.62098e-07
-1.936e-06
7.53639e-06
3.52013e-06
2.13127e-06
-8.60307e-06
3.88367e-06
-6.25645e-07
-2.87743e-06
4.82511e-06
-4.19004e-06
-1.46815e-06
-1.99037e-06
-1.80522e-06
5.26374e-06
-2.70523e-07
-2.578e-06
1.38037e-06
-2.62322e-07
-1.99857e-06
-1.30375e-06
2.6495e-06
-1.60808e-06
2.82032e-06
-6.12264e-06
3.50723e-07
-1.08397e-07
1.195e-06
-6.82564e-07
-4.56921e-08
2.55601e-07
4.72655e-07
1.18436e-06
-6.05196e-07
-1.26173e-06
-2.83673e-07
1.42234e-06
-6.48621e-07
3.44305e-07
5.59917e-07
5.55756e-07
-7.31722e-07
-2.35379e-07
1.85939e-07
-1.74746e-07
9.36193e-08
-1.49814e-06
-1.99888e-07
1.60441e-06
-1.02433e-06
-5.23315e-08
1.17028e-06
-1.1501e-06
-1.37237e-06
2.65948e-06
-1.87184e-06
-9.87528e-07
-2.44781e-07
4.50867e-06
-8.23431e-07
5.26318e-07
-3.84538e-06
-8.68563e-07
3.37644e-06
1.49218e-06
-4.00006e-06
3.27767e-06
-3.89307e-06
-2.53158e-07
-2.15779e-06
8.8119e-06
-6.31267e-06
5.05094e-06
2.75391e-06
3.56935e-06
-1.38821e-05
2.3729e-06
-2.69662e-06
5.26605e-06
-1.89413e-05
-1.23118e-06
1.69403e-05
3.23222e-06
1.39003e-05
1.05767e-05
-4.34183e-05
-6.01254e-07
1.32704e-05
1.82698e-05
-1.76116e-05
-1.25946e-06
-9.64143e-06
4.11816e-05
1.48373e-05
-2.18721e-05
2.21361e-05
2.22398e-07
-1.8982e-05
1.94458e-05
-6.8617e-07
-1.52882e-05
1.53608e-05
1.4976e-07
1.15182e-05
-4.57884e-05
-1.91364e-05
-1.1615e-05
4.61122e-05
-1.94572e-05
4.70618e-07
-1.56606e-05
2.34914e-05
-2.35996e-05
-1.35052e-05
-1.76328e-06
8.8448e-06
6.42369e-06
8.54181e-06
4.27485e-06
-2.63219e-05
-1.04018e-06
7.8187e-06
1.05681e-05
-6.87808e-06
-4.7302e-06
-2.81194e-06
2.11988e-05
9.17288e-06
-1.17761e-05
1.52057e-05
4.5533e-06
1.81057e-06
-5.83547e-07
-5.78032e-06
-1.94773e-06
8.59155e-07
5.64187e-06
-1.75365e-06
1.61649e-06
4.1471e-06
-1.00052e-06
-4.90024e-06
6.91528e-07
5.07206e-06
-3.09234e-06
4.64302e-06
-4.6764e-06
-2.27645e-06
-1.19489e-06
-1.16642e-07
3.58798e-06
7.86123e-07
-1.08178e-06
-1.98079e-06
-1.26437e-06
8.55605e-07
2.70292e-06
2.71521e-07
-4.23881e-06
1.07947e-06
2.47906e-06
1.76151e-06
-2.57177e-06
2.72433e-06
-1.2922e-06
-2.06623e-08
1.22676e-06
8.61028e-08
1.47118e-06
9.90371e-07
-3.75375e-06
1.37378e-06
7.6737e-08
-2.60399e-06
-2.07318e-06
5.90393e-06
-2.74783e-06
2.29942e-07
1.2757e-06
-3.03316e-06
5.76302e-07
2.40086e-08
2.58849e-06
-2.53576e-06
1.94015e-06
-2.08604e-06
1.699e-07
5.10493e-06
2.88405e-06
-9.17356e-06
-2.23514e-06
1.31179e-06
1.49365e-07
-1.40264e-06
-5.8515e-08
-1.37243e-06
-5.4342e-07
3.22764e-06
-1.47772e-06
2.54653e-07
3.7511e-06
3.46009e-06
-8.61383e-06
3.62148e-06
7.11084e-08
-1.70295e-06
4.78101e-06
2.79426e-07
2.23521e-06
2.72356e-07
-2.25291e-06
-1.65709e-06
-2.56013e-06
2.48212e-06
3.50372e-07
-4.53362e-06
5.60603e-06
-4.29305e-06
-1.35488e-06
-2.40081e-06
8.04875e-06
5.87698e-08
-4.62042e-06
2.68601e-07
6.55295e-06
-8.62198e-06
7.27462e-06
-6.81049e-07
-3.87355e-10
6.82875e-07
-1.43885e-09
6.46353e-07
3.71467e-07
-1.69887e-06
5.69965e-07
7.60012e-08
-8.98824e-07
-6.0837e-07
2.19007e-06
-7.49747e-07
-1.50516e-07
3.35758e-07
-7.14039e-07
2.97353e-07
-3.37733e-07
7.01329e-07
-8.44485e-07
4.8089e-07
5.60155e-07
2.35892e-07
-1.13378e-06
4.21995e-07
8.39489e-07
9.67628e-07
-3.43409e-07
-1.4687e-06
2.14194e-07
1.23432e-06
5.20541e-07
-6.28059e-07
1.15673e-06
-9.23031e-07
-5.02896e-07
7.37565e-07
6.88361e-07
8.04285e-07
1.15163e-06
-2.87895e-06
1.19804e-06
-8.96654e-07
-2.20164e-07
-1.27962e-06
2.23735e-06
-1.66143e-06
2.12963e-06
6.95224e-07
-1.20502e-06
6.13644e-07
8.44581e-07
1.29068e-06
2.63013e-07
-2.39827e-06
2.91016e-07
-2.32157e-07
7.85722e-07
6.85038e-07
1.51015e-06
-9.69522e-07
-7.72784e-07
-2.57341e-07
2.55321e-06
-1.18676e-06
1.61446e-06
-1.89327e-06
2.70681e-07
2.29493e-06
-1.95511e-06
-6.10503e-07
1.96834e-06
3.34728e-07
-2.03239e-06
-1.10186e-06
5.36513e-06
-2.9546e-06
2.37284e-06
9.1649e-07
1.77571e-06
-6.7627e-06
-1.43714e-06
2.70812e-06
-1.61653e-06
-7.89624e-08
-2.45856e-06
2.32667e-06
2.10844e-07
-2.24945e-06
-3.20444e-09
2.17369e-06
1.81895e-06
-6.52695e-06
2.65382e-06
-2.68574e-06
2.87177e-08
-1.99587e-06
6.82339e-06
1.2188e-06
-2.0856e-06
1.5496e-06
2.47246e-06
-1.88439e-06
-2.86715e-06
2.27907e-06
-5.95748e-06
1.89509e-07
8.24043e-06
-2.49778e-06
-5.34408e-06
5.79951e-06
9.10179e-08
-8.75767e-06
1.97469e-06
6.10389e-06
-4.52945e-06
6.69365e-06
-6.93622e-06
-2.85417e-06
2.13521e-06
6.22089e-06
-5.50193e-06
4.00119e-06
5.46517e-06
-1.23205e-05
2.42507e-06
3.71133e-06
1.51748e-06
-6.05684e-06
6.96443e-06
-5.91438e-06
1.11432e-05
1.16546e-06
-1.75714e-06
1.47197e-06
-1.09889e-08
-1.78379e-06
2.59332e-08
1.76884e-06
-2.60653e-06
2.35522e-06
2.40317e-07
1.82628e-06
-6.21659e-06
2.02604e-06
-1.9663e-06
-3.38087e-08
-1.08041e-06
4.8753e-06
-1.7554e-06
3.03021e-06
-1.89543e-06
2.65256e-06
-2.76055e-06
7.41818e-08
-3.35802e-06
1.08859e-05
3.50649e-06
-8.16247e-06
3.44429e-06
1.36381e-07
3.11648e-06
8.18677e-07
1.37913e-06
1.24592e-06
-3.44373e-06
5.40478e-07
1.7124e-06
-1.4342e-06
4.39117e-07
1.48049e-06
1.19923e-06
-1.92904e-06
1.16893e-06
-1.65205e-06
4.33177e-06
-5.78646e-07
6.38999e-07
-1.26177e-06
3.49517e-06
2.05185e-06
6.69505e-07
-6.21653e-06
3.1586e-07
2.08494e-06
1.09437e-06
2.16534e-06
2.02369e-07
-2.48011e-06
-1.25719e-06
5.90265e-06
-1.22455e-06
-1.0532e-06
-2.05094e-06
2.87869e-06
-2.60599e-06
7.08614e-07
-1.43887e-06
-1.02563e-06
1.75588e-06
5.50205e-07
-1.72499e-07
3.30908e-07
-1.53659e-06
6.47923e-07
2.56506e-06
-5.13878e-07
-3.58777e-06
7.21167e-07
2.49182e-06
1.47821e-06
-2.16459e-06
1.17376e-06
-3.84352e-07
1.03888e-07
7.15732e-07
-4.35268e-07
-1.24358e-06
2.91823e-07
5.67403e-07
-4.50755e-07
-6.88935e-07
2.76046e-07
6.86078e-07
-2.46392e-07
-3.49726e-08
-1.2425e-07
6.69443e-07
3.08458e-07
1.83715e-07
-1.13725e-05
-1.25962e-05
-1.16331e-05
3.56018e-05
-3.54647e-06
-1.96486e-05
1.18225e-05
-1.34344e-05
-2.70831e-06
1.56046e-05
1.61279e-05
-4.51668e-05
2.06465e-05
-7.75023e-06
1.36348e-05
-1.71556e-05
2.26482e-05
1.37439e-05
-8.87896e-07
-1.74143e-05
4.55838e-06
-1.15895e-05
-1.1985e-05
3.73184e-05
-6.24133e-06
-6.2361e-06
3.346e-06
1.75316e-05
-2.71189e-05
1.42043e-05
-1.70944e-05
-5.16564e-06
1.07122e-05
-8.37564e-06
1.63854e-05
-6.78735e-08
-1.65585e-05
2.41021e-07
-1.83987e-05
-1.35612e-05
4.83453e-05
-1.93748e-05
9.08266e-07
2.03576e-05
1.56066e-05
-5.25227e-05
2.12693e-05
-6.70733e-07
-1.13966e-05
1.91047e-05
-1.51649e-05
9.04847e-06
7.96397e-06
3.51035e-06
-2.05228e-05
-2.63462e-06
9.39981e-06
2.28329e-06
9.03477e-06
-3.70542e-06
-1.38284e-05
-4.79387e-06
2.7657e-05
-8.72773e-06
-8.80607e-06
-7.95374e-06
1.25597e-05
-1.31711e-05
3.81252e-06
3.78474e-06
-3.42936e-06
-4.1679e-06
3.43908e-08
-7.34703e-06
1.11252e-05
-7.97761e-06
1.17967e-05
-1.07127e-06
5.89243e-06
-8.25051e-06
7.36638e-06
-1.26056e-05
-1.53199e-06
1.55134e-06
-3.61718e-06
-1.5618e-06
-1.1301e-07
1.39355e-06
2.81262e-07
1.71099e-06
1.24981e-06
-4.52259e-06
1.56508e-06
3.28918e-08
-2.51869e-06
-2.12396e-06
6.0362e-06
-2.76031e-06
5.22877e-07
1.31688e-06
-2.82738e-06
7.58005e-07
8.87879e-08
2.78842e-06
-2.84431e-06
1.97108e-06
-2.24127e-06
3.5898e-07
5.5175e-06
3.53399e-06
-1.09009e-05
-1.53466e-06
-2.52121e-07
1.37053e-06
2.96164e-07
-1.41458e-06
2.08607e-06
-1.67357e-06
-6.64626e-07
-7.65514e-07
4.22212e-06
-2.1663e-06
1.63098e-06
8.31491e-07
7.64018e-07
-4.34489e-06
1.80925e-06
-2.7188e-06
2.67471e-06
-1.19304e-06
-3.38796e-07
1.16359e-06
3.68243e-07
7.96845e-07
1.39355e-06
-3.38344e-06
1.47019e-06
-1.01214e-06
-9.28899e-07
-1.7393e-06
3.8318e-06
-1.84892e-06
1.28827e-06
1.62082e-07
-6.17456e-07
-1.0703e-07
-1.01386e-06
-3.09109e-07
9.83109e-07
3.39856e-07
8.02273e-07
1.34819e-06
-3.16432e-06
1.52497e-06
-1.03181e-06
-7.64784e-07
-1.3227e-06
3.0706e-06
-1.57112e-06
1.1462e-06
4.11736e-07
-6.34671e-07
6.14003e-07
8.75443e-08
1.60613e-06
-1.59265e-06
-1.01019e-07
2.38458e-06
-2.38657e-06
8.95286e-08
-2.53298e-06
-3.22276e-06
7.65186e-07
-4.74441e-06
-2.24508e-06
-3.88922e-07
-4.70265e-06
-7.00102e-07
-1.12953e-06
-7.07374e-08
1.90037e-06
1.52536e-07
-5.18012e-07
-3.34625e-07
1.63334e-07
-1.14033e-06
1.0557e-06
-1.3617e-06
-2.12008e-07
-2.08584e-06
3.0708e-06
-2.31143e-06
-4.81346e-06
-2.12987e-06
-3.01067e-06
-1.39859e-06
-1.06591e-06
-4.62126e-06
-1.24143e-05
-1.02426e-05
-1.0526e-05
3.31828e-05
-3.51696e-07
-1.30283e-05
9.65681e-07
-1.0052e-05
-5.42294e-07
9.7729e-06
7.65867e-06
-2.74835e-05
1.06768e-05
-1.44617e-06
5.50223e-06
-1.08719e-05
5.65305e-06
-9.03423e-07
-7.14379e-07
-1.14527e-06
2.76307e-06
-2.15435e-07
-5.43213e-07
-1.44775e-07
-8.69642e-07
-6.01722e-08
6.42854e-07
-6.83407e-08
-1.44416e-06
9.20308e-07
-3.37626e-07
1.53082e-07
-7.64636e-07
-7.18791e-08
4.50383e-08
-4.98306e-07
-2.66655e-08
4.79933e-07
-7.63441e-07
4.58916e-07
3.49563e-07
2.93991e-07
-1.55574e-06
5.96263e-07
-5.37727e-07
-8.5202e-08
-2.81845e-07
1.35804e-06
-4.36052e-07
6.13123e-07
-6.79788e-07
-3.81302e-07
-1.77889e-06
1.07253e-06
1.08767e-06
-1.16128e-06
-3.26889e-07
1.10687e-06
7.98259e-07
-3.73843e-06
1.65344e-06
-1.12668e-06
-8.53648e-07
-5.33587e-07
3.2939e-06
9.08274e-07
-1.2367e-06
1.44722e-06
-1.80163e-06
6.65735e-07
2.71363e-06
-1.57773e-06
2.03266e-06
1.75647e-06
-5.59075e-06
7.45754e-07
1.95264e-06
1.84997e-06
-3.43849e-06
2.33427e-06
-2.46696e-06
6.26957e-06
2.00322e-06
-3.68524e-06
2.24989e-06
2.691e-06
-5.95469e-07
-2.71916e-06
6.23626e-07
-3.44801e-06
-1.34087e-06
7.47988e-06
-2.44849e-06
-1.59499e-06
4.13259e-06
1.87182e-06
-8.72357e-06
2.90466e-06
1.85155e-06
-2.08981e-06
3.65361e-06
-2.66648e-06
5.24222e-06
2.43492e-06
-3.81447e-07
-7.29568e-06
-1.64137e-06
1.62306e-06
5.26052e-06
2.27017e-06
-1.47662e-06
-4.14229e-06
-9.87559e-08
6.51122e-06
-1.67879e-06
-3.94012e-06
-3.55072e-06
5.07503e-06
-5.61096e-06
5.71374e-06
1.83508e-06
-1.99805e-06
-5.55078e-06
-2.81957e-06
1.18615e-07
8.4147e-06
1.94564e-06
-2.93013e-06
-6.52463e-06
2.09206e-06
6.37821e-06
-6.79692e-07
-8.77507e-06
-5.00467e-06
7.21535e-06
-7.68241e-06
-1.63569e-06
-7.96622e-07
1.89341e-08
2.41337e-06
4.01797e-07
1.87995e-08
-2.05628e-06
-4.54472e-07
5.96478e-08
7.31787e-07
-7.00982e-07
-4.85277e-07
-2.93759e-07
1.08519e-06
6.4963e-07
-1.33181e-06
3.74805e-07
6.12464e-07
-9.34184e-07
-4.97018e-07
8.18739e-07
-4.05916e-07
-9.06846e-07
1.92523e-06
-7.49431e-07
-5.90669e-07
1.31756e-07
6.05799e-07
-1.23457e-06
2.47897e-07
7.02597e-07
-5.38933e-07
-1.20016e-07
-6.82564e-07
8.80257e-08
5.97744e-08
5.03009e-08
-1.98101e-07
-9.95955e-08
-2.26584e-08
2.1028e-07
2.35358e-08
-6.33569e-08
4.76714e-07
-2.47545e-07
-2.05633e-07
-2.75006e-07
6.88363e-07
2.21048e-08
-2.19349e-07
-2.7556e-07
-4.60772e-08
-3.78484e-08
5.78436e-08
2.6082e-08
7.65281e-08
4.78386e-08
-1.70444e-07
6.71175e-08
-2.84378e-08
-3.63837e-08
2.08529e-07
-1.14302e-07
1.99246e-07
-1.87791e-07
-1.56998e-07
4.32645e-07
1.38101e-08
6.43446e-08
-3.34014e-07
4.79949e-07
-3.53106e-07
-9.6268e-07
1.14212e-06
-1.40777e-05
-7.61755e-07
1.36973e-05
-2.00331e-05
1.52751e-05
5.90014e-06
8.49782e-06
-4.26087e-05
1.64852e-05
-1.24764e-05
-4.77061e-06
-6.92402e-06
3.71066e-05
-1.42059e-05
2.2557e-05
-1.81844e-05
-6.96165e-06
-8.06791e-06
-4.10779e-06
1.91373e-05
5.18819e-07
-7.90041e-06
4.19945e-07
-9.58384e-06
2.03474e-06
1.71321e-05
7.54201e-06
-3.42579e-05
1.13369e-05
7.82987e-06
9.40511e-06
-9.76352e-06
1.66343e-05
1.51637e-05
1.79232e-05
1.29643e-05
-4.60513e-05
-9.20667e-07
1.46746e-05
1.40978e-06
1.84196e-05
-1.41705e-06
-1.6195e-05
-1.26985e-05
4.35681e-05
-1.86118e-05
3.82663e-06
1.19983e-05
-1.76458e-05
1.77194e-05
1.6062e-05
1.86286e-05
1.19363e-05
-4.66268e-05
-5.16784e-07
1.04313e-06
1.55357e-05
1.89643e-05
-8.52558e-07
1.79852e-05
-2.03808e-05
3.43867e-06
-1.36424e-05
4.71633e-05
-1.38066e-05
1.91286e-05
-2.22512e-05
1.29711e-06
2.86452e-06
-1.13297e-06
-3.02866e-06
1.73796e-06
-4.08893e-06
3.64809e-06
-3.75637e-06
8.35885e-06
-2.12395e-06
3.84806e-06
-2.85708e-06
3.86507e-06
-9.01769e-06
5.15044e-07
-7.38903e-07
6.06734e-07
-1.06635e-06
-2.98816e-06
-8.31259e-07
4.88576e-06
4.82387e-08
-1.15228e-06
3.76937e-08
-2.98159e-06
4.1673e-08
-9.2988e-07
-4.74449e-06
4.84311e-06
-3.66301e-06
1.58085e-06
5.06423e-06
-1.17088e-05
3.61412e-07
1.49607e-06
1.22473e-07
-4.51906e-06
4.46523e-07
-9.21787e-07
-1.10755e-06
-1.56494e-06
3.59427e-06
-4.16649e-07
-1.92568e-06
1.42054e-06
-1.14013e-06