/*--------------------------------*- C++ -*----------------------------------*\
| =========                 |                                                 |
| \\      /  F ield         | OpenFOAM: The Open Source CFD Toolbox           |
|  \\    /   O peration     | Version:  v2012                                 |
|   \\  /    A nd           | Website:  www.openfoam.com                      |
|    \\/     M anipulation  |                                                 |
\*---------------------------------------------------------------------------*/
FoamFile
{
    version     2.0;
    format      ascii;
    class       volVectorField;
    location    "0.15";
    object      U;
}
// * * * * * * * * * * * * * * * * * * * * * * * * * * * * * * * * * * * * * //

dimensions      [0 1 -1 0 0 0 0];


internalField   nonuniform List<vector> 
24700
(
(0.019008 -1.74853 0.018781)
(-0.00718648 -1.69616 0.0102429)
(-0.00521789 -1.64057 3.39337e-05)
(0.0757261 -1.44549 -0.0178508)
(0.0344725 -1.56082 -0.0404964)
(0.0828513 -1.51137 -0.0585804)
(0.0600937 -1.56403 -0.0499136)
(-0.0102565 -1.48871 0.004596)
(0.0850422 -0.898081 -0.0188908)
(0.0276775 -1.39756 -0.0243683)
(-0.002391 -1.46808 -0.0212549)
(-0.0035135 -1.49943 0.0048288)
(-0.000118317 -1.48557 -0.0220148)
(0.00404027 -1.47121 -0.0192211)
(0.00569474 -1.48467 0.00344666)
(-0.00162869 -1.49554 0.000721671)
(-0.00266342 -1.4898 -0.0169407)
(-0.00554738 -1.57168 0.0182367)
(0.0333584 -1.54349 0.0208514)
(0.00153921 -1.67433 0.0988646)
(0.0453112 -1.451 0.00298824)
(0.00762288 -1.49857 -0.00171416)
(0.0250799 -1.44684 0.0107261)
(0.00336681 -1.57487 0.0557951)
(0.0545035 -1.43741 -0.00288899)
(0.0072469 -1.51587 -0.00670369)
(0.0490768 -1.21156 -0.00211788)
(-0.0110046 -1.49915 0.0115255)
(-0.0253369 -1.50427 -0.0313991)
(0.00470043 0.313113 -0.0877451)
(-0.00319611 0.290015 -0.148074)
(-0.0250136 0.286793 -0.101942)
(0.0116284 0.276573 -0.107544)
(0.0306204 0.233651 -0.183714)
(0.00207272 0.262348 -0.0885547)
(0.00783505 0.236377 -0.133071)
(-0.0254651 2.17405 -0.429216)
(-0.00137493 2.08177 -0.538376)
(0.0201967 2.07259 -0.698215)
(-0.0265996 2.02702 -0.681496)
(-0.0832103 2.06435 -0.621008)
(-0.047465 2.03229 -0.550352)
(-0.0931624 2.08509 -0.456648)
(0.0183893 -0.671989 0.385054)
(0.0178545 -0.604281 0.374021)
(0.111899 -0.683613 0.320286)
(0.0666357 -0.188176 0.248452)
(-0.0673293 -0.0216057 0.313575)
(-0.0379853 -0.028065 0.341387)
(0.0580157 -0.342035 0.231262)
(0.00794037 0.962014 0.73743)
(0.00174991 1.04902 0.676698)
(0.00667546 0.936751 0.797279)
(-0.00608515 0.995217 0.720917)
(0.00333155 0.960426 0.762107)
(0.00933133 0.946094 0.749143)
(0.00923004 0.93982 0.781087)
(0.14028 -2.06762 0.411284)
(0.225996 -2.54738 2.11168)
(0.957839 -1.90111 -0.894698)
(0.278581 -1.71615 -0.801967)
(-0.843304 -1.40551 -0.311499)
(0.697047 -1.68992 -0.827949)
(-0.753542 -1.50918 -0.85442)
(-0.00134228 0.0338439 -0.114278)
(-0.00969492 0.0547263 -0.144354)
(0.00108406 0.0749301 -0.146929)
(0.00926876 0.0766219 -0.126746)
(0.00462391 0.057825 -0.129495)
(-0.00205235 0.0717728 -0.14706)
(0.00653534 0.0899983 -0.144116)
(0.00824985 -0.0285229 -0.128209)
(0.00248 -0.0323887 -0.0952208)
(0.0180756 -0.0560647 -0.116035)
(-0.00942791 0.00585247 -0.0529436)
(-0.0189565 -0.0224471 -0.0704455)
(0.00944808 -0.0302203 -0.0893948)
(0.000735417 0.0117704 -0.0830523)
(0.0101688 -1.46342 -0.0832753)
(-0.0220613 -1.1184 0.0261233)
(-0.00280463 -1.50677 -0.0765592)
(-0.0541746 -1.58236 -0.0560872)
(0.0429198 -1.32441 -0.105261)
(-0.0143107 -1.53952 -0.12369)
(-0.0208077 -1.54717 -0.103124)
(0.000554118 -0.111112 -0.0559807)
(-0.0471507 0.03367 -0.0410281)
(-0.0235621 0.0121265 0.0267966)
(0.0126318 -0.0653166 0.133066)
(0.0415113 -0.0693198 -0.0639826)
(0.0028879 0.0435531 -0.0654643)
(-0.0602379 -0.0387857 0.108454)
(0.000303678 0.11149 -0.084337)
(-0.00230282 0.116921 -0.0858108)
(-6.88223e-05 0.106665 -0.0812374)
(0.00130162 0.115935 -0.0755714)
(0.00150145 0.111449 -0.0734135)
(-0.000907597 0.11319 -0.0748006)
(0.0015433 0.111271 -0.076176)
(-0.000245851 0.178902 -0.0856512)
(0.00195758 0.187952 -0.0962483)
(-0.00159359 0.191886 -0.104769)
(-0.00279523 0.203653 -0.104661)
(-0.000617335 0.198895 -0.0935755)
(-0.00180307 0.2002 -0.0990932)
(-0.00607161 0.202497 -0.109174)
(0.000109163 0.313329 -0.0864708)
(-0.000585829 0.302679 -0.0817387)
(0.000353738 0.301029 -0.0882357)
(0.00111649 0.300079 -0.0901429)
(-0.0041829 0.30777 -0.0938278)
(0.0010803 0.300652 -0.0834638)
(-0.00357438 0.313959 -0.0907957)
(0.0212925 0.121109 0.0152084)
(0.00154045 0.170041 0.0145607)
(-0.00195337 0.192352 0.00901457)
(-0.00397097 0.177875 -0.00508488)
(-0.00142502 0.15368 -0.00948685)
(0.00712544 0.128509 -0.0159344)
(0.00208182 0.173468 -0.014591)
(0.011881 0.046832 -0.000191307)
(-0.00898473 0.151884 -0.00660489)
(0.00116862 0.14117 0.0119497)
(-0.000273965 0.183633 -0.00835414)
(0.000353782 0.182649 -0.00960329)
(3.97698e-05 0.180601 -0.00862199)
(-0.0024291 0.178945 -0.00622415)
(0.000439281 0.182527 -0.00591313)
(-0.00207293 0.177958 -0.00447927)
(0.00101144 0.180663 -0.00405382)
(0.00238624 0.176957 0.0005597)
(-0.00103294 0.178693 -0.00337058)
(0.000569558 0.179459 -0.00129127)
(0.00860033 0.180088 -0.00149969)
(-8.10715e-05 0.181036 -0.00243213)
(0.00045185 0.174851 -0.0155212)
(0.000110683 0.166454 -0.00436571)
(0.00156549 0.171091 -0.0105364)
(-0.00136531 0.172558 -0.00937698)
(-0.000286389 0.175358 -0.0125206)
(0.00101318 0.176108 -0.0162631)
(0.00029087 0.17397 -0.0131797)
(-7.8949e-05 0.12524 -0.076378)
(0.000355571 0.126722 -0.0710967)
(0.000376558 0.12923 -0.0740055)
(0.000628492 0.132677 -0.0851865)
(-0.00157519 0.130098 -0.0831807)
(-0.000358117 0.12722 -0.0745161)
(0.00083602 0.129064 -0.0755649)
(-0.0969429 -0.837971 0.260957)
(-0.0452456 -0.762143 0.29435)
(-0.0105244 -0.778453 0.352741)
(0.0545997 -0.126268 0.264736)
(-0.0493938 -0.365545 0.241201)
(0.00570022 -0.190609 0.248409)
(-0.0787212 -0.524033 0.209311)
(-0.00827552 1.34065 -0.0154248)
(0.0237032 1.3859 -0.191459)
(0.014492 1.19157 0.0841226)
(-0.0109117 1.2415 -0.00589781)
(-0.0142483 1.27784 -0.125035)
(0.0189941 1.36907 -0.176446)
(-0.00789836 1.35416 -0.0517304)
(0.00167833 0.761711 -0.405864)
(-0.0201114 0.841094 -0.412431)
(-0.0258409 0.921218 -0.424158)
(0.0145772 0.791051 -0.477345)
(0.00944528 0.742499 -0.449992)
(-0.0165766 0.807412 -0.445497)
(-0.0215034 0.847973 -0.455653)
(0.00433038 0.337962 -0.643924)
(0.0113523 0.562757 -0.771615)
(-0.0126999 0.419786 -0.771138)
(0.0096694 0.378722 -0.673229)
(0.0018228 0.458993 -0.675655)
(0.00385967 0.563186 -0.7501)
(0.00130189 0.41877 -0.759627)
(-0.00276764 -0.343764 -0.221018)
(-0.0193536 -0.360002 -0.224602)
(-0.00490223 -0.297797 -0.230798)
(0.00786126 -0.31781 -0.220755)
(0.0373588 -0.317391 -0.217735)
(-0.00289601 -0.35626 -0.202699)
(0.0306729 -0.337606 -0.188368)
(-0.00794204 -0.124226 -0.174019)
(-0.0787595 -0.0437587 -0.272169)
(-0.00978563 -0.285694 -0.162942)
(0.0412816 0.119315 -0.24995)
(0.0452931 -0.0887029 -0.163808)
(-0.0226499 0.0858296 -0.252165)
(0.0194487 -0.0430618 -0.146296)
(-0.00551662 0.706799 -0.100069)
(-0.0145911 0.822325 -0.0715583)
(0.00829882 0.685689 0.0433051)
(0.0201642 0.943948 -0.104922)
(0.0190724 0.87816 -0.175134)
(0.0143587 1.01655 -0.155363)
(0.00232456 0.783417 -0.174364)
(-0.039873 -0.69835 0.352238)
(-0.0289142 -0.953354 0.370582)
(-0.0130373 -0.398027 0.44761)
(0.000684001 -1.11009 0.330344)
(0.0203804 -1.26773 0.294628)
(0.0250756 -1.05199 0.314743)
(-0.00743163 -0.772836 0.401637)
(0.000237987 -1.99512 -0.00818432)
(-0.004657 -1.9827 0.0191554)
(0.00409492 -1.99993 -0.0306753)
(0.00303297 -1.97764 0.00984904)
(0.00129815 -1.95262 -0.0241592)
(0.00210607 -1.97448 -0.0301148)
(0.00279016 -1.98038 -0.00527244)
(0.00207918 -0.216204 0.0639088)
(-0.0293191 -0.033413 0.023431)
(0.0135887 -0.207162 -0.00965726)
(0.0180293 -0.127926 0.0677472)
(-0.0029257 0.130077 0.135152)
(-0.081917 0.0965379 0.0959028)
(-0.0661888 -0.119208 0.0600337)
(0.00908573 0.546412 0.159276)
(0.00215095 0.517049 0.191682)
(0.0138675 0.541013 0.168113)
(-0.0165425 0.542292 0.162181)
(-0.0207876 0.55591 0.144241)
(-0.00326875 0.557407 0.159486)
(-0.010477 0.561784 0.153338)
(0.00550409 0.672479 0.128391)
(0.0276897 0.66623 0.100429)
(-0.00651798 0.676068 0.15619)
(0.0038751 0.630778 0.0945038)
(-0.0176686 0.65735 0.138044)
(0.0299952 0.649996 0.0743518)
(-0.00230218 0.651133 0.111866)
(-0.00531221 0.555302 -0.197117)
(0.019016 0.512646 -0.388602)
(-0.0219762 0.473418 -0.297321)
(0.00463589 0.585709 -0.276322)
(0.0276627 0.606297 -0.349145)
(0.0555418 0.585668 -0.381236)
(0.0172621 0.528161 -0.33267)
(0.00164837 0.325812 -0.139398)
(0.00918526 0.285058 -0.135577)
(0.0344275 0.346246 -0.178643)
(-0.00420951 0.308223 -0.146163)
(-0.0150097 0.289412 -0.112922)
(0.00324016 0.281828 -0.116442)
(0.0270169 0.340061 -0.172307)
(-0.0953176 -0.11854 0.0471568)
(-0.103851 -0.148576 -0.0155713)
(-0.0809873 -0.0329896 0.0220925)
(0.0379226 -0.0966077 -0.0602804)
(0.0250938 -0.0355271 -0.125238)
(-0.0453091 0.0699009 -0.157826)
(0.024816 0.00187161 0.0270013)
(0.0287591 -0.00578402 -0.00899175)
(0.0311884 -0.0151275 -0.000904998)
(0.00552175 0.00971224 0.0268108)
(-0.00513784 0.00591349 0.0252307)
(-0.0130493 0.0100937 0.0485252)
(0.0489093 -0.0163035 0.14047)
(0.0351434 0.0448519 0.103031)
(-0.0253076 -0.293674 0.12893)
(0.0596506 -0.214096 0.0294325)
(0.0758205 -0.246149 -0.0574996)
(0.136134 -0.0850212 -0.0196296)
(0.112446 -0.0372745 0.101781)
(0.177818 -0.241957 0.0955392)
(-0.207627 0.144765 -0.0841539)
(-0.0758692 -0.646569 -0.0992762)
(-0.025656 -0.0358676 -0.038825)
(0.10312 -0.363473 0.0431638)
(-0.183674 0.0581736 -0.0107782)
(0.132529 -0.117161 0.0495645)
(-0.00359162 -0.207878 -0.253759)
(-0.0136654 -0.300191 -0.384901)
(0.0021235 -0.296899 -0.235334)
(0.0425614 -0.115802 -0.388191)
(0.0304551 -0.231398 -0.375717)
(0.0232503 -0.249783 -0.249442)
(0.0220095 -0.141005 -0.249869)
(-0.0168752 -0.0780438 -0.340946)
(-0.00392693 -0.0372563 -0.316098)
(0.024616 -0.123644 -0.286039)
(-0.0205062 0.076242 -0.190912)
(0.0153264 0.184349 -0.258638)
(0.007523 0.18529 -0.301543)
(0.044106 0.112271 -0.228969)
(-0.0578338 0.203579 -0.284617)
(-0.0105187 0.239599 -0.279089)
(-0.0076711 0.387038 -0.368074)
(0.0203701 0.273977 -0.421036)
(0.0277359 0.383597 -0.404147)
(-0.0368885 0.304811 -0.355733)
(-0.0248013 0.226291 -0.350494)
(0.00141743 0.417604 -0.552615)
(-0.0160137 0.260613 -0.570721)
(-0.034723 0.339956 -0.514154)
(0.0311203 0.385583 -0.665312)
(0.0638129 0.305216 -0.744606)
(0.0560647 0.251668 -0.676146)
(0.0407249 0.342229 -0.633433)
(-0.00108907 0.94448 -1.30474)
(0.00323854 1.07884 -1.18393)
(0.00909066 1.05844 -1.27008)
(-0.02371 0.876631 -1.15617)
(-0.0058951 0.974019 -1.13671)
(-0.0260131 0.96381 -1.21639)
(-0.0348602 0.863007 -1.22122)
(-0.000279697 -2.75375 0.201836)
(-0.00871676 -2.51717 0.149528)
(-0.0130554 -2.54415 0.130951)
(-0.00853457 -2.63721 0.0281825)
(-0.00565311 -2.70937 0.0463265)
(-0.0119674 -2.59566 0.0588631)
(-0.0215837 -2.59226 0.0254675)
(0.0287266 -1.54865 -0.995928)
(-0.0108108 -1.60538 -0.843928)
(-0.0150216 -1.52301 -1.02299)
(-0.0544667 -1.18891 -0.963151)
(0.0700866 -1.16494 -1.13688)
(0.0212557 -1.29192 -0.847751)
(0.101957 -1.21671 -1.12097)
(-0.00827465 -0.00741349 -0.210166)
(0.00644671 0.00952399 -0.224118)
(0.000257492 -0.0480655 -0.219736)
(-0.00272719 -0.0431013 -0.220077)
(-0.00102367 -0.0454113 -0.206427)
(0.00547813 -0.00602307 -0.217482)
(0.0110561 -0.00919082 -0.193546)
(-0.00305658 0.17245 -0.0743131)
(-0.00169275 0.177056 -0.073147)
(-3.98454e-05 0.16648 -0.0828043)
(0.00151891 0.176466 -0.080863)
(0.00213366 0.169447 -0.0818913)
(-0.000200314 0.178661 -0.0750373)
(-0.0014273 0.174656 -0.0766382)
(0.000444786 0.210892 -0.0336007)
(-0.00169542 0.214076 -0.0306924)
(-0.000599017 0.21745 -0.0282234)
(0.000994887 0.216855 -0.0338624)
(0.00231719 0.221356 -0.0314215)
(0.000710295 0.215858 -0.0309439)
(0.00197535 0.217308 -0.0283907)
(-0.00399914 0.201994 -0.0120572)
(0.00049306 0.197501 -0.0234449)
(-0.00162182 0.198801 -0.0146624)
(0.00191862 0.202648 -0.0197156)
(0.00145119 0.205543 -0.0171159)
(0.00060442 0.201112 -0.0140195)
(-0.000443593 0.20647 -0.0115756)
(0.000348064 0.192706 -0.0138268)
(-0.00206473 0.190701 -0.00993575)
(-0.000193192 0.190022 -0.00232984)
(0.0011504 0.194954 -0.00628793)
(0.00261722 0.194367 -0.00956593)
(0.000106096 0.19367 -0.011462)
(0.000544542 0.194672 -0.0144653)
(0.00253575 0.188011 -0.000366057)
(-0.000742009 0.192113 -0.000636354)
(-0.000145923 0.193812 -0.00777428)
(-0.000746801 0.19232 -0.00299741)
(0.000247438 0.195494 -0.00374162)
(-0.00174824 0.195158 0.000193872)
(-0.00138513 0.195642 -0.000274614)
(3.54184e-05 0.188439 -0.00383523)
(0.000104513 0.189886 0.00188972)
(6.26463e-05 0.18803 -0.00291958)
(-6.60393e-05 0.19252 -0.00141932)
(-0.00193786 0.187546 -0.00116117)
(-0.00140208 0.187637 -0.00431896)
(-0.000376411 0.190522 -0.00427502)
(-0.000572402 0.1801 -0.00876436)
(-0.000444899 0.175519 -0.00665606)
(-0.00186158 0.180725 -0.0103374)
(0.00219294 0.173879 -0.0119741)
(0.000491538 0.174954 -0.0104694)
(-0.000903276 0.178203 -0.0116364)
(-0.000907037 0.179399 -0.0136615)
(-0.000268711 0.166902 -0.00352942)
(-0.000511374 0.174394 -0.0140644)
(-0.00270993 0.171402 -0.00990168)
(0.00233224 0.175168 -0.01274)
(0.00190215 0.172782 -0.00956375)
(0.00089139 0.174781 -0.0160897)
(-0.000360977 0.17353 -0.0135712)
(7.49724e-05 0.145792 -0.0285981)
(0.00192467 0.152365 -0.0272286)
(0.00105554 0.147424 -0.0267842)
(-0.00141957 0.15139 -0.024535)
(-0.00149332 0.156788 -0.0234985)
(0.000966799 0.15467 -0.0225243)
(0.00177107 0.14954 -0.0225503)
(0.000119914 0.107136 -0.0809084)
(0.00222322 0.116743 -0.0861824)
(-0.00204966 0.111391 -0.0842233)
(-0.000567986 0.113225 -0.0748051)
(0.000523568 0.117485 -0.0780087)
(0.00283914 0.112495 -0.0755736)
(-0.00191507 0.110998 -0.0761119)
(0.000875336 0.0689371 -0.09684)
(0.00196883 0.0929549 -0.11576)
(0.00482854 0.0890332 -0.121166)
(-0.00347991 0.0774707 -0.11303)
(-0.00231504 0.0829484 -0.110115)
(-0.0001501 0.0971513 -0.119215)
(0.00200274 0.0920191 -0.127482)
(-0.00171967 -1.91607 0.0030415)
(-0.0019028 -1.93341 0.0101591)
(-0.000861237 -1.94241 0.0257599)
(-0.00111448 -1.87787 -0.00523927)
(-2.24911e-05 -1.88307 -0.0195562)
(0.00305132 -1.90197 -0.00329031)
(0.00428033 -1.9078 0.0226169)
(0.00428162 0.74579 0.125562)
(0.00650363 0.748698 0.143369)
(0.00203501 0.744999 0.125825)
(-0.00584506 0.754946 0.120393)
(-0.00707349 0.760261 0.125996)
(-0.000402207 0.753918 0.153036)
(0.00116301 0.753868 0.134731)
(-0.000398796 0.684793 0.230674)
(0.000654273 0.698972 0.223429)
(-0.00120786 0.693619 0.231107)
(-0.00619052 0.712791 0.217616)
(0.00487216 0.702059 0.20822)
(-0.00175537 0.711719 0.229251)
(0.00358697 0.699372 0.220211)
(0.00950511 0.351589 -0.05575)
(-0.0124245 0.384493 -0.0679436)
(-0.00791001 0.44049 -0.0343122)
(0.000728921 0.389396 -0.0317308)
(0.0216273 0.384889 -0.0199427)
(-0.00785732 0.386904 -0.0541465)
(0.0125894 0.333917 -0.0381201)
(0.0367681 0.0913277 -0.018623)
(-0.00560107 0.0933896 0.0906011)
(0.100393 0.069754 -0.018942)
(-0.0976768 0.369557 0.00964035)
(-0.0530545 0.276307 0.080271)
(-0.0869329 0.349419 -0.00118154)
(0.00662775 0.246657 -0.0126694)
(0.0275645 0.173662 -0.0316906)
(-0.0638231 0.282712 -0.0110816)
(-0.0448615 0.169626 -0.00388318)
(-0.044598 0.244581 0.0449871)
(-0.0285065 0.263158 0.0188966)
(0.0072426 0.339562 -0.145716)
(-0.00290051 0.335593 -0.141261)
(-0.0248725 0.26607 -0.0937686)
(0.0332395 0.215159 -0.160285)
(0.00923712 0.22388 -0.151827)
(0.0328769 0.165932 -0.169469)
(0.0336931 0.140244 -0.180007)
(0.0422402 0.0338699 0.0855551)
(0.0204696 0.0911497 -0.0698043)
(-0.0718589 0.214254 -0.000877293)
(-0.0102822 0.28078 -0.0465009)
(0.0141016 0.0567491 -0.0641441)
(-0.00975676 0.0622416 -0.0622875)
(-0.0151553 0.0914121 -0.0922811)
(0.0091078 0.318587 -0.0186705)
(-0.0220725 0.172634 -0.216141)
(-0.0324578 0.203008 -0.105988)
(-0.0844306 0.037437 -0.19448)
(-0.0894448 0.0615001 -0.147577)
(0.00762731 0.295994 -0.875523)
(-0.0547143 0.14815 -0.778491)
(-0.0239697 0.20012 -0.805641)
(0.0406039 0.286137 -0.971266)
(0.0306125 0.244097 -0.970486)
(-0.0227998 0.184477 -0.881119)
(0.0132931 0.233284 -0.914795)
(-0.00147543 1.20103 -0.774241)
(0.0106246 1.11649 -0.993798)
(-0.0171105 1.0861 -0.891991)
(-0.0116777 1.2936 -0.914243)
(0.0057647 1.30714 -0.992829)
(0.0303817 1.22375 -0.977903)
(-0.00121667 1.17432 -0.923827)
(0.00455847 0.8272 -0.47463)
(-0.0752407 0.4873 -0.76847)
(-0.0423878 0.884683 -0.694538)
(0.081901 0.277393 -0.53875)
(0.0173392 -0.364231 -0.647679)
(-0.0781313 0.0324167 -0.811863)
(-0.0182287 0.466963 -0.774746)
(0.00273875 -0.429591 -1.1868)
(-0.0439039 -0.335948 -1.25204)
(-0.111622 -0.247363 -1.225)
(0.0126091 -0.0499554 -1.16375)
(0.0829366 -0.210953 -1.21297)
(0.0372153 -0.181026 -1.24548)
(-0.061378 -0.142222 -1.22121)
(-0.0010975 0.126987 -0.278137)
(-0.0119931 0.136517 -0.274329)
(0.00219413 0.0985926 -0.268054)
(0.00505101 0.153032 -0.275371)
(0.00358739 0.14435 -0.297917)
(-0.00119078 0.156564 -0.27721)
(0.00483375 0.154865 -0.293911)
(-0.000297008 0.146107 -0.121048)
(-0.00314506 0.158326 -0.114501)
(0.00173925 0.169232 -0.110759)
(0.000821627 0.160849 -0.121876)
(-0.00120704 0.149738 -0.124557)
(-0.00233639 0.151331 -0.114993)
(0.000206618 0.16029 -0.111343)
(-0.00353323 0.227173 -0.0361054)
(-0.00134717 0.229824 -0.0349824)
(0.000223939 0.221085 -0.0452604)
(0.00221519 0.232273 -0.0429176)
(0.00208054 0.227009 -0.0435776)
(0.00172728 0.23248 -0.0371841)
(-0.000462062 0.230133 -0.0378949)
(-0.0232259 0.167623 0.00502167)
(-0.00387744 0.224044 -0.0191372)
(-0.0240886 0.0683322 0.00421573)
(-0.0208232 0.186339 0.00317526)
(-0.0296184 0.189694 0.014727)
(-0.0278269 0.221705 0.0195048)
(-0.0149336 0.235427 -0.00458289)
(0.00303456 0.1925 -0.0183241)
(-0.000554439 0.189187 -0.00438359)
(0.00316308 0.191992 -0.0143501)
(-0.00234174 0.199958 -0.0156948)
(-0.00379942 0.197138 -0.0109093)
(-0.0015766 0.197486 -0.0195452)
(-0.00101689 0.19734 -0.0167806)
(0.00042005 0.131116 -0.0049343)
(0.0017705 0.132758 -0.00916458)
(-0.000459973 0.131055 -0.00394366)
(-0.00115139 0.127278 -0.0121884)
(-0.000820192 0.123881 -0.00903066)
(0.000900324 0.129126 -0.011781)
(0.000720899 0.127422 -0.00793774)
(0.00281351 0.116031 -0.0119308)
(0.00281141 0.116904 -0.0156887)
(-0.000557292 0.118569 -0.0108959)
(-0.00414831 0.113718 -0.0195459)
(-0.000905158 0.112184 -0.0146492)
(-0.000705753 0.113003 -0.0187755)
(0.00166372 0.112451 -0.0137065)
(0.000293572 0.206998 0.041574)
(0.0116591 0.284658 0.0517535)
(-0.0039033 0.273219 0.0354772)
(-0.0178372 0.265223 0.0345029)
(0.0107928 0.296881 0.0508306)
(0.0193546 0.320793 0.0385456)
(-0.0180842 0.306381 0.0267377)
(0.00138724 0.710947 0.261135)
(-0.000695687 0.731374 0.250549)
(-0.00346783 0.694485 0.239162)
(0.00484755 0.732434 0.240493)
(-0.00269346 0.731677 0.228082)
(0.00394532 0.719058 0.249821)
(-0.00751633 0.709985 0.228481)
(0.00570149 0.56103 0.303081)
(0.000545216 0.534589 0.273103)
(0.000685413 0.586756 0.358658)
(0.00130801 0.519057 0.364028)
(0.00246495 0.5632 0.372427)
(-0.00626615 0.525215 0.301119)
(-0.00158217 0.554202 0.32347)
(0.00799981 0.453365 0.424783)
(-0.0105114 0.466594 0.421922)
(-0.00453991 0.535574 0.444941)
(0.00410657 0.402452 0.354169)
(-0.00975176 0.444266 0.346154)
(-0.00993451 0.395865 0.342459)
(0.00943628 0.340239 0.354769)
(-0.0186585 0.375267 -0.0638315)
(0.00425798 0.457873 -0.00331022)
(-0.0349303 0.393773 -0.0579121)
(0.0165093 0.477068 -0.0412482)
(0.0193018 0.484939 -0.0224821)
(-0.0181209 0.436768 -0.0589041)
(0.00864119 0.417014 -0.0642457)
(-0.00547922 0.296936 -0.0610541)
(0.0179802 0.324056 -0.0946255)
(-0.000270603 0.325734 -0.0244996)
(-0.0138026 0.262257 -0.0856467)
(0.0152693 0.293998 -0.1184)
(0.0117344 0.300467 -0.141587)
(-0.0190009 0.258516 -0.101526)
(0.0236582 -0.0300881 0.123042)
(0.033079 -0.0560082 -0.129223)
(0.00403226 -0.0360008 -0.116994)
(-0.0423405 -0.00616751 -0.0552545)
(-0.0700332 -0.000423584 -0.0925435)
(0.0207665 0.054866 -0.00289334)
(0.00781685 0.0344526 0.00112159)
(0.00895249 0.0419188 -0.216493)
(0.00854856 -0.0912052 -0.0354696)
(0.0910447 -0.0291667 -0.0537282)
(0.0208571 -0.0365881 -0.32589)
(-0.0198634 -0.0380916 -0.257517)
(-0.011706 -0.0248045 -0.0103138)
(0.113287 -0.0751052 -0.0969072)
(-0.00519596 0.227236 -0.545476)
(-0.0350081 -0.00415422 -0.408495)
(0.0462116 0.0598672 -0.466283)
(0.0498427 0.143786 -0.731468)
(0.0151802 0.0996018 -0.750284)
(0.0279545 -0.027433 -0.624738)
(0.113173 0.0140766 -0.619028)
(-0.00382534 -2.24462 -0.165457)
(0.0240984 -2.33984 -0.088852)
(0.00124492 -2.11004 -0.206376)
(0.0197579 -2.2821 -0.0615136)
(-0.00912793 -2.22973 -0.132985)
(0.0217344 -2.31794 -0.00809996)
(-0.0050433 -2.29076 -0.0963447)
(0.00235866 -2.46971 -0.0283533)
(-0.000866502 -2.47335 -0.0305618)
(-0.000965368 -2.46199 -0.022625)
(-0.000369035 -2.47696 -0.0252336)
(-0.00316572 -2.48065 -0.0211405)
(-0.0007982 -2.46912 -0.0262418)
(-0.00396927 -2.46885 -0.0219716)
(-0.0183482 -1.42811 -0.318576)
(0.0177371 -1.43037 -0.339198)
(0.00775893 -1.3204 -0.235705)
(0.0808884 -1.08278 -0.307221)
(0.0623376 -1.14011 -0.290366)
(0.103649 -1.29781 -0.347217)
(0.08696 -1.31786 -0.369021)
(0.00358225 0.307859 -0.280646)
(0.00642912 0.294902 -0.29352)
(0.000133389 0.264948 -0.303274)
(-0.00552428 0.287315 -0.256055)
(-0.00586113 0.272714 -0.270695)
(-0.0033906 0.285776 -0.269674)
(-0.00298274 0.292532 -0.258418)
(-0.00548347 0.212779 -0.122039)
(-0.00546887 0.224263 -0.114847)
(0.000243287 0.203528 -0.140717)
(0.00564626 0.230292 -0.123872)
(0.00528137 0.221468 -0.129935)
(0.000464895 0.226163 -0.112475)
(0.00240052 0.220985 -0.117455)
(-0.0187459 0.107617 -8.1931e-05)
(-0.00897251 0.228602 -0.0100136)
(-0.0197965 0.228707 0.0119888)
(-0.0162524 0.224611 -0.00257915)
(0.00292296 0.23869 -0.0128824)
(-0.00616014 0.27085 -0.0170457)
(-0.0201129 0.260512 0.00351706)
(0.00176938 0.287107 0.00277458)
(-0.00597382 0.257635 -0.0129468)
(-0.00202705 0.271926 -0.00838198)
(0.000176195 0.243259 -0.00248726)
(-0.000800791 0.259552 -0.00656543)
(-0.0309468 0.0674876 0.0072645)
(-0.0246332 0.167039 0.00986897)
(0.00391592 0.246383 -0.0199946)
(-0.010379 0.203734 -0.00932922)
(-0.016391 0.190386 0.0180884)
(-0.0154402 0.222452 0.0128375)
(-0.00304837 0.252144 -0.0210282)
(-0.000375358 0.247693 -0.0269119)
(-0.0246874 0.197945 0.00820454)
(-0.00581537 0.242458 -0.021112)
(-0.00408774 0.244406 -0.0119793)
(-0.0156861 0.226626 0.00497579)
(0.0139741 0.217853 0.00871964)
(0.0313007 0.240276 -0.00470508)
(-0.00312405 0.223665 -0.012851)
(0.0088482 0.222946 0.00620839)
(-0.00405706 0.191519 0.0165747)
(-0.000754835 0.10643 -0.00107452)
(-0.00503425 0.0995542 -0.0132406)
(-0.00247176 0.0962542 -0.00627751)
(0.00250697 0.106446 -0.00458982)
(0.00471819 0.109803 -0.00950006)
(-0.00100313 0.102683 -0.0130225)
(-0.000302066 0.0999836 -0.00589152)
(-0.00364256 -0.120905 -0.0948794)
(0.0210512 -0.0172511 -0.075111)
(0.0332326 -0.0369773 -0.046966)
(-0.0325503 -0.0690337 -0.0378509)
(0.00459379 -0.0916336 -0.0513025)
(0.00973578 -0.023877 -0.0760822)
(0.0272592 -0.0125931 -0.0608357)
(-0.000183479 0.149545 0.102594)
(0.0094541 0.189285 0.0593849)
(-0.00956672 0.166698 0.0587698)
(-0.00208716 0.126304 0.104924)
(0.00955274 0.13813 0.104493)
(0.0113603 0.173482 0.0736816)
(-0.00251162 0.1521 0.0588294)
(0.000170807 0.153831 0.0422176)
(0.000612325 0.135041 0.0567018)
(-0.00665061 0.147223 0.0547118)
(0.00524314 0.142974 0.0405143)
(0.00286929 0.133161 0.0553428)
(-0.00286912 0.145558 0.0566619)
(0.00620603 0.150263 0.0428354)
(-0.00138206 0.325458 -0.0360956)
(0.000589717 0.319707 -0.0571027)
(0.00361555 0.320361 -0.0482712)
(0.00176785 0.332476 -0.0447477)
(-0.000554284 0.340966 -0.0321881)
(0.00621673 0.331758 -0.0408876)
(0.00209868 0.338195 -0.0299163)
(1.06019e-05 0.38533 -0.0120698)
(0.000254109 0.369197 -0.0139844)
(0.000380005 0.390863 -0.00176988)
(0.00446631 0.3698 -0.00209825)
(0.0032212 0.36732 -0.00910215)
(0.00353045 0.384797 0.00150795)
(0.00228771 0.379207 -0.00951644)
(0.000718386 0.43297 -0.338566)
(-0.0111946 0.423131 -0.297774)
(-0.00775838 0.461274 -0.265657)
(0.0192898 0.518633 -0.324232)
(0.00979208 0.488974 -0.351417)
(0.014559 0.475521 -0.327601)
(0.0181918 0.504538 -0.284775)
(-0.0136107 0.657876 -0.29533)
(0.00356517 0.66238 -0.239304)
(-0.00210364 0.610181 -0.36739)
(0.0168528 0.596207 -0.361584)
(-0.000100251 0.604046 -0.390068)
(0.0044187 0.635964 -0.308422)
(-0.00806148 0.63717 -0.338782)
(-0.000121165 0.306592 0.0108824)
(-0.0119038 0.328524 0.0167265)
(0.00624563 0.332011 0.0116632)
(0.0110456 0.3195 0.00984399)
(0.00164063 0.316925 0.0185554)
(-0.00369148 0.339054 0.027351)
(0.0144775 0.360004 0.0167943)
(0.0134296 0.189775 0.00385206)
(0.00600935 0.293464 0.0153634)
(0.00957927 0.345736 0.00514317)
(0.0144446 0.361338 -0.00534518)
(0.00103081 0.361282 0.0178913)
(0.0200386 0.169839 -0.0563268)
(0.0031453 0.189835 -0.0728819)
(0.000769964 0.234933 -0.0939644)
(0.00308818 0.228723 -0.0573192)
(-0.00175131 0.230682 -0.0721346)
(0.015834 0.202314 -0.0613503)
(0.0327824 0.198715 -0.0558098)
(-0.0254143 -0.344394 -0.195965)
(0.0252995 -0.323898 -0.0877373)
(0.0160121 -0.374466 0.0988558)
(0.0100217 -0.369909 0.00972647)
(-0.0418488 -0.341823 -0.0723982)
(-0.0159094 -0.386412 -0.139289)
(-0.0656253 -0.357226 -0.198421)
(-0.0489426 -0.170741 -0.135224)
(0.057417 -0.0929813 0.0795053)
(0.0339235 0.0937802 -0.262187)
(0.000708065 0.218983 -0.185019)
(-0.0234417 0.121475 -0.154194)
(-0.0301769 0.152622 -0.140469)
(0.0359789 0.061707 -0.158308)
(-0.0348507 0.0126654 -0.0546935)
(-0.0693439 0.105659 -0.0430914)
(0.0794511 0.15326 -0.0476054)
(0.0951182 -0.0243136 -0.0105993)
(-0.0425073 -0.0497962 -0.00393219)
(0.186242 -0.0773457 0.072203)
(-0.0298957 -0.0340119 0.0889303)
(-0.0142957 0.582508 -2.13998)
(-0.0233192 0.687176 -2.22857)
(0.0103488 0.474785 -2.18632)
(0.0483037 0.529061 -2.36476)
(-0.0450183 0.383208 -2.2264)
(0.0230679 0.672191 -2.37261)
(-0.0280078 0.476188 -2.25072)
(-0.271083 -0.368482 -2.04237)
(-0.0179958 -0.355476 -1.87749)
(0.0602407 -0.564167 -1.55767)
(0.0286008 -1.3907 -0.98648)
(0.0608009 -1.57643 -0.970698)
(0.131077 -1.22313 -1.30464)
(-0.0736674 -1.04161 -1.32001)
(0.00298391 -2.4924 0.0563124)
(-0.0155368 -2.60002 -0.0500497)
(-0.0238649 -2.60689 -0.0598007)
(0.0143393 -2.60957 -0.0691421)
(0.0306475 -2.61323 -0.0405487)
(0.00732983 -2.62619 -0.0654319)
(-0.00756738 -2.61978 -0.0744675)
(-0.00995932 1.10208 -0.172323)
(0.12255 1.06719 -0.0596381)
(-0.0192522 1.39651 -0.515953)
(0.0258409 1.34852 -0.375375)
(-0.106146 1.26642 -0.39242)
(0.17644 1.26215 -0.108725)
(-0.0346276 1.18868 -0.257654)
(-0.00171661 0.664127 -0.574981)
(0.02775 0.646691 -0.533678)
(-0.0172416 0.600287 -0.543949)
(-0.0288178 0.659659 -0.445568)
(0.0401406 0.697499 -0.44671)
(0.0335636 0.677419 -0.460183)
(-0.0228314 0.600398 -0.45672)
(-0.00886876 0.131958 0.00119593)
(-0.00590858 0.277064 -0.00656731)
(-0.0181338 0.263202 0.0175473)
(-0.0113868 0.251527 -0.0114774)
(0.00214241 0.267322 -0.0295834)
(-0.00577747 0.316286 -0.0308522)
(-0.0188091 0.294824 -0.000317739)
(0.00140858 0.3075 0.000563946)
(-0.00670733 0.287574 -0.023534)
(-0.00278648 0.295554 -0.0141919)
(-0.00172418 0.293907 0.00051903)
(-0.0046282 0.299785 -0.0185588)
(-0.000201223 0.221461 -0.0450512)
(0.00138515 0.230335 -0.0349385)
(0.00339213 0.227639 -0.0359905)
(-0.00205098 0.227181 -0.0434532)
(-0.00205964 0.232438 -0.042771)
(-0.00151507 0.232774 -0.0370029)
(0.00057592 0.230373 -0.0377217)
(-0.000298574 0.186119 -0.0552798)
(-0.00115888 0.198676 -0.0636243)
(-0.00221212 0.199617 -0.0607741)
(-0.000223793 0.190207 -0.0609377)
(0.00118559 0.190489 -0.0648134)
(-0.0019325 0.196 -0.0670052)
(-0.00358816 0.19694 -0.063154)
(-0.000316209 0.154962 -0.049463)
(-0.00210338 0.169646 -0.0605083)
(-0.00260526 0.169225 -0.0560611)
(0.00150112 0.161879 -0.0560145)
(0.00172216 0.163329 -0.0610619)
(-0.00164091 0.169486 -0.0640613)
(-0.00214981 0.16861 -0.058929)
(0.000467411 0.128437 0.0090658)
(-0.00298989 0.128966 0.00239418)
(0.00314068 0.128992 0.0078793)
(-0.00054183 0.126107 0.000370026)
(-0.00347515 0.126357 0.00963633)
(-0.00425367 0.128137 0.0065983)
(-0.0019521 0.123562 0.021567)
(-0.0055174 0.116991 0.0263929)
(-0.000486392 0.128635 0.019799)
(-0.0147682 0.135473 0.0240507)
(-0.0118106 0.143266 0.0171059)
(-0.00372421 0.134027 0.0108462)
(0.00374419 0.125708 0.0136857)
(0.00421201 0.133594 0.0189273)
(-0.00720369 0.120999 0.0276736)
(-0.0113605 0.131986 0.0266789)
(0.000779139 -1.66543 -0.037575)
(-0.00023773 -1.65288 -0.0214764)
(-0.00167438 -1.66938 -0.0540662)
(-0.00312452 -1.63395 -0.0348547)
(-0.000359316 -1.65959 -0.0478541)
(-0.00562624 -1.63752 -0.0294051)
(-0.000528523 -1.65928 -0.0408175)
(-0.0195666 -0.0485588 0.175068)
(0.0166707 0.00934822 0.113382)
(-0.007621 -0.0543641 0.108998)
(-0.0399023 0.0715256 0.0676671)
(0.0297107 -0.0248835 0.0642556)
(-0.00201205 0.0163036 0.0637257)
(0.00641547 -0.0812606 0.0808227)
(0.000129106 0.0802986 0.00513195)
(-0.00527742 0.0778745 0.019859)
(0.0011907 0.0820446 0.0174736)
(0.000472391 0.076475 0.00466727)
(0.00144511 0.07282 0.00457397)
(-0.00250418 0.0681481 0.0102131)
(-0.000863762 0.0737691 0.00551471)
(0.000341734 0.196935 -0.0558897)
(0.00126735 0.180916 -0.0602052)
(0.00514014 0.201602 -0.0397319)
(-0.00239467 0.179315 -0.0453275)
(0.000424573 0.177272 -0.0606094)
(0.00500093 0.19609 -0.0395712)
(0.00202535 0.189296 -0.0583464)
(-0.00216759 0.320486 -0.0959229)
(0.00123164 0.332075 -0.0855409)
(-0.000355727 0.326476 -0.119492)
(0.00132008 0.321117 -0.116695)
(-0.00147904 0.319303 -0.119896)
(0.000567406 0.325232 -0.095385)
(-0.00320099 0.318276 -0.0990093)
(0.00041565 0.431883 -0.101012)
(0.00170079 0.42286 -0.0966565)
(-0.00132174 0.418946 -0.0894524)
(0.000341907 0.434658 -0.0814816)
(0.00196885 0.438678 -0.0884761)
(0.00323011 0.427416 -0.0880929)
(0.00018899 0.42638 -0.0817287)
(0.00348287 0.384268 -0.297025)
(0.0118699 0.410079 -0.27492)
(-0.000681105 0.414935 -0.205943)