/*--------------------------------*- C++ -*----------------------------------*\
| =========                 |                                                 |
| \\      /  F ield         | OpenFOAM: The Open Source CFD Toolbox           |
|  \\    /   O peration     | Version:  v2012                                 |
|   \\  /    A nd           | Website:  www.openfoam.com                      |
|    \\/     M anipulation  |                                                 |
\*---------------------------------------------------------------------------*/
FoamFile
{
    version     2.0;
    format      ascii;
    class       surfaceScalarField;
    location    "0.6";
    object      alphaPhi0.water;
}
// * * * * * * * * * * * * * * * * * * * * * * * * * * * * * * * * * * * * * //

dimensions      [0 3 -1 0 0 0 0];
oriented        oriented;


internalField   nonuniform List<scalar> 
13152
(
9.83639e-07
2.02825e-05
-1.63064e-06
-1.96355e-05
1.87032e-05
-1.71051e-05
-6.14533e-07
-3.46874e-06
4.24545e-05
-3.46569e-05
3.53979e-05
-2.3717e-06
2.12123e-05
-7.55047e-05
2.85222e-05
-2.44149e-05
6.04514e-05
-1.61118e-05
-2.95728e-05
-2.84447e-05
7.41294e-05
3.84785e-07
-1.67873e-05
2.90696e-07
-2.99221e-05
7.3403e-07
7.84996e-06
5.15734e-06
-2.97946e-05
7.82091e-06
3.19743e-07
-5.08424e-06
-1.55396e-05
-2.9849e-05
-8.65782e-06
-1.46464e-05
-5.1461e-06
2.84503e-05
-8.2738e-08
-8.66088e-06
8.5798e-08
-1.41602e-05
-5.68926e-07
5.66716e-06
-3.05818e-05
1.62538e-05
-2.93612e-05
2.98823e-05
2.93874e-05
-5.42737e-07
2.98515e-08
-1.52497e-05
-2.99083e-05
8.91156e-08
-7.49525e-05
3.24019e-07
1.60156e-05
3.02989e-05
-9.26455e-08
7.47648e-05
3.57752e-05
1.26462e-05
2.54232e-05
-7.38446e-05
3.6483e-07
-7.21055e-07
3.61314e-05
1.23965e-05
2.87238e-07
-1.87358e-05
7.35868e-05
7.78469e-05
2.9056e-05
-7.45433e-07
-2.93467e-05
1.03605e-06
-1.63737e-05
-2.68283e-05
7.2258e-05
1.76637e-07
-1.72958e-05
-8.07874e-06
7.99819e-06
2.57184e-07
5.29933e-06
-3.06738e-05
-4.9519e-06
-1.38782e-05
-2.89992e-05
-1.37768e-05
1.55751e-07
2.91362e-05
2.92693e-07
4.17872e-05
5.03972e-07
-6.08783e-06
-3.58192e-05
-2.32473e-05
7.13943e-06
5.53552e-05
-4.03554e-06
-1.57681e-05
-3.31641e-05
-1.02993e-05
5.05954e-05
2.66523e-06
-4.25016e-05
5.03233e-06
5.58947e-07
-9.62886e-06
1.9178e-06
-1.26556e-05
-9.16218e-06
7.76831e-07
-5.9403e-06
-6.59362e-12
3.16197e-11
-9.59701e-12
-1.56573e-11
7.18929e-11
-1.54627e-11
-6.33281e-11
-1.15051e-11
-6.54799e-11
1.29222e-11
4.85515e-11
-5.95207e-11
1.15368e-11
-8.51477e-12
-1.10673e-10
1.108e-10
-1.25338e-10
-4.31803e-15
-3.22369e-14
-5.29927e-15
4.18574e-14
-1.90951e-14
-1.07808e-14
2.55333e-14
-1.33711e-14
-9.2482e-15
4.43157e-15
3.57627e-14
-5.36395e-14
5.97423e-14
-6.46157e-14
-7.36431e-15
6.17802e-14
1.75901e-14
-4.94673e-14
1.47214e-14
5.69785e-14
-3.33553e-14
3.42903e-14
8.36209e-14
-2.81874e-13
2.60469e-14
3.32981e-14
4.79444e-14
4.47135e-14
-1.87334e-14
2.8485e-14
6.95765e-14
1.90703e-14
5.19591e-14
7.38383e-14
-1.79967e-08
-1.04157e-08
-5.93352e-09
3.87786e-08
5.89342e-09
-3.34773e-08
2.43934e-08
2.86839e-09
-7.39073e-09
2.90424e-08
-5.03622e-09
-5.74921e-08
-9.22133e-09
3.23301e-08
-1.06897e-08
4.33704e-09
-2.31167e-08
-5.65739e-09
2.46088e-09
1.9291e-09
1.26673e-09
1.67109e-08
6.28232e-09
-2.86509e-08
1.36996e-08
5.47165e-09
1.22819e-09
1.37457e-09
9.72107e-09
-3.03881e-09
1.15757e-08
1.07291e-08
-7.48758e-09
2.58029e-08
-4.52311e-06
-2.29684e-06
1.6753e-06
5.2329e-06
1.83269e-06
-2.03517e-06
-4.1704e-06
-6.75356e-06
6.52226e-06
1.98121e-05
-1.63468e-06
-2.43746e-05
2.99655e-06
2.32678e-05
7.32789e-06
-1.04549e-05
1.42288e-05
-8.01112e-06
-6.8147e-06
-1.41039e-06
1.49934e-05
-1.37453e-06
3.8857e-06
-2.29979e-06
-5.19136e-06
-2.23874e-06
-6.67112e-06
1.6786e-06
1.49906e-05
1.87779e-07
-8.66942e-06
4.80825e-06
-9.24062e-06
4.3575e-06
7.59564e-06
1.19471e-06
-8.84691e-06
1.37454e-07
-1.37455e-05
-3.62799e-06
2.50555e-05
3.47643e-06
-1.57252e-05
-6.45061e-06
-2.38175e-05
2.65679e-05
-3.05891e-05
1.35512e-05
-3.16126e-05
1.10903e-05
-7.83024e-05
6.74887e-06
6.546e-06
1.58951e-05
-2.92051e-05
-4.48799e-07
3.84049e-06
3.33707e-06
3.32655e-06
2.75053e-06
4.74551e-06
1.498e-05
-8.62606e-06
1.66881e-05
-2.77171e-06
-2.43008e-42
1.65859e-18
-7.87303e-16
7.32553e-17
1.34984e-44
0
-2.44358e-42
7.73185e-21
7.8277e-19
-8.00146e-43
-3.79056e-42
-2.97703e-42
-1.20292e-34
-2.55071e-42
-1.95281e-16
1.95288e-16
-3.95461e-15
1.07169e-05
2.82457e-07
-1.11988e-05
-1.23918e-08
-2.33641e-05
-2.76422e-05
6.14457e-05
1.5483e-08
-2.33249e-05
-2.73548e-05
2.6537e-05
7.18372e-07
1.8503e-05
-6.93842e-05
-4.53241e-06
3.42742e-06
2.77023e-06
-9.24481e-80
-2.28743e-142
2.98408e-80
5.9372e-80
-1.44975e-142
3.57622e-79
5.18765e-79
1.68447e-142
2.49748e-142
-9.86981e-55
-1.81648e-55
6.29592e-55
2.90417e-45
6.76018e-44
-3.68702e-44
-4.9947e-45
-5.60965e-44
6.46051e-08
-8.30576e-08
8.12701e-09
3.58241e-07
-3.6915e-07
2.33485e-07
2.41136e-07
1.42064e-08
-4.71826e-07
8.40001e-08
-1.00968e-07
2.47048e-08
-4.89547e-08
5.10362e-07
-2.41237e-08
2.06943e-07
-1.14504e-07
7.15986e-08
1.34685e-07
9.40818e-09
-2.45317e-07
8.17949e-09
-1.40693e-08
5.29072e-08
3.28954e-08
1.36745e-07
2.20271e-08
-5.49943e-08
-2.23583e-07
-5.13999e-09
9.5827e-08
-1.25129e-07
1.52665e-07
-3.20384e-07
-2.47107e-09
2.39042e-08
2.27781e-07
-7.58403e-07
-1.19622e-07
6.13494e-08
-9.10316e-09
7.81844e-08
-3.78941e-07
-2.72147e-08
-2.55316e-07
2.21795e-07
-1.1708e-07
4.83091e-08
-1.77533e-07
8.20041e-08
-5.9859e-07
-7.58976e-07
-2.48094e-07
6.17521e-08
1.10194e-06
1.8707e-07
-8.90865e-09
-1.48746e-07
-6.669e-09
2.21311e-07
-4.08553e-08
1.23769e-08
8.42298e-08
1.82022e-09
-5.10243e-08
5.4628e-09
-1.24528e-08
-2.17514e-09
2.95422e-09
2.33636e-07
3.29046e-09
-1.3647e-08
1.64557e-08
1.60822e-08
-3.02802e-12
-3.17335e-09
4.96492e-08
-1.00701e-11
3.68297e-08
6.43432e-10
-2.93407e-12
-1.95509e-11
4.67983e-08
-1.64682e-08
-4.9567e-10
9.8123e-08
-1.98178e-09
3.8902e-08
-1.84631e-08
-1.91404e-10
-2.36842e-10
4.35372e-11
2.62729e-10
1.46022e-11
-3.65896e-10
-7.73307e-11
4.48567e-09
-5.92432e-09
-6.44702e-10
2.12428e-10
-3.2064e-10
-6.1713e-11
-2.10451e-09
-4.42432e-08
4.1606e-09
2.61422e-08
-3.1206e-09
-4.73046e-08
2.1402e-08
-2.78047e-08
2.09522e-08
-3.15109e-12
-2.03e-12
2.13996e-12
2.7555e-12
1.23018e-12
-4.76836e-12
-2.26371e-12
-3.31222e-12
1.77355e-12
-3.13451e-12
-5.75703e-13
5.75304e-12
-2.44459e-13
-8.09942e-12
2.22484e-11
-2.903e-11
-2.05211e-11
1.27765e-12
2.20702e-11
-1.71354e-11
1.75518e-11
-5.93623e-11
5.20035e-14
1.24149e-13
2.00073e-12
-2.20259e-12
-8.42299e-14
2.16581e-13
3.41126e-13
1.62901e-13
-1.51339e-13
-2.03884e-13
-4.18052e-13
7.58005e-13
-2.39431e-12
-1.14422e-12
4.09163e-13
-3.26534e-12
3.06616e-11
-1.67968e-13
-1.00377e-10
6.27835e-11
-3.48008e-11
1.87097e-11
3.88718e-11
-7.90795e-13
-3.85577e-11
3.80538e-10
-8.94077e-11
-5.71534e-10
1.64758e-12
4.33439e-10
-2.9948e-11
4.5299e-11
-1.23155e-10
-4.27147e-12
-2.3275e-11
1.95631e-11
7.42736e-12
1.10476e-11
2.53477e-12
-1.75282e-11
1.7703e-10
-2.19548e-10
-5.75135e-12
-1.38547e-11
-2.12637e-12
1.82465e-12
3.37756e-12
-3.11093e-12
1.664e-10
1.46547e-13
6.37169e-12
-6.51824e-12
1.94537e-35
4.21955e-14
2.29683e-12
-2.19247e-12
6.73817e-12
5.55863e-12
-1.23121e-11
-3.21667e-10
3.66793e-10
-7.4363e-12
6.80963e-13
-1.42378e-11
2.83255e-13
-2.22075e-10
-2.4056e-11
-1.89547e-11
9.85817e-12
1.41437e-11
-7.01875e-12
9.15771e-11
-1.4817e-10
2.82638e-11
-7.52422e-11
1.08818e-12
-4.57417e-12
5.28661e-12
-2.51486e-11
7.72427e-12
7.08951e-12
-3.52827e-11
1.40423e-11
-3.47048e-12
-2.24753e-12
1.52415e-13
4.39041e-12
5.26725e-13
-1.24663e-12
9.82646e-13
-1.14913e-13
2.98058e-12
4.93185e-14
-4.93659e-12
-2.07146e-12
5.26647e-12
-5.23844e-13
1.7671e-12
-6.05864e-13
1.6688e-13
3.02897e-13
-4.27368e-13
-2.03398e-13
1.55191e-13
-7.98185e-13
1.30642e-12
-2.26013e-12
3.31798e-12
-1.25874e-14
1.0846e-12
-8.23859e-13
4.21002e-13
-1.41754e-12
1.61433e-12
-1.86032e-12
-2.91237e-12
-1.15638e-12
-1.30311e-12
5.54357e-12
4.24095e-13
-1.37874e-12
1.20916e-13
-2.51149e-12
2.39924e-12
1.73661e-12
7.00018e-13
-3.44178e-12
4.24922e-12
-7.20949e-13
2.50233e-12
-3.92413e-12
5.78684e-12
-4.69407e-10
4.5912e-10
8.96304e-12
-2.01162e-11
1.51633e-08
-7.41245e-12
-2.9364e-11
1.5659e-08
-3.44687e-11
1.11902e-10
-1.65575e-12
1.39423e-11
-8.24883e-11
-9.28528e-12
4.28937e-11
9.73798e-11
4.81601e-12
-5.06885e-13
1.17365e-12
-3.84866e-12
2.29944e-11
-6.44516e-08
2.25625e-07
-3.41197e-07
1.00217e-07
-1.91255e-08
-6.66817e-07
8.37404e-09
1.47309e-07
6.40534e-07
2.90105e-07
4.87359e-07
6.06279e-07
2.41494e-07
-5.24232e-07
4.56095e-07
1.28927e-06
-2.53139e-07
-2.12419e-06
1.27858e-07
-1.52768e-06
3.06666e-07
6.42525e-06
9.79677e-06
-1.15181e-05
2.52662e-06
-6.89986e-07
-6.39146e-06
9.5507e-07
1.15455e-06
-2.56355e-07
1.40241e-06
9.29152e-06
-2.11908e-06
4.37625e-06
3.42872e-07
-2.78799e-06
3.64249e-06
1.53582e-06
-7.38217e-06
4.84201e-06
4.19955e-06
-4.559e-07
2.02531e-06
-1.22852e-06
5.32084e-06
-4.29725e-06
3.00317e-06
-1.24114e-05
1.44146e-05
-7.00638e-06
1.47628e-05
-5.35533e-07
-6.43473e-06
-5.52078e-06
-1.55283e-06
5.17473e-06
4.8315e-07
-2.19485e-06
4.76202e-06
1.50089e-06
-7.64097e-06
5.49907e-06
5.04105e-06
2.02777e-06
1.1827e-06
-2.43654e-06
6.55376e-06
-1.72161e-06
7.16963e-06
3.10723e-07
1.9601e-05
-2.10579e-05
-3.11873e-06
-2.69981e-06
2.8995e-05
4.12055e-06
-1.05732e-05
-1.35605e-05
-1.50073e-06
2.39162e-06
3.17034e-06
3.02136e-07
-5.02821e-06
2.24397e-06
3.26657e-06
2.00582e-05
-4.69335e-06
-2.51897e-05
-3.7665e-06
1.94829e-05
6.50503e-07
-5.08327e-06
-1.62824e-06
1.92687e-06
-3.71922e-06
-5.06539e-06
-3.06339e-06
-1.00882e-05
4.0049e-07
6.47394e-06
-1.06214e-05
4.59039e-07
2.32948e-06
-2.59504e-06
1.06094e-06
-4.80401e-06
1.35467e-05
1.08421e-06
2.75075e-06
-6.42864e-06
1.18469e-06
8.0907e-07
-8.09429e-07
-2.80854e-06
-8.67869e-06
9.24798e-06
1.06889e-05
9.99541e-06
-2.9197e-05
2.96877e-06
9.3952e-06
-3.7841e-06
5.96086e-06
1.23774e-05
-1.10738e-05
7.43591e-06
1.3588e-05
1.03134e-05
-1.5602e-05
1.34018e-05
6.96075e-06
4.43362e-05
8.67333e-06
4.95315e-07
-7.17624e-06
-3.31416e-07
-5.04774e-07
-5.96564e-07
9.79687e-06
-4.01991e-09
-8.90402e-10
5.44599e-07
-2.23669e-07
-7.31567e-06
-8.63618e-09
-6.7528e-09
4.41194e-09
6.46005e-09
-1.39868e-08
6.49396e-09
-2.52483e-14
-3.14733e-09
1.18673e-09
-2.20022e-07
-1.25943e-08
-2.60335e-08
2.28187e-08
1.52792e-08
-1.14601e-08
5.67084e-08
-3.82978e-08
2.84925e-08
-6.63777e-08
1.13138e-08
-7.36345e-08
9.80062e-08
-2.45937e-08
5.10011e-08
2.39967e-08
-3.75405e-08
2.86034e-08
5.07097e-07
-5.28885e-06
5.00976e-06
-1.68351e-08
-9.11926e-07
-6.96327e-07
2.27275e-06
9.88511e-06
-1.69456e-05
-3.54619e-06
-4.58614e-06
7.66852e-06
-5.94225e-06
5.43217e-06
1.53203e-06
1.79234e-06
1.40883e-06
1.03471e-06
4.63564e-06
5.82084e-06
-1.3071e-05
-2.276e-06
2.49289e-06
5.99554e-07
2.19118e-06
-5.83745e-06
-7.79296e-06
1.79403e-05
-1.30096e-05
9.35311e-06
-9.04997e-06
-7.36948e-06
1.16753e-05
-4.36503e-06
-1.5717e-05
-1.1774e-05
8.46811e-06
-1.49459e-05
-7.2751e-07
2.0318e-06
2.9617e-06
-7.94339e-06
3.20723e-06
2.08142e-06
-9.64345e-06
4.02317e-06
8.97081e-07
-6.71785e-07
7.93003e-07
2.46986e-06
1.22078e-06
1.1898e-07
-2.54283e-06
-3.11135e-06
9.4414e-06
-5.09042e-06
3.2177e-06
3.70655e-07
-4.31367e-06
-5.44126e-07
2.2997e-06
-5.78531e-07
-2.36186e-06
6.49992e-07
-1.5094e-06
-6.24877e-07
4.44626e-06
1.00269e-06
-3.04771e-06
-4.36972e-06
-8.86897e-06
1.18492e-05
-1.42771e-05
7.55795e-06
-1.24137e-05
3.97353e-06
-3.6016e-05
1.46914e-06
1.67857e-06
-4.38073e-06
-1.28521e-06
5.30196e-07
2.21895e-06
-2.40819e-06
5.87601e-06
-1.59499e-05
1.95846e-06
-1.80479e-05
-6.57562e-06
1.83454e-05
6.8361e-06
-1.88717e-05
2.77225e-06
-7.14164e-06
-1.83541e-07
-6.53644e-06
-9.59556e-06
1.63038e-05
-7.09524e-06
-1.90267e-05
2.23993e-05
-8.62024e-06
-5.05282e-06
7.55004e-06
1.25423e-05
-3.01339e-05
1.50898e-05
-1.51845e-05
1.67286e-05
-2.31431e-05
2.1495e-05
1.3206e-05
7.42952e-07
-8.82452e-06
-5.37956e-06
-9.72955e-06
-3.21186e-06
2.48283e-05
-6.36168e-07
-8.34443e-06
-1.66486e-06
9.39229e-06
-8.36112e-06
1.61013e-05
-2.61068e-05
9.84725e-08
6.08447e-06
7.37777e-06
-1.11725e-08
-1.53082e-08
-1.01487e-09
2.73061e-08
-6.84498e-10
6.0695e-09
-1.68462e-08
-1.23956e-08
-3.78645e-09
-2.89441e-08
7.42282e-09
7.55713e-09
-5.73102e-09
-7.63876e-08
-1.70193e-08
3.31881e-09
1.71453e-08
4.64273e-09
-2.91629e-08
5.1724e-09
-1.29794e-08
7.42147e-09
5.7478e-08
4.80048e-08
-1.4632e-08
-1.15962e-07
-4.03402e-08
-7.4544e-08
1.5987e-07
2.1967e-08
-6.36822e-08
1.06673e-07
-1.30143e-07
8.2937e-10
-1.92483e-07
3.67187e-07
2.01739e-07
-3.88374e-07
5.93049e-08
-6.78998e-09
4.06439e-09
-5.95846e-09
6.56286e-09
8.57933e-09
-3.92737e-09
-1.38331e-08
-3.23994e-09
1.43171e-08
5.54771e-10
-1.98459e-10
-4.297e-09
3.58983e-09
-2.24424e-09
2.26465e-10
5.50321e-10
-9.84861e-10
5.30456e-09
-9.70199e-10
-2.77134e-09
4.66723e-09
-6.01786e-09
1.32983e-07
3.06217e-07
7.65078e-08
-1.11794e-07
-7.92699e-07
-1.82128e-07
9.20389e-07
-2.50641e-07
-2.25161e-07
-3.09237e-07
3.85812e-07
1.28832e-07
-4.05185e-09
-2.11892e-07
8.02043e-08
-2.19216e-07
2.62881e-07
1.68411e-06
-3.97002e-05
-2.14589e-06
4.02614e-05
-4.12728e-05
3.84019e-05
4.6048e-06
3.74657e-05
-0.000118364
4.51873e-05
-4.01041e-05
-6.98737e-06
-3.79026e-05
0.000123428
-3.89177e-06
4.36117e-06
-6.47984e-06
-8.58065e-11
2.79491e-09
6.23173e-10
1.72814e-09
6.25552e-10
-1.28185e-10
-6.76789e-10
1.51772e-10
3.69861e-09
1.86182e-09
-3.93439e-10
-4.0251e-09
1.75501e-12
3.65068e-09
4.40533e-11
-5.20087e-10
2.61897e-10
1.95961e-08
2.23325e-08
4.89677e-08
-7.00863e-08
1.36022e-08
6.72105e-08
-1.21283e-08
5.48592e-09
8.83448e-09
-7.37268e-08
3.04316e-08
1.26264e-07
5.39717e-08
-6.42636e-08
-9.96696e-09
6.85682e-08
3.64815e-08
-5.15479e-08
-6.70268e-09
3.96618e-08
3.01524e-08
1.76214e-08
4.52051e-08
-9.28279e-08
1.23315e-08
-3.94945e-09
1.61014e-08
-1.10436e-08
2.39889e-08
-2.82482e-08
5.97625e-08
-6.20021e-09
2.06093e-08
-4.81621e-09
4.82485e-06
1.18206e-06
-1.58539e-06
-2.66587e-06
-2.01001e-06
8.27466e-07
4.94611e-06
3.18872e-07
-1.20942e-06
8.75968e-07
2.44516e-07
-5.80874e-06
-2.92905e-07
1.2499e-06
-2.81772e-06
2.01211e-06
1.08315e-06
-5.46767e-07
-3.52118e-06
-6.80807e-07
2.38824e-06
-9.94866e-07
3.93758e-06
5.91883e-07
-2.53412e-06
-2.00201e-06
-2.80894e-06
-4.22983e-07
7.17618e-06
4.54584e-07
-3.4523e-06
-5.36643e-06
2.81191e-06
1.95509e-06
1.65778e-07
-7.87188e-06
-3.81662e-06
6.21697e-06
-4.25845e-06
-1.03843e-05
-2.01321e-06
5.26238e-07
1.17875e-05
1.85209e-05
2.11084e-05
-4.64368e-05
2.47118e-05
-4.60079e-06
5.95889e-06
-5.43673e-06
-1.43778e-08
-4.06874e-06
2.17845e-05
3.88903e-06
1.17582e-05
2.46662e-05
-5.16179e-07
1.33549e-05
1.681e-06
-9.32725e-06
7.704e-06
-6.11432e-06
-1.57319e-06
-1.52953e-05
3.80458e-05
-1.55506e-05
1.53755e-05
3.07196e-06
-3.07992e-05
1.72396e-06
-1.15778e-06
2.11635e-06
-7.97382e-07
-1.66542e-05
1.80349e-08
1.64695e-05
-2.29731e-05
1.47933e-05
-3.84377e-06
2.62663e-05
-5.31559e-05
7.42416e-06
-6.68587e-06
-8.07222e-07
-5.14102e-06
3.55468e-05
-2.29628e-06
2.56154e-05
1.73788e-05
7.33999e-06
1.55326e-05
4.11769e-06
-2.69026e-05
-7.56437e-07
7.56475e-06
5.97098e-07
1.61928e-05
-1.11e-06
4.6159e-06
2.26552e-05
-2.56054e-05
2.46458e-05
-1.23775e-05
-2.7224e-05
-5.04033e-06
-1.79406e-05
-4.58927e-05
0.000100785
-1.65247e-06
-6.2677e-06
7.54185e-07
-2.35835e-05
-2.50764e-06
-1.07634e-05
-6.05298e-05
-1.46409e-05
-1.44182e-05
-2.8904e-06
3.18026e-05
-5.83132e-06
-1.17241e-05
3.29261e-06
-3.37595e-06
-1.62937e-05
2.1263e-05
-2.22685e-05
-1.04998e-05
-2.30651e-05
4.06342e-05
-1.05607e-05
-1.5551e-05
-4.84977e-05
4.65774e-06
1.6759e-05
-3.7334e-06
-3.91855e-06
6.43397e-06
-4.9528e-06
9.66627e-06
-1.29091e-05
3.78532e-05
3.55535e-06
6.20842e-06
-1.36563e-05
2.96609e-05
-1.38834e-05
-6.72263e-06
1.24326e-05
2.33042e-05
-3.06798e-05
1.74443e-05
1.35453e-05
-1.15933e-05
5.33885e-06
9.88111e-06
-3.56592e-06
2.29846e-05
1.4992e-06
-3.60304e-05
1.48504e-05
1.35152e-05
-3.52175e-06
-2.08065e-06
1.55029e-05
-5.81077e-06
-1.21942e-06
-6.31705e-07
-5.19416e-06
3.75158e-06
-5.14052e-06
-2.59079e-07
3.41304e-06
-7.03462e-06
1.30893e-05
-4.55779e-06
-6.50723e-07
-5.28984e-06
-2.33341e-07
-9.13338e-07
-6.38798e-07
-1.95316e-07
1.37934e-07
-2.61145e-11
-4.62847e-11
-3.18804e-06
-1.29895e-10
2.99379e-06
-5.68659e-10
-4.44358e-06
-3.35798e-10
2.00965e-12
-0
2.43922e-12
9.68477e-12
-0
2.15089e-13
3.33794e-12
0
0
2.62187e-12
-9.38562e-13
6.36892e-12
1.35396e-13
2.62059e-12
-2.60312e-14
1.61427e-13
-9.64593e-13
-2.27958e-06
-9.19232e-10
6.13819e-07
-1.40312e-07
1.4454e-06
4.94692e-07
-1.01401e-05
2.7636e-07
1.27155e-08
-7.40071e-07
-6.46448e-07
8.11416e-07
-3.90979e-06
6.14697e-07
-7.2753e-07
-3.87648e-07
8.46651e-08
-1.15804e-06
-3.858e-06
8.5994e-07
-2.28843e-06
6.54432e-07
-1.51214e-08
5.15808e-08
7.81184e-08
-8.60165e-08
1.48488e-07
2.79356e-07
-2.42625e-07
6.38138e-08
1.46577e-07
6.02942e-08
-1.64158e-07
1.72892e-07
-1.83649e-07
5.01728e-07
-9.39562e-08
2.17721e-07
-1.56797e-07
5.38001e-08
-3.97159e-08
-1.54075e-08
1.26026e-09
-2.79842e-07
-3.72417e-08
4.28047e-07
-1.38734e-07
2.81229e-08
1.3428e-08
-5.67408e-08
2.94426e-08
-6.49749e-15
-2.79197e-07
3.6114e-07
-3.2866e-07
2.37183e-11
8.4907e-11
3.09963e-12
-1.10594e-10
-8.51e-09
1.41352e-09
4.80748e-08
2.9963e-08
-6.06855e-09
1.5279e-09
-1.28128e-11
-9.55636e-11
-4.04984e-09
5.94748e-08
-6.29041e-11
2.85496e-08
-7.09648e-11
2.78502e-13
-3.6356e-12
1.08919e-13
2.88943e-12
-7.50964e-12
3.66969e-12
-1.19212e-11
1.28076e-10
1.02418e-11
1.53683e-10
2.02436e-12
-8.21072e-12
-2.31953e-11
4.04297e-11
-5.37075e-12
-1.10181e-09
1.11543e-09
-8.9506e-12
-7.75527e-12
1.45562e-11
7.77404e-12
-3.17659e-11
3.14377e-12
-3.39496e-12
1.71854e-10
-1.26699e-09
1.51542e-10
-7.53328e-10
-2.19658e-08
-2.17017e-08
3.96747e-08
-9.31103e-09
-2.58882e-08
2.71528e-08
-9.67611e-09
-2.10562e-08
-9.89097e-09
2.16209e-08
-2.11337e-08
4.03657e-08
-7.09861e-08
-8.33387e-09
2.29747e-08
-1.01206e-08
-8.63566e-09
-4.92295e-09
-1.71386e-09
1.53315e-08
3.72087e-09
-3.39126e-09
-8.53353e-09
1.53671e-09
-2.73967e-09
-7.0313e-09
1.31784e-09
7.24855e-09
-3.24482e-09
-6.52682e-09
6.60991e-09
-1.26649e-08
6.21342e-09
-8.10013e-11
2.75219e-10
-5.03178e-11
3.69621e-12
3.66345e-10
-9.44839e-11
-3.61799e-11
-3.82035e-10
1.0688e-09
3.3698e-10
7.23004e-11
-8.47045e-10
2.80409e-10
-1.19703e-10
-8.22081e-11
-1.67956e-12
-1.59835e-10
1.25027e-07
6.52744e-08
-1.39819e-07
-5.8388e-07
-5.57508e-09
-4.24821e-08
1.06131e-07
-2.90657e-08
2.49298e-08
-1.05689e-06
2.17388e-07
-1.61626e-07
2.37992e-08
-7.97366e-06
-1.14892e-08
2.68681e-08
6.18632e-08
1.36134e-07
-5.53218e-07
5.06648e-09
4.13092e-08
-9.91353e-09
-3.67641e-09
-1.56682e-08
8.74412e-09
-1.43893e-08
-4.85216e-08
-2.64524e-08
6.11917e-08
-4.56723e-08
-4.23188e-08
5.69388e-08
2.31779e-08
2.17057e-08
2.23467e-08
1.10789e-08
3.61646e-09
-7.5666e-09
-2.8256e-08
-7.40321e-07
-1.83372e-06
-3.9527e-06
7.20876e-06
-5.36429e-07
-6.9269e-07
1.09135e-06
-1.11477e-07
-4.06498e-07
2.03947e-07
1.59655e-06
-1.97543e-06
2.85005e-08
-3.24502e-07
-1.77883e-06
1.02438e-06
-3.31812e-06
-1.31709e-07
-2.65567e-07
5.44038e-08
1.225e-06
7.18806e-08
-2.20114e-09
-2.49533e-07
4.75085e-07
-5.44352e-08
-1.4493e-07
8.17699e-08
2.71817e-06
3.34001e-08
-2.11773e-07
-4.18319e-07
1.3368e-06
-2.0106e-07
-2.79144e-09
-3.53197e-09
-2.62676e-07
3.98928e-08
-1.49897e-07
-9.17454e-10
1.27417e-07
2.73183e-08
-3.67475e-07
4.05016e-08
-2.35119e-08
2.52699e-08
-1.53158e-07
-1.92036e-06
-5.34006e-08
-1.8707e-06
-8.97915e-08
-7.17679e-07
-7.53801e-07
-1.12334e-07
1.41192e-06
6.87277e-08
-9.32428e-07
1.76657e-07
1.10926e-07
-7.5519e-07
-2.08548e-06
-5.56229e-07
1.41495e-06
-2.84257e-08
-2.66282e-06
-1.11252e-06
6.98025e-07
-1.62547e-06
1.29916e-06
-6.16296e-08
-7.41524e-08
-1.17395e-06
-1.51996e-07
8.4865e-07
9.49597e-07
-1.23932e-07
-9.74065e-08
7.27551e-08
-5.13425e-07
4.86236e-07
-9.97394e-07
1.0046e-06
5.50791e-08
8.14371e-07
-1.60887e-07
2.10824e-07
-2.39337e-07
-8.67019e-07
1.1574e-06
-1.66265e-06
-1.77639e-05
-1.28799e-05
-2.76792e-06
3.91841e-05
1.60038e-06
-1.96467e-05
-1.29393e-05
1.76988e-06
6.44965e-06
-4.19418e-06
-1.68645e-05
7.49885e-06
7.67259e-07
8.04747e-06
1.07119e-05
-2.2787e-05
2.16894e-05
-1.08266e-05
2.82494e-05
-3.66304e-05
5.82644e-05
-1.6761e-05
-7.135e-07
2.32193e-05
-8.19359e-06
1.0645e-05
1.54645e-05
-4.55229e-05
-9.09307e-07
8.88252e-06
7.41678e-06
-1.23115e-05
3.3335e-06
-6.35045e-06
2.1589e-05
6.05369e-06
2.39774e-05
-9.21892e-06
1.18584e-05
1.52173e-06
-1.26449e-05
3.19608e-05
-1.34289e-05
-3.80837e-06
-1.5566e-05
5.14803e-05
-2.80192e-06
3.5949e-06
5.21739e-06
2.78617e-06
-1.19011e-05
7.49763e-06
1.89572e-06
4.41881e-06
-1.57812e-05
2.07658e-05
-9.94518e-06
3.48845e-05
-8.7012e-06
-1.76401e-06
1.52862e-05
-3.23898e-06
1.16317e-05
5.5918e-06
-1.80363e-06
1.47442e-05
1.88095e-05
-4.1511e-06
-1.47535e-05
4.05703e-05
-7.81902e-06
2.72964e-06
4.47119e-06
5.85723e-07
-7.75829e-06
-2.48011e-06
3.58096e-06
-4.06339e-07
-2.79799e-06
1.9766e-06
-7.27351e-06
3.73632e-06
4.92885e-06
6.11118e-06
-1.45075e-05
5.59763e-06
1.1425e-05
6.29522e-06
4.70189e-06
8.33823e-06
7.0696e-06
6.19806e-06
1.49149e-05
6.05635e-06
9.27804e-06
1.89019e-05
5.95326e-06
-7.22197e-08
7.2691e-06
-2.94865e-06
-1.42377e-05
-3.51671e-06
-1.04736e-05
-2.66319e-06
6.67797e-07
1.05132e-05
2.50634e-06
-2.83743e-06
-6.6707e-06
-8.48509e-06
-1.41821e-06
-5.6915e-06
2.02935e-06
-1.07852e-05
-1.35144e-06
5.44538e-06
-5.85131e-06
-7.96585e-06
-8.29421e-06
1.75449e-06
-2.12953e-05
-5.71332e-06
-4.72582e-06
-1.46422e-06
1.62217e-06
3.40851e-06
-1.63688e-05
-1.1934e-06
2.74229e-06
7.26309e-06
-6.35217e-06
5.19187e-06
1.57067e-05
7.74362e-06
8.96235e-06
-2.29574e-05
4.62608e-06
4.40714e-06
1.47625e-06
-7.77696e-06
7.04523e-06
-1.43354e-05
1.12672e-05
-1.9209e-05
1.92841e-05
3.07971e-06
5.1654e-06
5.62037e-06
8.6912e-06
2.02011e-05
-1.26546e-06
-4.25972e-05
2.29072e-05
-1.53892e-05
-2.33097e-05
4.05667e-05
2.88602e-06
-1.98445e-05
-1.79965e-05
1.7137e-05
4.20167e-06
3.32576e-06
-4.12351e-05
-3.08354e-05
2.45776e-05
-7.03528e-05
-4.37604e-06
-1.08551e-05
2.74929e-06
1.47741e-05
7.066e-07
-4.40843e-06
4.29098e-07
-1.05248e-05
6.2928e-06
-5.51824e-06
-4.94258e-06
1.77539e-05
-1.48474e-05
4.38707e-06
2.22491e-05
1.31222e-06
-3.457e-05
1.8329e-05
1.83933e-05
2.25688e-05
-3.68178e-05
3.53485e-05
-5.63481e-06
-1.05746e-05
1.74333e-06
1.15497e-05
1.00065e-05
-2.50631e-06
-9.19547e-06
1.6261e-06
-2.16809e-05
-5.56854e-07
3.21698e-05
-1.946e-06
-2.2573e-05
1.36231e-05
-3.95053e-05
1.63926e-05
-2.73069e-05
4.08885e-05
-2.18467e-05
2.17492e-05
-2.01123e-06
1.66836e-06
-4.81978e-05
3.60373e-05
-7.43167e-05
3.10097e-05
-9.78547e-06
-1.11909e-05
-3.29674e-06
2.02001e-05
-3.33142e-06
-7.89903e-06
1.49312e-06
-1.35965e-05
1.28924e-05
-3.27956e-05
1.16285e-05
3.40804e-05
2.66664e-05
-8.2158e-05
-7.77328e-05
-6.39905e-06
-1.48753e-05
2.16813e-06
1.1256e-05
9.9203e-06
-1.43817e-07
-1.01855e-05
4.09823e-07
-1.98316e-05
-6.36597e-06
3.61191e-05
-1.90297e-07
-1.97812e-05
6.65455e-06
-3.61155e-05
1.92766e-05
-3.65697e-05
3.68594e-05
-3.65785e-05
-1.77755e-07
-9.24702e-05
-3.15306e-05
-1.40849e-05
-3.38017e-05
1.59213e-07
-4.63001e-05
1.31503e-05
-1.6857e-05
2.48971e-05
-9.01478e-05
4.88151e-05
-9.92056e-05
-9.08927e-06
1.01968e-05
-1.16201e-05
7.40089e-06
1.5384e-05
5.83297e-07
-2.40993e-05
4.14217e-06
-6.92901e-06
4.0609e-06
1.82011e-06
1.66259e-05
1.28763e-05
-1.8319e-05
-1.12691e-06
1.68207e-05
-1.58939e-05
1.58559e-05
-3.88351e-05
-7.08491e-06
-7.03814e-06
-4.8854e-06
2.76303e-05
-1.07211e-06
-8.20186e-06
7.6568e-06
-8.32731e-06
-1.1496e-06
1.4112e-05
3.95552e-06
-2.64398e-05
1.37399e-05
-3.30703e-06
8.78169e-06
-1.30708e-05
1.80995e-05
7.19004e-07
-1.93379e-07
-8.11663e-06
6.54318e-06
-1.56194e-06
-3.64371e-06
6.36347e-06
-1.26336e-06
-4.94614e-07
-2.65186e-07
-8.35409e-08
-7.31417e-06
1.46026e-06
-5.20097e-06
6.41797e-08
-1.41243e-06
8.89654e-07
-7.51891e-07
-2.06202e-06
2.60508e-07
2.3633e-06
-1.76353e-06
3.41697e-06
-1.41613e-06
-4.14374e-06
2.5391e-08
-3.39205e-06
-1.82934e-07
6.67153e-06
1.24348e-07
-5.39742e-06
3.16389e-06
-9.80524e-06
3.05074e-06
1.52901e-06
3.7247e-06
1.86231e-06
-7.12444e-06
-3.08694e-07
4.02183e-06
-2.18358e-06
-9.33756e-07
3.81062e-06
-5.6146e-07
3.73077e-06
9.72411e-07
4.71248e-06
-3.41716e-06
4.02848e-06
-2.54339e-07
1.10732e-05
-2.59659e-06
-6.61295e-06
6.05142e-06
3.17054e-06
-2.98052e-06
5.61714e-07
-6.02045e-07
-6.42442e-07
-8.94302e-06
-6.50749e-07
8.03292e-07
1.29617e-07
-4.26126e-06
2.97587e-06
-1.48079e-06
-1.01239e-06
3.25698e-06
-1.47583e-06
-4.25828e-06
3.0736e-06
-5.18907e-06
8.11592e-06
-4.37908e-07
-1.23992e-06
-8.52694e-07
1.28132e-06
-9.76467e-09
-1.76655e-06
-2.08642e-07
-2.36531e-06
-7.63459e-07
-1.72719e-06
1.29485e-06
1.01226e-06
-6.56565e-06
-3.64888e-07
2.32208e-07
9.91283e-07
4.13039e-07
-3.26676e-09
2.2422e-07
-3.42453e-06
-4.52905e-07
3.92523e-07
-7.88842e-07
3.70999e-07
-1.20458e-07
3.22248e-10
2.50775e-09
3.47122e-07
2.86986e-07
-2.22274e-06
-1.46423e-07
5.33503e-07
1.26784e-09
-4.98558e-07
-8.06487e-08
-9.46289e-07
1.77698e-06
-3.66071e-06
3.50812e-07
8.74955e-07
-2.88284e-07
-8.90219e-07
5.87893e-07
-1.68235e-07
3.40288e-07
-1.51293e-08
1.10816e-06
9.09213e-07
-2.39996e-07
-1.55989e-07
1.2152e-07
1.48027e-06
-3.04153e-07
-5.65089e-07
5.59096e-08
9.64402e-10
-7.89166e-10
2.46444e-07
-1.07624e-09
-1.94163e-10
5.70788e-08
2.1516e-10
-2.90813e-10
3.81268e-11
-2.50913e-09
1.61108e-09
-3.80521e-10
1.4947e-10
-2.47534e-10
1.23981e-10
-3.74279e-09
-3.48735e-08
1.17591e-08
-8.81598e-09
1.87233e-08
-3.72311e-08
1.67259e-07
3.18044e-07
4.23467e-08
6.63049e-07
-8.23781e-08
-8.91256e-07
1.10575e-07
3.92171e-06
-1.85028e-06
1.25384e-06
4.2117e-07
2.17018e-06
-5.00873e-06
2.78791e-06
-1.89402e-06
-4.17892e-07
-3.13212e-07
9.71483e-06
-2.83881e-06
3.70455e-06
-3.7707e-06
-1.90447e-08
2.18073e-07
8.48423e-07
-1.80415e-06
-1.92971e-07
2.5503e-07
-8.20019e-08
-3.20576e-07
3.45004e-07
2.95533e-07
-3.43973e-07
3.02795e-07
-1.16986e-07
3.30068e-07
-5.9008e-07
9.00832e-08
-8.61166e-08
-2.95073e-06
-7.91498e-07
4.68855e-06
1.14509e-06
2.61959e-06
2.08008e-06
-7.91629e-06
8.25095e-06
-7.06631e-07
-1.28962e-07
6.74303e-06
2.18198e-08
5.42999e-06
-4.22458e-07
-8.21211e-06
2.25904e-05
-1.18014e-06
-1.48335e-05
3.36535e-08
-8.55839e-07
1.36235e-05
2.713e-05
2.82081e-05
-7.03168e-05
2.61899e-05
-4.2457e-07
7.41549e-06
-8.1752e-06
-5.77852e-07
-4.58015e-06
2.54661e-05
5.40353e-06
1.46898e-05
2.70932e-05
-1.04225e-06
2.06693e-05
-1.92947e-05
8.91976e-07
1.79289e-05
-1.65427e-05
-1.596e-06
-1.29507e-05
5.22241e-05
1.32568e-05
1.64268e-05
-6.22232e-05
1.34872e-05
-8.08068e-08
-2.50301e-07
2.40435e-07
-8.60552e-06
-2.05504e-05
-1.99013e-05
5.62537e-05
-6.53382e-09
5.36911e-07
-9.56013e-06
-1.72364e-05
-2.52701e-07
-1.33148e-05
1.36318e-05
2.68465e-09
4.76454e-06
-3.04312e-05
1.56098e-05
-2.83078e-05
2.03665e-05
8.74153e-06
-2.14871e-07
2.16204e-05
9.62369e-06
-6.2039e-05
2.13788e-05
-1.73534e-07
-1.62246e-05
3.79576e-05
-2.33258e-05
-3.54758e-06
2.49602e-05
5.4792e-07
-4.84654e-07
-2.44764e-05
-1.15771e-05
-2.01487e-05
5.19426e-07
-1.12963e-05
-1.5841e-05
1.72956e-05
-4.09486e-07
1.31036e-05
-3.56221e-05
-1.96941e-05
-2.07083e-06
4.51564e-05
4.29589e-05
-2.17958e-08
2.7179e-05
1.16482e-05
-3.65071e-06
-3.93979e-06
5.20543e-06
2.4551e-06
-2.68382e-06
8.23252e-06
-8.78084e-06
-2.34892e-06
-4.29215e-06
-1.70376e-05
-3.33108e-06
2.9455e-05
-6.80586e-06
-1.88017e-05
8.43111e-06
-1.40784e-05
7.79748e-06
-1.86182e-05
-8.58747e-06
-8.8276e-06
4.17862e-06
-1.13346e-05
-1.16591e-05
3.45818e-06
-1.0376e-05
-1.55504e-05
8.3602e-06
6.57258e-06
3.72741e-06
-2.93626e-05
1.02019e-05
-1.60471e-05
5.47682e-06
-1.8015e-06
1.00321e-07
4.2163e-07
4.05597e-07
-9.82197e-08
1.07947e-06
-4.22125e-07
4.94039e-09
-2.49769e-09
4.78423e-07
7.00976e-09
-2.56787e-09
6.92753e-10
6.68886e-07
-1.63736e-08
1.1038e-06
1.91449e-09
1.21396e-11
3.40456e-11
-5.16604e-12
9.99571e-11
2.11908e-09
5.78733e-09
-3.14405e-09
-3.62041e-09
3.07376e-09
-1.7794e-10
1.17423e-09
-8.10951e-10
8.97628e-09
3.19351e-10
2.69059e-09
-4.36678e-10
1.49548e-09
-1.28044e-09
-4.89945e-10
7.13567e-10
6.92336e-10
9.3518e-14
9.453e-34
1.57187e-13
-6.29225e-13
2.03117e-33
4.76914e-13
-7.51563e-34
-1.89896e-33
-5.23511e-14
7.02511e-13
3.25118e-12
-2.92445e-12
3.19883e-12
-6.47544e-13
-3.16923e-13
-2.64042e-13
2.24354e-12
1.32636e-12
-8.9156e-14
1.25733e-13
-1.06609e-12
4.72627e-13
8.6821e-13
-1.11452e-12
6.63026e-13
2.30263e-12
-4.15724e-14
5.36463e-13
-4.61982e-13
-1.22276e-12
2.22129e-13
-3.324e-13
-1.11383e-12
-1.92794e-11
-1.02084e-12
-2.25293e-12
1.56253e-12
5.18219e-14
-8.73949e-14
-1.0498e-12
2.55643e-10
-5.68588e-10
2.55823e-10
-1.50591e-07
-1.08042e-07
-3.20375e-08
2.92835e-07
1.11285e-08
-1.23658e-07
-3.39527e-08
-1.82613e-07
-2.12147e-09
-1.98812e-07
-3.15392e-07
4.84362e-07
-1.91933e-07
-1.28413e-07
3.27494e-07
-6.99512e-07
1.84728e-08
-7.05117e-08
1.07256e-08
1.97518e-07
-3.72488e-08
1.00502e-07
2.22896e-07
-2.88452e-07
7.77548e-09
6.87367e-08
1.97684e-07
-2.70308e-07
1.53999e-08
-7.62228e-08
3.07811e-07
1.16629e-08
1.75262e-07
-1.14706e-08
2.0505e-07
4.83713e-08
3.88873e-07
-4.34304e-07
4.49968e-07
4.65318e-11
-9.62777e-12
2.55001e-11
-1.92018e-11
-1.10123e-10
7.5495e-10
-5.94894e-11
6.56693e-11
-1.5204e-10
-1.04062e-09
-4.26943e-11
2.05231e-09
-1.05497e-09
1.52732e-11
-2.05863e-09
-8.09414e-13
-1.04669e-13
2.86007e-13
-1.33923e-12
1.53544e-13
-2.53223e-13
-8.31978e-14
-2.48086e-12
4.13976e-12
2.16671e-14
-4.35061e-13
2.00402e-13
-3.01044e-13
-1.05378e-12
1.89507e-11
3.51811e-11
-2.93171e-11
-5.0948e-11
-3.0535e-13
1.92762e-11
4.92218e-11
-2.07932e-12
-4.57496e-11
-2.64355e-10
2.25639e-11
-1.23515e-10
-3.92519e-10
-3.71065e-11
-4.68809e-11
9.40433e-11
-5.63031e-12
-2.18697e-10
-3.00257e-10
1.09059e-11
6.9201e-12
6.15698e-10
-1.4711e-09
-4.11912e-10
3.57946e-10
-8.32222e-10
-2.42381e-09
-3.36701e-09
6.66833e-09
1.76901e-09
4.64482e-09
2.06848e-08
-1.85898e-08
1.28225e-08
-1.13299e-08
-2.4275e-10
-2.12416e-09
2.60243e-08
3.26317e-10
-5.78124e-09
-4.67232e-09
-1.77522e-09
9.57636e-11
6.46732e-10
2.22215e-09
1.55548e-08
-2.87639e-10
-1.0488e-09
-1.83943e-10
6.9083e-10
-2.03215e-10
-6.39168e-11
6.83564e-13
-1.0194e-09