/*--------------------------------*- C++ -*----------------------------------*\
| =========                 |                                                 |
| \\      /  F ield         | OpenFOAM: The Open Source CFD Toolbox           |
|  \\    /   O peration     | Version:  v2012                                 |
|   \\  /    A nd           | Website:  www.openfoam.com                      |
|    \\/     M anipulation  |                                                 |
\*---------------------------------------------------------------------------*/
FoamFile
{
    version     2.0;
    format      ascii;
    class       volScalarField;
    location    "0.6";
    object      alpha.water;
}
// * * * * * * * * * * * * * * * * * * * * * * * * * * * * * * * * * * * * * //

dimensions      [0 0 0 0 0 0 0];


internalField   nonuniform List<scalar> 
6576
(
1
1
1
1
1
1
1
1
1
1
1
1
1
1
1
1
1
1
1
1
1
1
1
1
1
1
1
1
1
1
1
1
1
1
1
1
1
1
1
1
1
1
1
0.825811
0.67431
0.616001
0.534653
0.569938
0.534649
0.534649
0.534646
0.534653
1.04335e-06
1.04335e-06
1.32254e-06
1.26491e-06
1.04304e-06
1.04685e-06
1.66816e-06
1.06389e-09
1.06265e-09
1.40747e-09
1.06266e-09
1.0629e-09
1.06272e-09
1.06272e-09
1.25335e-09
3.87533e-09
1.8521e-09
1.27584e-09
1.20567e-09
1.3853e-09
1.33632e-09
0.000599749
0.00160171
0.000399111
0.000400045
0.000399111
0.000399079
0.000399109
0.000461109
0.000461109
0.000461109
0.0021766
0.00107594
0.000461137
0.00046111
0.234511
0.232756
0.234677
0.540324
0.469216
0.539503
0.41088
0.229617
0.728832
0.119115
0.73254
0.120134
0.119565
0.196952
0.684192
0.683926
0.683858
0.616139
0.680294
0.616466
0.617782
0.572523
0.572523
0.572523
0.572523
0.572523
0.580875
3.72745e-12
0
1.38368e-15
-5.3976e-37
3.93834e-31
-2.77263e-28
2.26761e-10
0.0808847
0.777534
0.961189
0.962527
0.896666
0.999746
0.99904
2.80092e-76
5.06024e-75
7.62308e-139
-1.45375e-50
3.36827e-40
-1.79162e-40
-1.10547e-40
0.0151165
0.0107251
0.00285627
0.00220075
0.00793885
0.00270086
0.00251505
0.00311451
0.00537045
0.00312302
0.00831706
0.00377363
0.00220228
0.0065267
0.00708136
0.00211551
0.00437546
0.00519335
0.00211551
0.00411455
0.022846
0.0197674
0.0027124
0.0192654
0.00732074
0.000133192
5.48717e-05
9.1093e-05
5.75896e-05
0.000129458
0.00151262
0.000486541
8.25062e-08
0.00128541
2.35643e-05
5.49412e-06
8.6434e-08
1.90766e-06
1.55441e-06
5.27366e-06
3.36377e-06
1.21241e-05
0.00022145
0.000373064
0.00010172
8.82263e-05
1.83034e-08
2.92197e-08
1.98999e-08
2.30086e-08
1.03918e-07
1.41625e-07
2.22362e-08
2.87273e-08
9.55663e-07
1.31812e-09
4.13567e-09
1.12197e-09
3.96758e-09
5.80818e-09
4.30587e-09
3.22217e-08
1.33343e-07
2.56234e-07
1.24449e-07
5.34568e-06
1.80068e-07
1.88897e-07
1.25457e-07
1.80087e-08
2.15422e-08
1.18283e-07
3.48083e-08
2.28331e-08
5.66299e-09
6.9825e-09
-5.0166e-25
-1.50561e-16
3.3511e-07
1.29476e-06
1.6186e-10
4.53853e-24
8.92878e-06
3.72933e-07
4.05367e-06
1.10693e-06
2.92218e-07
4.0338e-07
2.12707e-06
6.36158e-07
5.99969e-08
6.23855e-08
8.39939e-08
4.23484e-08
9.09814e-08
6.68044e-08
4.11118e-09
3.96758e-09
1.20937e-08
1.39649e-08
1.42999e-08
3.9729e-09
1.68908e-08
2.49257e-08
1.82174e-08
8.91611e-08
1.66432e-08
1.60735e-08
9.10464e-08
1.6277e-08
3.49934e-08
4.27648e-07
0.000170049
4.90511e-07
1.15219e-06
4.61203e-07
1.15219e-06
6.5691e-08
4.59864e-08
5.12203e-07
0.011567
0.0175311
0.0115907
0.0165078
0.0224777
0.0240154
0.0221876
0.11045
0.373271
0.801466
0.174189
0.129764
0.162095
0.763866
0.645233
0.872197
0.741208
0.655686
0.872254
0.913261
0.836748
0.875123
0.637646
0.795725
0.894679
0.894687
0.407797
0.498418
0.624436
0.849082
0.564938
0.8575
0.238015
0.237872
0.237872
0.59034
0.283059
0.237872
0.28243
0.87679
0.388234
0.389395
0.437527
0.51547
0.81737
0.879562
0.811445
0.879561
0.879561
0.658714
0.0822822
0.339786
0.290483
0.617572
0.503098
0.592818
0.348919
0.120324
0.000147135
0.12488
0.0043176
0.000177944
0.000146729
2.69604e-05
5.26257e-05
0.000744056
0.00108461
0.000744354
0.00151356
0.000745439
0.00575382
0.000932143
0.817762
0.930702
0.862386
0.91792
0.90153
0.716411
0.810473
0.696482
0.635718
0.673678
0.790585
0.881849
0.56855
0.862026
0.440575
0.440107
0.647003
0.317466
0.228426
0.337263
0.228806
0.229553
0.228614
0.22891
0.507301
0.846659
0.846654
0.846653
0.755707
0.846659
0.717013
0.776759
0.636956
0.63696
0.63696
0.87189
0.871941
0.912905
0.772681
0.910992
0.636968
0.582004
0.626651
0.582211
0.741693
0.659529
0.769743
0.593336
0.591724
0.708497
0.770292
0.770322
0.770321
0.770321
0.770321
0.000339623
0.000339623
0.000339555
0.000998746
0.00312126
0.000430866
0.000679291
0.000339623
0.000339849
0.0101382
0.0229515
0.0101411
0.0216333
0.0920222
0.0555851
0.0406746
0.000894937
0.000710928
0.00071195
0.000232514
0.00302646
0.000231759
0.00220517
0.00145386
0.00239801
0.00990329
0.047244
0.207638
0.0174504
0.00988349
0.00842984
0.00846034
0.972372
0.972337
0.972372
0.891524
0.970397
0.938267
0.972097
7.71504e-05
3.18034e-06
2.937e-05
2.87087e-05
2.14204e-06
1.80452e-06
1.09009e-06
0.001352
0.000500835
0.00111051
0.00141431
0.00140342
0.00125953
0.000913877
0.00143843
0.00132827
0.000626432
0.000737889
0.00117643
0.000891164
0.000190693
0.558107
0.327426
0.0583968
0.461337
0.25064
0.0583953
0.0583899
0.058392
0.0583953
0.082262
0.0825393
0.117081
0.125713
0.104294
0.0832648
0.103413
0.508915
0.548711
0.547953
0.508881
0.509277
0.508883
0.604371
0.379871
0.104731
0.303565
0.383345
0.221527
0.22125
0.604473
0.539927
0.289379
0.472723
0.540625
0.473395
0.334693
0.539933
0.587768
0.587758
0.587768
0.583291
0.587768
0.585019
0.495498
0.728097
0.540645
0.653121
0.587498
0.587768
0.551286
0.288416
0.74436
0.175857
0.745203
0.489319
0.168529
0.746893
0.660379
0.678726
0.729622
0.105009
0.572851
0.106119
0.74421
0.745634
0.521196
0.626173
0.751326
0.751326
0.75129
0.751095
0.628887
0.751282
0.642803
0.75129
0.75129
0.149231
0.332079
0.00146858
0.0247519
0.00704236
1.42888e-06
0.322429
9.98174e-07
0.167539
5.20769e-07
8.75634e-09
0
4.64234e-07
2.79675e-10
0
-7.04085e-26
0.0266896
0.180813
0.027172
0.0265235
0.0704098
0.0345831
0.178315
0.180717
0.0461149
0.00345649
0.00374006
0.00477987
0.00477932
0.0029452
0.00477263
0.00214975
4.08491e-05
0.00255201
0.00477837
0.000381549
2.25031e-05
0.00149148
0.00160261
5.25127e-07
0.000926999
0.000904569
5.24278e-07
0.000259893
0.000122982
4.92971e-07
4.58093e-08
4.58093e-08
4.58093e-08
9.23851e-07
4.58093e-08
6.56919e-08
8.64884e-08
9.43655e-08
5.59587e-08
2.67872e-07
9.35812e-08
1.58901e-07
0.000262628
0.000272308
0.000365849
0.000365849
0.000370299
0.000374749
5.34552e-05
0.000101404
0.000230719
0.000100707
0.000100557
0.000100707
0.000111656
0.000100707
9.33378e-06
9.56394e-06
1.22625e-05
1.80054e-05
1.32117e-05
1.23943e-05
1.51405e-05
0.00960174
0.00365133
0.00186883
0.0209035
0.190883
0.00968022
0.0271138
0.00680136
0.000905182
0.00688414
0.00772239
0.00549964
0.015934
0.00627972
0.0112492
0.00549964
0.104462
0.0701959
0.148996
0.0341305
0.03485
0.0783247
0.396088
0.015135
0.00603837
0.0426234
0.0528548
0.00600525
0.0109866
0.0108622
0.0041744
0.00772886
0.0115043
0.00456458
0.122929
0.0174698
0.00190945
0.0435773
0.0458444
0.0458447
0.0442901
0.045355
0.0458397
0.0440692
0.0367985
0.0774479
0.0368037
0.0577817
0.0384751
0.101016
0.0367444
0.0367532
0.0367526
0.346521
0.153507
0.580512
0.637948
0.580836
0.668259
0.660571
0.668617
0.608886
0.788698
0.789029
0.788471
0.463163
0.748764
0.787364
0.712002
0.491821
0.463163
0.47503
0.551462
0.470912
0.551462
0.465485
0.468566
0.469433
0.680751
0.314619
0.679526
0.365895
0.621532
0.823171
0.819692
0.510817
0.601202
0.353623
0.237949
0.918007
0.857308
0.918491
0.230116
0.448129
0.584919
0.725906
0.819783
0.588307
0.579412
0.550902
0.250835
0.879561
0.879561
0.879563
0.459092
0.461235
0.459455
0.778377
0.778103
0.776795
0.537635
0.228862
0.35896
0.229631
0.500515
0.505094
0.913688
0.91319
0.637916
0.709564
0.814991
0.818579
0.913722
0.846659
0.714474
0.82636
0.780979
0.685766
0.780573
0.731655
0.780973
0.780973
0.781548
0.694281
0.584848
0.555777
0.5235
0.477551
0.47656
0.503352
0.476496
0.477371
0.734038
0.742263
0.742191
0.719683
0.719735
0.719683
0.754078
0.776877
0.719738
0.730716
0.78336
0.722862
0.734639
0.703181
0.625347
0.781548
0.780998
0.780928
0.782466
0.500144
0.695361
0.580802
0.784768
0.784766
0.784768
0.784768
0.784768
0.784764
0.784757
0.783432
0.783432
0.783892
0.784201
0.783978
0.78336
0.780879
0.378775
0.539577
0.378563
0.645036
0.380742
0.378775
0.406683
0.340737
0.30317
0.421647
0.208329
0.744837
0.20827
0.27976
0.492486
0.383536
0.297735
0.619668
0.660756
0.297736
0.524415
0.269631
0.356616
0.269757
0.270462
0.272458
0.332163
0.269629
0.700726
0.700957
0.617403
0.629754
0.70075
0.700717
0.618637
0.700867
0.398302
0.701198
0.398268
0.578906
0.6286
0.700586
0.701281
0.701221
0.0954691
0.145991
0.094717
0.59142
0.30854
0.152427
0.0772678
0.403766
0.077225
0.147151
0.28345
0.318122
0.015207
0.243455
0.238105
0.553892
0.0684783
0.0193089
0.0388307
0.0149516
0.0218121
0.0260595
0.0426362
0.00203888
3.82244e-06
8.65808e-06
3.69882e-06
3.56795e-06
7.28257e-06
2.19065e-05
0.000892628
0.0014523
0.0178236
0.00235102
0.00878636
0.340292
0.0800469
0.0809697
0.171198
0.253024
0.0800316
0.463577
0.114131
0.06357
0.06357
0.06357
0.06357
0.102901
0.0635709
0.288291
0.153871
0.436365
0.195692
0.416171
0.414289
0.621374
0.618784
0.733939
0.629287
0.618417
0.629199
0.729596
0.73033
0.693398
0.693375
0.692583
0.657645
0.455645
0.455444
0.455444
0.572353
0.626299
0.592372
0.627973
0.560005
0.508581
0.503723
0.503723
0.628953
0.628423
0.612816
0.564637
0.569861
0.609963
0.376708
0.609969
0.109248
0.498939
0.347835
0.609963
0.551243
0.604473
0.508881
0.510594
0.213864
0.741004
0.0822604
0.600081
0.744393
0.674257
0.534202
0.750549
0.748771
0.629161
0.686602
0.746711
0.695098
0.718751
0.0724052
0.313605
1.0573e-06
0.00972514
0.00712851
9.31312e-05
7.75149e-05
1.37686e-06
1.74011e-08
4.70374e-07
0.000163813
0.000219962
4.23059e-05
3.2988e-05
0.000104864
4.12534e-05
0.000159585
4.72229e-09
1.89108e-08
-7.35187e-29
8.50625e-10
9.71971e-08
2.59201e-28
2.07858e-08
2.02097e-08
1.19842e-07
4.63194e-08
1.1982e-07
2.17448e-08
1.61064e-07
1.80329e-07
1.56585e-07
1.56585e-07
1.65743e-07
1.55292e-06
1.60584e-07
0.00468741
0.00467943
0.00410019
0.00468741
0.00469058
0.004677
0.00469056
0.0025402
0.00363778
0.00167779
0.00193088
0.00167651
0.00147853
0.004195
0.00418454
0.00162927
2.26762e-06
2.18216e-05
9.95797e-07
4.342e-07
2.16978e-05
1.64934e-05
8.0604e-08
2.16357e-08
3.13314e-09
2.17214e-08
4.22802e-09
3.13314e-09
3.08113e-08
6.52841e-08
5.07807e-07
1.0371e-07
7.02399e-08
1.34876e-07
2.80728e-06
4.00019e-06
5.74141e-07
1.29084e-06
2.99605e-06
1.12988e-05
1.68544e-06
5.19957e-06
0.000101136
0.000100549
0.00030379
0.000278923
0.000280982
0.000561728
0.000139015
0.000100549
0.00020063
2.87604e-05
3.37631e-06
2.33219e-05
3.7805e-05
8.67659e-06
0.000357271
0.000305601
5.83096e-05
0.000158312
0.872501
0.903567
0.901704
0.903398
0.883319
0.903583
0.903569
0.125539
0.902548
0.90055
0.432202
0.392349
0.00566151
0.366319
0.12964
0.064831
0.113689
0.00572069
0.0149134
0.0055752
0.00641616
0.00572069
0.00568661
0.00100079
0.00106936
0.00101331
0.00280971
0.00113616
0.0018596
0.000948892
0.517392
0.51651
0.51651
0.51689
0.715341
0.580766
0.715799
0.715869
0.543122
0.242678
0.715976
0.701637
0.363906
0.730088
0.0529832
0.468521
0.706108
0.702032
0.730119
0.730256
0.730256
0.730204
0.377782
0.472137
0.344164
0.694274
0.693752
0.678274
0.694274
0.694274
0.680024
0.336559
0.32478
0.669188
0.656649
0.669188
0.520246
0.468361
0.48632
0.862257
0.897354
0.85299
0.605816
0.590448
0.681568
0.901068
0.740409
0.720264
0.779589
0.745364
0.726983
0.78336
0.784513
0.710746
0.783232
0.784739
0.784768
0.784768
0.759981
0.59516
0.629826
0.402149
0.61018
0.327876
0.327982
0.326274
0.784215
0.735221
0.779237
0.594281
0.529768
0.303793
0.303793
0.366273
0.28212
0.522034
0.452327
0.52786
0.52786
0.389285
0.06797
0.391678
0.652446
0.0294075
0.28412
0.115569
0.0294075
0.0287873
0.208206
0.0228249
0.0601537
0.063162
0.0144263
0.0280884
0.0144233
0.0144237
0.575082
0.653306
0.764525
0.55018
0.171008
0.533203
0.280701
0.722132
0.591264
0.735247
0.711253
0.735843
0.507878
0.776429
0.324078
0.0148109
0.854094
0.0651015
0.904255
0.0729444
0.0748231
0.71626
0.83776
0.916389
0.916389
0.916389
0.916281
0.916389
0.000399529
0.000399529
0.000399333
0.000399399
0.000399198
0.0008844
0.000399512
0.000405225
0.000439053
0.00133006
0.000399198
0.00063585
0.00134128
0.000623775
0.000609361
0.000461785
0.000710077
0.00160488
0.000623438
0.00061008
0.001738
0.0147391
0.00614914
0.00244742
0.0208425
0.00760804
0.00291861
0.00758282
0.803892
0.803875
0.803865
0.803892
0.803892
0.803892
0.803897
0.803395
0.431803
0.162711
0.162849
0.162105
0.26162
0.483375
0.599606
0.694615
0.28523
0.695264
0.545146
0.695269
0.694615
0.43842
0.0972908
0.694566
0.165629
0.0973598
0.192824
0.693207
0.153268
0.153606
0.384594
0.174544
0.148743
0.525919
0.218693
0.148741
0.437567
0.625625
0.403118
0.377003
0.654447
0.42823
0.496272
0.377003
0.529231
0.164131
0.438548
0.390766
0.530604
0.424721
0.584982
0.736825
0.736825
0.736825
0.73657
0.736811
0.736825
0.736825
0.693533
0.69403
0.693472
0.736775
0.736816
0.736505
0.736815
0.736811
0.736649
0.481569
0.735689
0.694359
0.736816
0.629522
0.617449
0.618112
0.0588379
0.058614
0.0587806
0.0583953
0.0587859
0.35746
0.147822
0.259124
0.0583953
0.0999426
0.665973
0.0784927
0.0822514
0.0822514
0.0822514
0.0822517
0.0822514
0.0822595
0.0822539
0.559141
0.670239
0.669063
0.000183954
0.000189312
0.513383
0.337544
0.00558814
0.00551205
0.0302294
0.0288459
0.000180367
0.174784
0.063417
0.0263786
0.176613
0.177468
0.0209027
0.016844
0.000145504
0.000194766
0.000252846
0.000166589
0.000167511
0.000252911
0.000181574
0.00357787
0.00628007
0.00331157
0.00393712
0.00464475
0.00668897
0.0045032
0.000251446
0.000227314
0.000231768
0.00105405
0.000255924
0.000546576
0.00118455
1.50447e-07
1.64758e-07
9.20054e-08
0.000147666
0.00127131
0.0017491
0.00342004
0.00467943
0.00467774
0.0041486
3.05307e-07
0.00318155
0.0020309
0.000438017
7.5918e-05
6.17299e-05
0.00137984
0.000597377
8.74906e-05
6.17299e-05
0.00458822
0.00276001
0.00130726
0.00174065
0.00175511
0.000441524
0.000650938
0.00468493
0.00158736
0.00162173
2.18293e-05
5.24471e-06
6.11211e-06
7.6705e-06
3.7858e-06
6.57486e-06
1.35394e-05
0.000254664
1.90733e-06
2.67976e-05
1.96737e-06
2.25421e-06
2.78991e-05
1.92533e-05
6.77649e-06
6.54568e-06
6.54568e-06
2.06545e-05
1.70357e-05
7.54931e-06
1.60677e-05
2.15855e-05
1.83344e-05
3.19298e-05
4.97381e-06
2.70035e-05
5.56668e-06
2.6984e-05
6.69624e-09
5.48845e-08
2.32586e-09
2.31301e-09
1.0503e-08
3.93828e-09
2.31751e-09
2.36096e-09
2.35494e-09
2.36096e-09
2.32554e-09
2.33619e-09
2.49095e-09
3.9237e-09
4.19077e-06
3.20031e-06
3.20031e-06
3.35856e-05
4.58764e-05
0.000105708
0.000291515
1.28414e-05
1.28414e-05
1.25745e-05
9.29524e-05
0.000167783
0.000124158
6.48837e-05
2.15869e-05
3.8398e-05
0.000711071
0.00184621
0.00571446
0.000220841
0.000575907
0.00154078
0.00234485
0.0168232
0.00547188
0.012396
0.0186493
0.00537108
0.0186898
0.0157672
0.00804913
0.00802245
0.00802245
0.149427
0.0477965
0.0611953
0.017232
0.0142034
0.0080225
0.549864
0.0376725
0.162232
0.786746
0.886012
0.856602
0.861153
0.0734417
0.0786592
0.903775
0.903787
0.903787
0.90377
0.90377
0.903787
0.903731
0.20639
0.126625
0.0246712
0.206536
0.206595
0.206536
0.205765
0.1561
0.18407
0.156087
0.169517
0.16627
0.0611034
0.173384
0.0516656
0.0903175
0.116095
0.0506737
0.0510913
0.0789589
0.0644727
0.12851
0.0506558
0.601593
0.0506806
0.158926
0.053114
0.679436
0.381429
0.264835
0.0611457
0.0743959
0.0604774
0.299476
0.0404486
0.622282
0.596877
0.409293
0.625619
0.613549
0.508445
0.401772
0.533143
0.533201
0.533143
0.440482
0.28446
0.533143
0.533123
0.625619
0.625473
0.62586
0.431156
0.627949
0.42529
0.705692
0.715582
0.516909
0.715799
0.675554
0.291831
0.272958
0.632073
0.715799
0.715799
0.730201
0.727659
0.73026
0.208082
0.280935
0.208067
0.258881
0.282022
0.208082
0.208082
0.469483
0.359928
0.368627
0.763685
0.561326
0.0971803
0.694517
0.594302
0.28212
0.304393
0.834209
0.661453
0.834209
0.822654
0.831228
0.792634
0.834209
0.683611
0.551835
0.572525
0.00730619
0.00730799
0.00730206
0.00731182
0.00731193
0.00731193
0.00730909
0.00730187
0.00730187
0.00730187
0.00730187
0.00894993
0.00730676
0.00730202
0.0058794
0.0109971
0.0211659
0.00321312
0.00613478
0.00531583
0.00325122
0.0439351
0.0176108
0.0438235
0.00570404
0.00625201
0.0167613
0.0211278
0.00558547
0.00566783
0.00100806
0.0104549
0.0109116
0.330113
0.0486298
0.424659
0.0791807
0.0026566
0.00187673
0.00339882
0.00870728
0.00170584
0.00219109
0.0026733
0.00145358
0.00215036
0.000666492
0.0015081
0.00290599
0.000670776
0.00154051
0.00189893
0.0032274
0.00110763
0.00100547
0.000485173
0.0380483
0.113405
0.000504911
0.0771851
0.199388
0.199394
0.272253
0.108296
0.148459
0.0116057
0.028068
0.0109671
0.00626637
0.0114733
0.0541252
0.165475
0.0967749
0.163423
0.165503
0.165527
0.632272
0.420766
0.503555
0.345557
0.34555
0.588673
0.660175
0.652324
0.652328
0.652324
0.652328
0.516892
0.478971
0.652213
0.78064
0.780639
0.780625
0.454663
0.346
0.551745
0.215243
0.652328
0.211478
0.399598
0.781084
0.780639
0.379841
0.0755176
0.381321
0.553217
0.554164
0.213758
0.272331
0.532473
0.654447
0.595896
0.570864
0.148743
0.243816
0.734993
0.148743
0.148741
0.357778
0.513553
0.433457
0.545833
0.0703806
0.112982
0.0700527
0.383408
0.213589
0.376895
0.735119
0.734693
0.735447
0.735119
0.0636355
0.063636
0.063636
0.195385
0.0636333
0.063636
0.105192
0.688032
0.773964
0.283109
0.0834098
0.201988
0.504848
0.521563
5.65097e-05
0.000152457
8.43039e-07
0.000192332
0.000886597
8.43039e-07
1.23262e-06
2.94476e-07
6.52842e-08
6.56038e-08
1.9612e-07
1.54973e-07
4.41003e-07
6.54272e-08
0.000196127
3.93097e-05
2.83956e-06
6.57486e-06
1.67242e-05
1.68637e-05
6.69125e-06
1.97684e-05
1.97684e-05
1.36816e-05
6.57807e-06
2.06672e-05
6.99248e-06
-2.6755e-28
6.71451e-09
-9.13115e-43
8.95935e-09
2.15774e-12
2.75034e-28
2.01734e-10
1.09904e-05
6.43183e-09
2.37357e-06
-1.66966e-42
-1.30844e-42
1.29293e-14
1.84644e-13
0
-1.86989e-42
-6.48127e-50
-1.04464e-92
9.99584e-41
3.5463e-05
1.42357e-06
2.19915e-05
3.58735e-05
1.54877e-06
1.55677e-06
1.68133e-06
0.164443
0.722629
0.99999
0.99999
0.99999
0.99999
0.99999
0.00131745
0.0034289
0.00172453
0.000815744
0.000811473
0.000435109
0.0416936
0.00102758
0.0188836
4.09053e-05
0.000922653
0.000932856
0.191948
1.35406e-05
4.30512e-12
7.29948e-05
1.04338e-06
1.9748e-15
2.80581e-05
0.000237906
2.14591e-15
6.11229e-05
5.55216e-05
9.59535e-05
5.55061e-05
0.000159609
0.000151954
0.00052332
0.000575136
0.000598059
0.00106427
0.000123348
0.000379665
0.00106427
0.00106427
0.000172551
0.00070159
0.00070159
0.000162477
0.000351753
9.78397e-06
0.00024805
0.000123326
7.77967e-06
0.000774576
0.00142075
0.000742816
0.000948688
0.000875021
0.000669618
0.00033631
0.00157647
0.00197105
0.00157963
0.00315383
0.00302025
0.00307788
0.00303598
0.000384426
0.000126675
7.31638e-05
0.00011542
0.000116861
4.50328e-05
3.4304e-05
0.693691
0.701572
0.830675
0.912205
0.911996
0.235151
0.878421
0.357931
0.204468
0.0772401
0.0729247
0.206183
0.211646
0.0286551
0.678505
0.643846
0.678345
0.679125
0.617543
0.677142
0.574841
0.484222
0.682497
0.682497
0.682331
0.682331
0.60394
0.681155
0.68215
0.667796
0.682147
0.68191
0.650148
0.664666
0.650164
0.650122
0.681282
0.679951
0.680685
0.679754
0.681122
0.680685
0.444648
0.679096
0.681182
0.665468
0.681434
0.57402
0.573992
0.57402
0.57402
0.557931
0.344215
0.305728
0.0390473
0.0387344
0.0668133
0.107708
0.0389564
0.0686346
0.116095
0.57402
0.573828
0.265123
0.533201
0.491122
0.533025
0.0476345
0.133478
0.133453
0.0461466
0.0384524
0.0381529
0.00377612
0.448915
0.656535
0.449765
0.700155
0.691875
0.700714
0.700703
0.298677
0.507449
0.800321
0.800467
0.800578
0.80058
0.749594
0.131579
0.072191
0.190005
0.0435515
0.0385492
0.0403715
0.0158131
0.0102277
0.0152336
0.0278909
0.0380188
0.0100343
0.0306518
0.111315
0.899682
0.899772
0.89975
0.895809
0.899805
0.899759
0.899752
0.388823
0.811155
0.716076
0.811155
0.811155
0.811155
0.0185855
0.00467229
0.00430481
0.00998968
0.00429311
0.00315963
0.0026671
0.00265786
0.0046981
0.013988
0.00265823
0.00377936
0.0261135
0.0351793
0.0713537
0.146416
0.0445174
0.24482
0.605328
0.0297173
0.0926808
0.770181
0.252721
0.633668
0.76999
0.770618
0.770645
0.770618
0.812121
0.812143
0.812143
0.782241
0.811959
0.812121
0.81189
0.812117
0.781448
0.456713
0.0805261
0.203105
0.293814
0.0807136
0.082995
0.0810782
0.293921
0.149919
0.106477
0.00161185
0.115156
0.290049
0.0832416
0.00160736
0.0214784
0.0107653
0.143393
0.00153594
0.0282496
0.00153342
0.00611534
0.00661607
0.0282389
0.00772852
0.58051
0.0822528
0.184067
0.00774308
6.86311e-05
2.06124e-05
2.79552e-05
1.45425e-05
2.38349e-05
1.40343e-05
1.42641e-05
0.000312974
0.000374827
0.000335299
0.000374839
0.000374795
0.000374865
0.000374795
0.00057999
0.000679122
0.000679122
0.000100589
0.000250702
0.000363562
0.000151007
0.000594035
0.000140748
0.000482673
2.25623e-05
0.00052078
0.65646
0.659643
0.996278
0.804572
0.728805
0.151932
0.92033
1.16378e-05
1.2045e-05
1.19415e-05
3.87871e-07
0.00128865
8.57945e-05
2.55976e-05
2.82461e-07
1.39319e-06
2.84823e-07
0.000345031
6.25912e-05
9.17906e-05
4.97563e-05
2.55906e-10
6.75784e-29
1.32952e-09
3.51218e-06
3.85284e-06
4.23532e-06
1.46388e-05
3.33506e-05
2.44607e-05
0.000103358
9.2531e-13
1.96196e-06
5.56169e-05
3.66433e-07
3.81097e-07
2.29488e-06
3.90354e-06
2.85473e-05
6.30409e-06
-1.65903e-52
-3.52615e-55
-5.14949e-52
4.63351e-11
3.21738e-11
2.16213e-10
6.07489e-11
3.03662e-12
1.49352e-08
7.20506e-08
2.77883e-12
8.71418e-09
1.99674e-08
2.77502e-12
0.0028333
0.00214606
0.00246194
0.0021726
0.00270301
0.00306209
0.000883435
9.3349e-05
8.90178e-05
0.00279535
0.000468605
5.75345e-05
0.000544275
0.00192176
0.000829656
0.000895121
0.0175865
0.00283781
0.00069951
0.000836714
0.000895121
0.878599
0.876901
0.713732
0.107594
0.612808
0.636551
0.791496
0.782641
0.880786
0.183436
0.3684
0.185091
0.624276
0.688684
0.678536
0.52086
0.393488
0.294578
0.268145
0.267473
0.266768
0.321565
0.266758
0.387541
0.38912
0.59355
0.439478
0.439478
0.439478
0.439292
0.274033
0.269299
0.266789
0.672702
0.672631
0.672631
0.482572
0.673847
0.66447
0.680342
0.617543
0.639764
0.398663
0.565366
0.680415
0.680415
0.68073
0.680375
0.565995
0.650128
0.663948
0.650169
0.343652
0.314316
0.246848
0.49903
0.601867
0.595532
0.598028
0.0290255
0.0473447
0.0114537
0.0113859
0.0179374
0.0383243
0.0196169
0.103415
0.0811183
0.0773428
0.657369
0.57293
0.555593
0.554887
0.554883
0.701354
0.701269
0.7012
0.701354
0.685374
0.537806
0.685388
0.685377
0.685388
0.677698
0.685299
0.418654
0.59144
0.700464
0.422647
0.701045
0.538372
0.53072
0.558014
0.489783
0.441241
0.261905
0.0654719
0.698115
0.617855
0.698291
0.519622
0.507878
0.370194
0.710313
0.00730691
0.201102
0.359231
0.0953014
0.432119
0.617285
0.697703
0.899116
0.809208
0.305943
0.89639
0.899877
0.899878
0.899878
0.899878
0.899471
0.899878
0.899866
0.899856
0.899866
0.899856
0.899877
0.899829
0.895798
0.895827
0.895847
0.895854
0.895898
0.894178
0.664164
0.898603
0.89931
0.745903
0.58548
0.678737
0.584049
0.519284
0.551235
0.617
0.571101
0.617676
0.532525
0.744673
0.159027
0.525808
0.0628407
0.29401
0.118596
0.0120627
0.0607689
0.0204333
0.0204345
0.0153436
0.00157768
0.00570219
0.00610875
0.00849117
0.00393377
0.00201179
0.00177855
0.00100548
0.000975895
0.000949163
0.00110444
9.60603e-05
6.70113e-05
0.000138185
0.000381609
6.6565e-05
7.91641e-05
7.74028e-05
7.86373e-05
0.000140419
0.000326457
7.86373e-05
0.000108377
0.000680153
0.000258509
0.000125952
0.00012267
0.000897666
0.00012267
0.00012267
0.00129674
0.000122706
0.000974035
0.00159556
0.000650884
0.0119076
0.0020274
0.000462876
0.000476006
2.90529e-08
7.37631e-07
4.76893e-07
7.7084e-06
8.05994e-06
3.40682e-06
1.39092e-06
6.61843e-09
5.50966e-05
9.76025e-05
5.15728e-09
0.000196553
1.22605e-05
2.85233e-09
2.3778e-07
6.00801e-05
0.00026385
0.000111246
0.000264237
6.2551e-05
0.000204178
0.000108011
0.000377042
3.22632e-10
9.14082e-10
6.28679e-10
2.72439e-10
2.74325e-10
2.8544e-10
2.74325e-10
2.13565e-10
2.67319e-11
0
-8.63053e-30
-2.00564e-65
-8.29526e-33
-1.80346e-66
1.32948e-13
2.05367e-32
2.30394e-14
1.9762e-11
-1.61141e-85
3.23653e-12
0.000131449
0.000116716
0
5.87765e-05
1.42591e-05
2.33291e-06
0.00027928
7.61867e-05
2.4268e-05
6.67972e-08
6.73387e-08
6.73469e-08
6.74697e-08
1.36555e-05
7.73618e-05
1.77152e-06
4.94247e-06
3.29505e-06
3.74085e-06
1.73895e-06
7.4788e-06
1.92361e-06
0.00556839
0.0055956
0.00556839
0.00207141
0.00454827
0.00685739
0.00689588
0.0785131
0.342428
0.0765189
0.140986
0.0181965
0.161523
0.105742
0.25564
0.105892
0.105892
0.253731
0.307427
0.105892
0.124458
0.393203
0.393199
0.393203
0.393199
0.393218
0.49383
0.393267
0.495463
0.393199
0.600468
0.495162
0.475812
0.490407
0.671966
0.677414
0.647957
0.266981
0.439272
0.3097
0.0154574
0.0130209
0.0281104
0.0444698
0.0501989
0.204505
0.0785202
0.0299989
0.0785725
0.18033
0.0224648
0.0293258
0.0740439
0.200373
0.0862619
0.123605
0.149141
0.0154663
0.0160014
0.033885
0.0850284
0.544989
0.32535
0.55288
0.218414
0.016767
0.124153
0.157228
0.0286865
0.088369
0.0393502
0.0308221
0.179153
0.00767219
0.0515337
0.000339613
0.000339823
0.000339975
0.000339991
0.000545955
0.000339621
0.000339575
0.000346448
0.000346448
0.000346461
0.000440322
0.000346461
0.000346448
0.000673071
0.000340968
0.000344111
0.000341618
0.000341618
0.000341671
0.0199112
0.0199638
0.0239746
0.0660764
0.153756
0.0432953
0.0238589
0.255369
0.664244
0.676238
0.663955
0.621667
0.337794
0.6196
0.0594489
0.0603184
0.247738
0.265932
0.0895534
0.044831
0.22809
0.895957
0.895957
0.897271
0.882005
0.882132
0.882005
0.881912
0.882132
0.882132
0.882132
0.893692
0.894335
0.893692
0.893692
0.551653
0.8476
0.853883
0.872727
0.853226
0.857412
0.872736
0.857266
0.842421
0.874881
0.881932
0.535217
0.821905
0.703974
0.821852
0.821747
0.821698
0.821922
0.821923
0.763246
0.837528
0.762914
0.836396
0.837523
0.834487
0.771883
0.574987
0.811876
0.70862
0.799234
0.812729
0.574987
0.690127
0.838501
0.750674
0.838501
0.747984
0.75299
0.574987
0.74626
0.815523
0.70885
0.816551
0.734786
0.81665
0.81665
0.571262
0.535187
0.53479
0.816603
0.685532
0.816641
0.816639
0.63482
0.61739
4.69494e-09
1.59479e-08
1.18285e-09
1.18285e-09
1.18369e-09
2.81321e-08
1.18369e-09
6.68603e-09
6.6339e-09
6.68603e-09
6.7203e-09
6.68603e-09
7.55942e-09
7.19095e-09
7.81055e-06
1.8444e-05
4.23614e-05
7.69053e-06
7.67352e-06
7.77244e-06
7.58187e-06
5.26049e-05
0.000286455
0.000286277
1.13277e-05
9.50154e-05
8.1151e-05
1.09024e-05
1.09182e-05
3.01761e-05
1.68494e-05
0
-7.90177e-31
5.90022e-11
1.47416e-10
4.00119e-07
2.97171e-08
-4.79302e-29
1.63515e-09
1.64281e-09
6.60697e-08
-1.86192e-56
8.69291e-07
5.99103e-10
3.49742e-09
8.92137e-10
9.65872e-11
1.14192e-10
4.25902e-10
4.25659e-10
3.49637e-09
1.68725e-09
4.39546e-10
6.73238e-11
8.73889e-11
8.76705e-11
9.26938e-11
9.26938e-11
8.07386e-11
3.05665e-09
4.11608e-11
3.09107e-09
3.03813e-09
3.5106e-10
6.40095e-10
1.92392e-09
6.59538e-06
7.1601e-06
5.88598e-06
1.28845e-05
4.71985e-06
4.71985e-06
1.12872e-05
0.0683716
0.048781
0.0683715
0.0150804
0.0335624
0.0257514
0.17962
0.105995
0.179793
0.112157
0.00952187
0.172201
0.152828
0.0357727
0.67971
0.303635
0.606599
0.481121
0.547765
0.48174
0.788884
0.648202
0.78743
0.789321
0.476728
0.476728
0.477332
0.67662
0.491251
0.707582
0.706634
0.0252859
0.174726
0.358252
0.307907
0.098612
0.108932
0.104584
0.400418
0.21424
0.116233
0.265157
0.205371
0.0701491
0.0183019
0.0299338
0.0173017
0.0510888
0.0510568
0.0510008
0.023324
0.0486619
0.0257937
0.0575499
0.283094
0.43514
0.0645607
0.279982
0.277366
0.00765601
0.00694874
0.00760708
0.00646581
0.00471853
0.00445295
0.00437659
0.00548865
0.00547027
0.00540628
0.00535822
0.00521741
0.00535822
0.005597
0.00695223
0.00554428
0.00837102
0.00432435
0.00430003
0.00430199
0.0083994
0.00587751
0.0118143
0.0378167
0.0120235
0.00586928
0.0517726
0.10959
0.050781
0.0773849
0.0509631
0.0953152
0.113847
0.00713098
0.0288013
0.465827
0.64523
0.382484
0.380386
0.528315
0.661911
0.661927
0.661911
0.654307
0.00969959
0.0016825
0.00444687
0.00575614
0.0059457
0.00178247
0.00179288
0.00497134
0.0170503
0.0125908
0.0264441
0.0393319
0.0367723
0.0181943
0.00139907
0.00165363
0.000795883
0.00159921
0.000749261
0.000756272
0.00510628
0.00389927
0.00413861
0.00397294
0.00840561
0.00575319
0.0182684
0.0950661
0.0052632
0.00633441
0.196107
0.554369
0.34257
0.237509
0.20209
0.11266
0.373138
0.783909
0.518681
0.476305
0.831279
0.0936786
0.854609
0.861339
0.874271
0.835793
0.835906
0.835954
0.821718
0.837488
0.835896
0.835881
0.857077
0.85722
0.857077
0.857077
0.838177
0.444652
0.835768
0.835873
0.671906
0.623852
0.623852
0.623989
0.459417
0.62478
0.623579
0.623983
0.164147
0.163482
0.163666
0.58453
0.819745
0.493786
0.825959
0.503295
0.548604
0.573108
0.548447
0.7064
0.706407
0.7064
0.706405
0.360606
0.278695
0.205124
0.201476
0.218762
0.192826
0.192747
0.604587
0.348725
0.601463
0.437524
0.35157
0.418238
0.458046
0.552929
0.415389
0.147107
0.517787
0.517771
0.121435
0.517771
0.249425
0.243081
0.130543
0.517117
0.229065
0.454597
0.532942
0.229217
0.229065
0.379478
0.229495
0.795554
0.473089
0.196366
0.196391
0.212401
0.196366
0.196366
0.633731
0.380728
0.635094
0.524557
0.227605
0.224791
0.420606
0.171913
0.383793
0.481054
0.48178
0.172599
0.171913
0.171913
0.323923
0.247628
0.506721
0.171981
0.171981
0.172045
0.171986
0.838237
0.611496
0.830967
0.587311
0.437364
0.451945
0.437364
0.628076
0.812381
0.653405
0.434549
0.624027
0.832773
0.803148
0.838312
0.838405
0.815257
0.838405
0.838312
0.838261
0.838402
0.803148
0.838439
0.838492
0.171996
0.172288
0.300978
0.221862
0.191812
0.172404
0.820688
0.785094
0.599406
0.801864
0.38347
0.264192
0.289999
0.469045
0.802637
0.802663
0.778054
0.802637
0.686227
0.802659
0.665014
0.696855
0.550346
0.546443
0.541705
0.762452
0.827871
0.564548
0.534646
0.534649
0.535428
0.58002
0.573497
0.78448
0.725736
0.5729
0.573851
0.7863
0.573308
0.743878
0.82761
0.8282
0.827973
0.678532
0.703859