/*--------------------------------*- C++ -*----------------------------------*\
| =========                 |                                                 |
| \\      /  F ield         | OpenFOAM: The Open Source CFD Toolbox           |
|  \\    /   O peration     | Version:  v2012                                 |
|   \\  /    A nd           | Website:  www.openfoam.com                      |
|    \\/     M anipulation  |                                                 |
\*---------------------------------------------------------------------------*/
FoamFile
{
    version     2.0;
    format      ascii;
    class       volScalarField;
    location    "0.6";
    object      p;
}
// * * * * * * * * * * * * * * * * * * * * * * * * * * * * * * * * * * * * * //

dimensions      [1 -1 -2 0 0 0 0];


internalField   nonuniform List<scalar> 
6576
(
-407.886
-432.187
-397.949
-406.81
-415.001
-394.046
-393.633
-382.273
-402.409
-400.249
-397.83
-389.927
-377.633
-392.586
-305.549
-321.701
-358.422
-351.95
-325.09
-316.667
-360.586
-386.756
-394.72
-465.951
-296.992
-254.002
-182.966
-435.493
-438.189
-433.924
-426.86
-415.371
-377.428
-277.825
-257.703
-275.462
-303.807
-301.348
-292.073
-296.915
-332.938
-379.049
-327.589
1354.7
938.749
2381.35
1518.28
1413.06
1855.99
1337.92
1347.05
1511.26
-2.97289
-2.94368
-2.95826
-3.0265
-2.41534
-1.88163
-2.83859
-2.9404
-2.91463
-2.91976
-2.90317
-2.91018
-3.00411
-2.91937
-2.6945
-2.73722
-2.75395
-2.79201
-2.74795
-2.82386
-2.76564
11.2173
10.706
10.9613
11.0164
10.7729
9.49697
10.3689
12.244
12.3919
12.0994
12.8329
12.3254
12.2582
12.1352
205.518
175.261
148.444
148.128
100.764
175.072
170.299
209.636
287.908
271.205
247.052
247.999
264.15
295.585
805.409
1098.95
837.003
857.079
862.692
717.938
851.589
1809.24
1764.55
1789.93
1713.42
1781.46
1979.47
-2.59247
-2.79786
-2.20231
-2.37064
-2.37578
-1.8678
-2.34689
-9.74437
-134.334
-208.247
-82.9524
-47.7483
-25.4861
36.6402
-2.65191
-3.1171
-3.69884
-5.80533
-3.32509
-6.91064
-4.34422
7.45162
8.24215
7.26969
6.08393
7.61288
9.30012
7.42845
3.06255
2.51042
4.33917
4.09661
4.16103
4.66868
4.01617
7.7824
10.4082
6.85416
5.94181
8.63523
12.9599
7.81305
18.6891
17.3894
17.4662
16.9446
16.521
15.2289
16.6347
15.3889
16.9496
16.1824
16.14
15.5863
15.136
16.5963
15.0214
15.7707
12.1938
10.4965
10.2292
13.2987
11.6795
8.42954
8.37558
8.98269
9.88662
7.70367
7.95897
9.83307
9.19655
9.27095
10.9396
12.3842
11.896
10.8823
6.19875
5.62279
4.50234
6.03715
6.53337
6.05183
8.16491
8.40102
6.68687
7.70672
8.90628
12.6163
8.90053
7.92584
4.9978
3.98913
5.33045
6.72045
4.26103
3.319
6.2352
7.03409
11.1318
5.94713
7.07397
4.12825
6.37256
8.07319
-1.14475
-1.26331
-0.805531
-0.440605
-1.39149
-1.00006
-0.358055
0.837336
0.190512
1.1529
0.811887
1.4051
1.76875
1.59177
5.86747
5.64726
5.13935
4.67625
5.5641
4.8506
4.70547
7.82059
6.5889
7.1416
6.34362
5.35369
7.73158
7.13222
11.9013
15.9418
13.2867
8.83244
9.99462
9.67959
10.7347
14.0688
12.2862
21.0315
13.7779
36.0377
17.5931
14.2774
10.9227
16.2551
-60.0747
-55.0313
-93.754
-56.0965
-38.2009
-54.8981
-85.261
902.463
858.567
801.348
883.634
817.696
714.732
700.507
754.523
775.878
671.963
701.741
748.105
622.224
583.446
619.967
553.304
274.84
306.436
378.213
348.974
410.065
350.808
264.081
352.883
326.935
712.905
658.942
698.771
432.107
443.908
408.826
497.252
422.378
401.073
447.339
-94.7865
-14.5522
-81.2495
-67.7842
-177.629
-209.098
-128.274
8.45136
-0.622279
-0.206522
2.3405
0.77937
1.31995
1.36112
1.03066
1.17132
13.1895
13.1667
13.5368
11.1599
13.1024
11.899
12.3448
163.552
134.548
269.209
0.969211
125.599
141.834
87.2906
271.721
224.275
150.575
181.875
109.535
237.081
194.005
228.7
307.907
496.33
530.309
487.638
483.1
529.636
415.639
452.555
477.826
441.958
870.871
938.259
874.475
884.553
979.083
831.081
988.727
891.704
921.84
959.044
968.039
899.522
727.367
884.183
850.504
822.203
633.603
514.228
588.589
615.701
696.214
577.89
669.132
275.436
185.122
229.813
215.742
300.552
163.781
265.281
18.8418
19.2094
18.9112
18.8924
19.7923
19.3616
19.7771
19.3238
19.4141
11.3291
9.60177
9.85476
7.82186
9.4086
10.3565
13.1098
3.62849
3.9775
3.93921
3.81829
4.03415
3.82763
3.92438
3.85502
3.67406
16.0271
12.2434
13.2572
17.7528
16.2624
10.5389
14.3609
34.2237
14.9193
-5.91303
50.0181
13.1354
22.97
26.7121
13.5076
12.3516
12.8274
14.0151
14.6559
12.834
13.4213
16.1081
15.1747
16.6723
16.5017
16.8105
16.9944
17.2155
16.9623
15.9313
16.7884
18.6502
15.1731
15.9607
17.2434
-33.3652
-14.5055
-13.6462
-30.7647
-30.6723
-2.90036
9.07194
-11.3059
-4.71983
-35.903
-55.3659
-26.5867
-45.1714
-32.2998
-72.5234
-44.6892
-176.27
-64.2169
-131.171
-108.109
-224.384
-61.1124
-121.26
-137.049
-127.583
-174.314
-127.731
-92.6576
-85.7802
-114.861
-599.864
-544.213
-489.22
-555.729
-832.731
-575.739
-478.272
-319.505
-290.092
-362.353
-336.069
-396.598
-425.121
-344.909
-1044.52
-588.216
-639.378
-269.116
-277.3
-181.817
-1252.96
-824.371
-833.558
-1027.28
-1269.32
-616.031
-579.746
-869.672
-968.686
-1223.93
-628.15
-718.012
-689.531
-990.034
-1145.57
-1473.74
-810.769
-155.37
-209.234
-416.627
-299.999
-27.165
-346.047
-52.1526
-120.865
-439.828
-267.11
-277.263
-196.328
-23.1933
-54.1482
-102.087
-20.4413
-18.6728
-328.79
-3.62159
-9.07783
-3.46525
-3.89304
-5.47965
-3.56878
-3.14977
11.0366
8.07418
4.93583
7.74447
3.86847
5.83446
1.12788
-4.68256
7.20213
12.5984
13.4723
10.7417
6.86752
8.0836
10.3952
9.49954
5.4978
4.26474
5.51816
4.96543
4.20658
3.1643
5.15224
8.41161
7.92632
9.5614
6.47631
6.21466
7.17461
6.67103
11.2636
13.4578
11.287
9.45004
11.3401
9.69548
9.22806
8.82362
8.71857
8.1909
8.89125
8.88716
7.34281
5.84092
6.10191
7.46
6.20814
6.655
7.79873
9.81826
10.1026
10.9519
13.3018
11.2707
11.8356
12.6626
0.337422
0.489256
-0.139781
0.931033
0.694861
0.291755
0.708566
0.46382
0.329417
1.33109
4.27372
2.92101
3.18203
3.20072
1.19034
2.15708
4.6705
5.36508
5.58965
6.41976
5.20345
7.48673
7.05801
-284.165
-297.596
-287.315
-291.481
-297.417
-300.356
-285.697
-304.607
-305.71
-304.038
-304.3
-305.187
-305.301
-304.044
-344.533
-341.931
-335.615
-338.416
-336.722
-341.867
-341.038
-273.146
-279.953
-259.524
-273.13
-261.884
-278.294
-268.99
-264.338
-259.486
-258.669
-262.17
-265.492
-257.611
-259.833
-252.135
-258.478
-261.918
-253.101
-133.672
-193.264
-84.1048
-184.032
-216.565
-223.021
-301.781
-159.444
-139.072
-150.965
-167.343
-170.793
-215.9
-73.8343
-305.314
-196.995
-215.48
-219.784
-206.78
-150.253
-173.678
-161.058
-293.001
187.72
132.689
295.51
94.533
-144.838
54.3229
402.008
414.64
435.509
365.981
347.684
401.987
224.321
265.434
391.855
322.347
354.647
267.279
421.946
418.392
377.983
384.905
370.085
425.917
547.504
474.734
374.657
459.005
500.689
437.994
506.743
559.803
505.647
494.585
518.617
521.202
467.088
436.997
690.801
638.181
631.544
664.14
550.185
634.276
706.241
959.666
924.51
979.014
299.819
694.07
659.089
635.603
655.758
668.364
484.77
911.475
793.341
787.75
847.317
928.722
772.049
665.393
910.689
799.291
1030.46
928.051
899.841
39.1502
232.918
22.5579
235.887
222.121
175.558
159.759
238.673
210.213
687.536
567.312
718.739
733.25
669.008
655.916
581.173
904.778
668.934
658.262
127.734
62.6445
7.97456
259.623
112.352
48.1303
110.891
475.393
168.624
300.006
205.433
176.23
42.1724
270.651
46.6977
76.8364
29.8192
92.1637
188.886
223.844
131.05
-1.40652
-111
-43.1094
-41.3339
-54.7143
-60.8441
1.26507
-73.8828
-106.118
-64.8743
-54.2228
-84.2801
-60.2619
-66.9746
-236.048
-266.924
-270.359
-334.661
-357.139
-295.742
-286.984
-137.298
-83.9381
-47.9931
-52.7293
-88.4894
-57.6051
-41.0565
17.6027
25.9625
9.40252
44.1658
10.8198
33.5358
14.8904
8.49464
17.9816
24.4193
17.1027
36.5303
28.599
34.4214
45.8009
33.295
30.2471
24.6388
11.8937
10.3936
21.7693
10.2268
11.6892
5.17606
18.1298
5.31244
9.20248
3.54667
18.4464
8.6313
5.0703
9.19642
9.74914
11.7074
8.88829
8.97685
9.28814
8.28241
9.18985
14.4405
16.1954
16.3018
17.883
16.4564
-9.15281
-8.66545
-2.83831
-4.03691
-21.8751
-6.8764
-5.04156
-1.8687
3.82217
-2.04729
11.217
2.25585
4.53967
10.3048
-21.5531
-32.6684
-14.7066
-21.4482
-16.3705
-8.92765
-8.82101
25.654
75.8033
-17.2189
-12.8504
5.05698
-61.2455
-37.295
-8.45503
-15.1892
-50.6869
-39.5458
0.0765098
9.63717
-7.44502
-23.8987
7.61735
41.0994
-8.04925
64.0136
-33.8146
-26.889
40.0174
55.7826
4.88222
0.936409
-40.1305
-26.4613
-10.5164
-75.9611
-36.0044
-29.9478
-42.0103
-31.7737
-25.0581
-57.3997
-98.7241
-63.0574
-154.561
-63.5715
-71.3695
-35.9583
-151.566
-96.066
-66.5768
-106.757
-225.53
-129.858
-108.199
-321.513
-116.421
-154.174
-359.862
12.5434
7.65246
-2.21424
-1.74495
-18.8829
-14.8719
-3.45843
-5.40957
-12.0056
-6.57731
-3.09784
-2.93133
-3.00003
-3.22007
-3.31533
-3.35802
-3.21015
-3.2631
-3.18117
-2.98245
-3.44106
-3.21588
-3.24942
-3.51943
-3.10177
-3.46969
-3.59798
-3.70672
-3.90905
-3.18858
-3.14512
-3.00685
-4.04297
-3.58807
-3.48075
-4.49328
-9.02134
-5.431
-6.33298
-9.53482
-7.02153
-5.81859
-7.04007
-3.1277
-2.39318
-3.1817
-3.41915
-4.15702
-4.12488
-3.34011
-3.23655
-3.87559
3.18776
3.04194
3.89345
1.56013
3.60162
4.21136
2.96423
4.30727
3.64038
3.35975
5.06133
2.83364
3.99408
1.91678
11.7072
9.00897
12.2778
10.7221
9.78633
10.6127
14.4208
13.0231
10.3313
11.7304
13.7855
13.9945
14.4713
14.3312
12.7512
15.7645
13.1274
15.2613
12.9464
13.5421
14.3192
-1.32682
-1.35307
-1.25544
-1.33494
-1.35615
-1.23748
-1.21651
-1.24257
-1.30784
-173.771
-129.496
-55.852
-234.988
-155.635
-155.495
-167.332
-286.699
-291.646
-230.729
-196.491
-283.343
-290.059
-296.757
-279.806
-302.221
-291.271
-289.861
-297.009
-294.818
-298.881
-297.032
-293.937
-308.926
-307.319
-307.272
-309.499
-308.732
-308.403
-310.32
-333.299
-293.651
-262.592
-338.601
-335.105
-225.399
-275.006
-308.776
-306.834
-329.519
-244.587
-327.939
-383.775
-342.565
-329.039
-300.525
-352.02
-281.01
-280.532
-236.222
-323.765
-299.871
-384.953
-393.992
-275.959
-327.451
-278.09
-262.281
-287.685
-323.854
-474.771
-279.037
-313.53
-90.7811
-187.899
-184.951
-6.33422
-110.783
-25.9002
119.887
32.6168
136.712
147.335
205.825
160.409
129.003
568.167
159.423
308.766
134.48
88.3382
157.097
31.3114
-43.2051
-27.2731
47.8752
277.068
149.141
162.646
-100.754
-47.5553
-98.9222
-75.0151
-31.1345
-55.2304
93.1897
77.9778
-43.0953
-0.688846
85.9237
61.0789
85.1998
121.517
97.887
78.7842
149.839
62.0282
40.3438
40.5974
69.1696
5.62588
10.9019
-10.39
4.17252
-5.65392
-29.4046
8.39695
-1.80338
-21.7362
17.7051
-1.90609
6.40158
8.53883
11.3041
6.92077
15.1125
4.60171
39.2268
50.5362
21.6198
50.6706
10.3614
1.59514
-4.49062
24.2109
41.7574
18.4208
29.8618
29.9603
17.7204
7.89917
21.2891
26.1376
-2.5508
0.887445
15.1274
26.3492
42.0522
-69.2179
40.5162
12.3848
10.5746
43.7891
-37.9572
12.4972
13.2212
11.6863
11.5183
11.1854
11.1247
11.7781
11.4923
11.1212
11.6402
11.9354
11.8006
11.9347
11.8185
11.8375
12.1163
11.8275
10.8518
10.9214
11.3042
11.4325
6.62326
7.33725
6.46441
5.37594
5.65443
6.65635
6.23917
-34.964
-9.78185
-17.4377
-51.3164
-37.8893
-11.322
-39.6734
-89.1318
-93.014
-39.8499
-58.4735
-53.3027
-78.1545
-57.3574
-27.7342
-44.7009
-46.2976
-25.7221
-23.4582
-26.4777
-21.281
-23.1459
-15.4265
-21.4346
-19.2414
-17.0658
-22.6984
-27.5629
-33.6492
-38.5829
-36.1463
-30.5418
-30.4787
-24.6452
-30.6872
-26.143
-25.0621
-94.5983
-6.27838
-57.4232
-81.7351
-70.2059
-56.0338
-52.4294
5.0583
-24.589
-25.9508
-44.9813
-59.7598
-12.4358
-30.6327
-0.662711
80.2833
47.5855
-24.2792
-62.8662
-66.8631
-28.6682
-79.8112
-42.9489
-107.337
-5.56728
-59.8183
3.16942
-31.6223
-37.5199
14.0831
-22.4902
60.6598
20.096
21.4285
67.9887
-12.4797
-57.3472
-19.3354
-8.78853
-2.65378
-7.7842
-17.9865
-13.1848
-17.9582
-33.6578
-14.2848
-29.5394
-16.9504
-1.51525
-22.8814
-6.43102
-5.16823
-24.4478
-22.4628
-21.5919
-31.855
39.4087
-2.63689
-43.0417
20.4663
13.4758
24.623
20.9228
5.7117
16.5498
2.98918
18.159
17.9744
12.9676
3.00243
-8.69653
-34.2725
4.91445
4.29974
12.0362
-5.35427
-6.21522
-5.79372
-5.15563
-6.187
-4.87557
-5.95547
6.31668
2.89035
5.77392
1.6728
3.82206
3.82286
6.73863
-6.13845
-4.71656
-5.05159
-5.75612
-4.50398
-4.29939
-4.84415
-3.6747
-3.68298
-3.55298
-4.7402
-8.70676
-6.1298
-3.5849
-5.86084
-5.14338
-3.70869
-4.99189
-11.2356
-4.01092
-5.65882
-5.03575
-4.71931
-4.88885
-4.64147
-4.35426
-4.56551
-6.50364
-5.64193
-6.27241
-4.89576
-5.11037
-5.18813
-4.74598
-6.42865
-5.30987
-4.75433
-3.57166
-3.47388
-3.13745
-3.94001
-3.88287
-3.79079
-3.65984
-4.36046
-3.98156
-3.89634
-4.1088
-3.98739
-3.78337
-4.11471
-3.27582
-3.54592
-3.21154
-3.03651
-3.30764
-3.29068
-2.94048
-3.28936
-3.58616
-3.20721
-4.21238
-3.11493
-3.85617
-3.62317
-1.80017
-1.97908
-1.91362
-1.80526
-1.77066
-1.85918
-1.87663
-2.05574
-1.94585
-1.95093
-1.90812
-1.88083
-1.89113
-1.83141
-1.91284
-1.78644
-1.70189
-1.82151
-1.83361
-1.81702
-1.75102
-0.745847
-0.894795
-1.07868
-0.415142
-0.969452
-0.272246
-0.855645
-0.877156
-0.549496
-0.745249
-1.56617
-1.37154
-0.672993
-1.65848
-1.89112
-1.4326
-0.611626
0.403623
-2.18894
1.40889
1.44862
0.475249
-0.149806
-0.751777
-2.94185
-0.627034
-7.42046
-2.15983
0.938237
1.13329
-1.70106
0.316491
3.65951
-3.59196
-9.59354
-43.4979
-16.0898
-32.8128
-8.88234
-8.8522
-13.4477
-154.806
-126.014
-90.2499
-164.195
-132.004
-194.053
-146.485
-287.352
-306.991
-306.056
-268.764
-269.317
-287.332
-282.268
-248.8
-255.604
-209.636
-279.756
-247.555
-237.558
-265.124
-337.228
-337.342
-348.082
-342.642
-345.234
-346.648
-355.613
-338.73
-341.637
-334.949
-363.328
-361.002
-339.191
-328.495
-281.937
-326.774
-291.058
-282.276
-293.433
-270.715
-296.127
-389.24
-317.634
-404.359
-302.6
-314.058
-307.863
-299.087
-245.535
-285.001
-260.292
-370.012
-279.185
-277.063
-363.966
-259.007
-291.672
-220.747
-349.58
-347.431
-268.944
-330.587
-338.985
-345.395
-349.022
-416.73
-413.029
-349.44
-361.462
-330.511
-307.603
-414.692
-269.469
-199.764
-159.038
-160.194
-133.884
-147.365
-228.204
-192.137
-140.283
64.3541
41.0505
6.78301
34.0471
17.3814
12.7708
105.121
103.024
63.6267
27.7448
88.8747
184.259
239.774
162.731
131.41
210.825
323.256
116.829
116.573
117.009
35.657
28.8144
26.5076
38.2162
48.2738
37.1993
28.2173
15.916
18.0589
19.3593
21.092
16.0567
17.435
19.0823
20.6043
18.6553
20.4821
15.667
16.3487
17.4648
17.3454
57.6162
38.6577
40.886
37.5956
36.2497
24.7509
18.9767
35.918
33.2559
8.70259
6.21866
13.5125
4.15787
11.2311
5.06572
41.9842
10.7268
13.7197
14.6866
16.3987
14.8669
16.4233
15.4227
15.3325
15.9322
13.1743
13.0003
13.5166
13.4616
13.0702
13.9124
14.0043
13.3299
13.7869
13.7873
13.705
14.6314
13.8757
10.5545
16.283
16.5626
54.9296
58.2836
54.3022
44.0652
53.5023
51.6221
57.3656
48.3849
35.4381
42.8061
26.1962
33.8372
39.202
46.2021
3.59966
120.862
60.5549
145.413
61.1862
29.9071
23.2212
-18.9808
25.6542
-24.5541
56.0254
38.082
25.3744
-4.77422
62.785
127.83
113.954
25.8289
29.6784
-3.47813
49.5684
48.3187
32.7913
2.94742
60.3239
45.0754
34.2562
40.702
45.1414
22.2531
19.9252
26.3617
12.5312
-36.1534
-48.5473
10.6666
-28.3135
-1.42775
-22.6984
-18.4448
-25.6185
-24.8603
-11.9637
-24.7878
-21.9363
-36.1793
-26.8306
-12.869
-9.54424
13.7773
3.06776
12.3392
-1.82282
-2.83389
-2.50194
-3.91704
-16.9309
-18.0049
-13.9576
-12.3283
-6.89841
-9.94342
-20.9376
25.9042
42.9848
23.6462
7.94158
14.3697
4.84327
12.5476
14.7619
14.3632
13.9146
14.655
13.9071
13.6231
13.2838
-1.51713
-1.80251
-0.953089
-1.7081
-1.63409
-2.49923
-2.50322
-4.38915
-3.96464
-3.936
-3.561
-3.13479
-3.34832
-4.04906
-3.40163
-3.37055
-3.7862
-3.58253
-3.07023
-3.98261
-2.82214
-2.98491
-2.93465
-2.96294
-2.9141
-2.96464
-3.02032
-2.85434
-2.91581
-2.90478
-2.93848
-3.91039
-2.8469
-2.94742
-2.97406
-3.08865
-3.78778
-2.67639
-1.70021
8.29658
9.22403
10.508
9.31334
9.74662
10.0622
10.5402
7.81291
-15.5672
-77.6473
-51.6481
7.91484
19.3326
56.2801
-3.50777
-3.47718
3.47023
-3.9449
-4.02091
2.15535
-2.68419
-1.20067
-4.1528
-2.87196
-1.66545
-0.953529
2.26829
-2.09524
-1.07689
-1.38026
-1.56272
-1.94135
-1.77705
-1.07225
-1.38423
-2.41166
-1.27074
-1.76893
-1.18782
-0.626631
-1.67333
-1.94069
-1.54658
-1.27031
-1.4947
-1.59975
-1.40637
-1.4131
-1.62032
-1.61432
-1.60691
-1.5893
-1.26321
-1.35602
-1.40508
-1.42518
-1.41185
-1.60257
0.449635
0.508286
0.000314655
-0.302866
-0.405211
-0.0513083
-0.0354918
0.799101
1.47392
1.03652
0.965224
1.33083
0.809096
1.3671
2.56069
2.53864
2.48425
2.52912
2.53409
2.60098
2.61991
-14.1133
10.1703
-47.7931
2.66371
12.7784
-20.5174
-62.0343
-186.459
-184.149
-193.172
-195.907
-189.868
-196.009
-192.373
-221.348
-318.21
-193.89
-272.535
-277.14
-49.73
-174.344
-245.574
-221.826
-221.207
-268.255
-194.912
-246.7
-225.643
-225.84
-198.595
-156.833
-225.4
-200.428
-218.871
-208.044
-195.364
-210.255
-352.298
-305.39
-341.318
-304.89
-264.728
-372.466
-309.968
-287.767
-352.623
-314.849
-247.768
-198.961
-276.921
-289.507
-259.391
-403.504
-303.388
-298.475
-298.102
-324.293
-286.802
-296.468
-285.992
-304.628
-182.185
-310.007
-228.101
-342.008
-340.251
-299.75
-306.299
-288.511
-322.265
-311.42
-304.239
-311.709
-320.547
-81.5643
-55.0584
-69.7817
-104.887
-142.393
-64.0955
-78.145
-5.6238
-20.8802
21.4924
34.3223
-3.86307
55.5392
21.1882
25.546
27.9751
56.7283
28.4002
5.79853
14.7072
26.6186
17.1778
18.0225
20.2631
16.2428
4.37955
14.608
26.1844
1460.94
654.456
1717
534.017
865.197
745.061
1300.6
-87.4867
-499.77
-72.7713
-295.175
161.191
67.2181
55.1986
58.3471
56.2343
57.1882
59.5903
55.4012
56.6605
56.8999
52.6607
62.7247
55.5761
57.3983
61.7049
65.877
90.0906
153.528
81.3084
161.771
107.47
90.9366
101.349
268.584
220.307
139.285
244.493
273.237
231.201
201.654
81.481
180.199
148.507
163.84
149.876
157.226
127.946
177.786
71.5876
136.344
82.8162
31.438
47.1774
76.1578
90.172
32.9461
45.221
59.4311
56.0643
54.8193
62.3399
55.4459
55.9807
55.2751
55.6712
58.8841
62.8692
60.0857
54.7267
58.9052
59.3859
55.4725
49.1664
51.2701
65.5317
55.8522
53.4185
52.0153
3.76763
3.7567
3.18066
4.36569
4.12565
3.49038
4.10321
5.51538
5.81307
7.48221
5.79813
6.47091
7.95245
6.97142
15.1416
13.9657
17.1801
13.6839
11.6779
10.4806
11.2707
12.2638
10.1858
9.885
9.92622
10.045
90.2499
-2.66395
38.0136
41.9575
-10.7613
-9.72987
8.81208
-2.67204
-2.17431
-2.66421
-2.63565
-3.40503
-2.90304
-2.43468
-2.21852
-2.12807
-1.97737
-1.82645
-1.83988
-2.10154
-2.14069
-1.48677
-2.3602
-1.99965
-2.87755
-3.13322
-3.04272
-2.85808
-2.9942
-2.69435
-2.96495
-2.79265
-2.95629
-2.87324
-2.59081
-2.53822
-2.92833
-2.46542
-2.59476
-2.51655
-2.71359
-2.90201
-2.82039
-2.75555
-2.72824
-2.69336
-2.67087
-2.26059
-2.12313
-2.50611
-2.31721
-2.3583
-2.61793
-2.51453
0.933644
0.611996
0.224338
0.705412
0.132072
0.556274
1.36983
2.16225
2.25615
2.74043
2.83526
2.14793
2.44803
3.02008
6.96919
6.15614
6.27879
5.07799
4.13504
5.56157
5.93647
9.68009
-26.4466
-7.26606
32.0754
11.5741
7.19442
4.81237
-24.8485
-6.8827
-10.952
-11.9847
-42.278
-32.901
-43.1092
-55.8337
-72.2695
-65.5001
-123.052
-60.7538
-103.069
-79.419
-129.895
-84.7892
-90.4605
-223.787
-183.557
-134.493
-115.495
-143.031
-21.5808
-83.6397
31.6175
-74.2204
-94.2025
-78.1335
-148.566
-25.7707
-8.07504
-168.556
-313.63
-355.844
-148.97
-204.149
-124.275
-238.821
-285.041
-248.56
-277.236
-207.453
-228.255
-194.455
-271.649
-303.955
-222.364
-232.942
-245.243
-246.571
-239.834
-210.165
-309.494
-314.353
-308.829
-309.866
-310.449
-311.291
-312.989
31.3048
43.0374
25.4669
59.6147
23.6537
-44.8506
-19.4
-1.69638
-0.887027
5.75219
-9.28296
-23.5292
35.0217
29.7257
30.99
23.1777
32.3618
24.0872
30.3742
24.1231
-7.96942
-0.0628638
38.1001
25.8795
23.3229
30.4967
28.829
36.8314
30.3103
23.6039
27.548
32.4949
11.8995
37.9399
19.7673
32.4307
8.6314
20.049
23.3204
-5.8481
57.6303
19.4397
15.5404
17.9053
17.5878
636.645
-71.1149
494.351
2392.68
938.028
2069.35
2198.92
2194.55
2633.93
2004.82
2213.87
660.91
2649.37
1804.12
2152.86
2299.88
845.182
392.139
530.893
457.32
445.899
91.9756
355.876
199.854
3152.32
1977.86
175.704
370.556
356.393
324.723
357.302
208.217
246.174
137.881
195.644
380.519
114.528
96.3066
57.6727
76.2451
65.6697
47.4072
38.3902
31.3968
30.6752
33.7372
29.4903
29.1527
29.1925
29.4222
31.7382
31.3937
30.5082
31.764
33.0926
31.436
30.7751
9.33644
9.67192
8.80655
10.0129
9.75119
9.26924
9.67142
9.09669
8.31451
9.56312
10.4519
9.50282
10.9973
10.3369
13.4874
14.5331
12.2558
15.1295
14.2168
13.5851
14.9256
10.9534
9.66192
10.8538
9.2144
9.34144
10.3412
8.03366
-1.81055
-1.86012
-1.95115
-1.78868
-1.95994
-1.98525
-1.81699
-1.7834
-1.85129
-1.75091
-1.76072
-1.79462
-1.67764
-1.68885
-1.74433
-1.71358
-2.02136
-2.08583
-2.00968
-2.05732
-2.04408
-2.18506
-2.27804
-2.35652
-2.16653
-2.13489
-2.18078
-2.01575
-2.09993
-2.2344
-2.64869
-2.58116
-2.60619
-2.79895
-2.90988
-2.85111
-2.94984
-2.8619
-2.91717
-2.82735
-2.76717
-2.90284
-2.84115
-2.97813
-3.01979
-2.97365
-3.00832
-3.01535
-3.08382
-3.03614
-3.20891
-3.17148
-3.25094
-3.16265
-3.05589
-3.02905
-2.35921
-2.48804
-2.41056
-2.38359
-2.4061
-2.22169
-2.44841
-2.29028
-2.40568
-2.70819
-1.64659
-1.72234
-1.27134
-2.88208
-2.97649
-3.15603
-41.2381
25.6835
-22.5084
59.342
5.07683
28.6554
-14.1894
118.55
77.3096
83.8532
66.4693
81.6143
71.4686
69.2598
165.327
116.033
119.522
174.886
161.384
129.532
183.568
195.797
155.79
175.849
-11.6326
70.2783
15.0181
-48.1798
-11.5351
135.914
-84.1585
-76.2749
-109.805
-194.09
-196.31
-193.75
-192.733
-192.609
-201.403
-208.999
-292.093
-295.307
-287.176
-293.307
-292.356
-292.553
-278.007
-294.877
-290.025
-297.379
-294.568
-290.992
-295.414
-300.088
11.5618
-30.4096
-62.353
-0.608624
15.5699
4.13538
-6.8846
11.5712
2.73804
2.33133
11.3888
3.71204
11.5448
8.26662
19.3339
18.3989
19.3234
17.8773
18.1919
18.7517
18.8226
19.4609
19.5415
19.1227
19.3743
19.3848
19.2917
19.3852
19.4227
20.2346
19.7622
19.9195
19.4541
24.4077
20.5721
16.0627
18.9328
21.9553
20.4372
19.7559
24.6632
36.3213
36.4965
47.973
31.5279
41.4069
30.292
25.69
26.3235
23.8154
21.805
24.1281
23.2301
21.7944
857.99
495.123
-4.90635
587.193
505.968
896.592
270.128
375.234
284.444
316.491
-344.693
153.819
323.565
107.635
254.305
46.5035
312.763
485.094
438.152
153.868
400.894
229.153
413.046
187.966
302.163
295.707
-134.678
-84.9852
-66.4026
-144.688
-138.753
-142.039
-105.56
-62.9489
184.337
147.646
77.8479
4.34533
358.223
113.999
174.17
94.8958
249.196
350.511
126.969
406.971
210.949
-58.4381
-36.9797
349.401
397.49
305.172
397.319
190.345
-17.1409
94.5215
105.482
183.042
52.1866
202.844
8.65818
9.78657
26.9587
10.9078
83.5125
-93.3569
-4.36891
19.0514
-0.0288782
-1.47809
-1.25756
-0.871246
-0.920902
-0.7075
-0.947794
-1.06207
-1.24082
-1.53047
-1.32069
-1.35709
-1.66657
-1.34387
-1.43037
-2.05792
-1.97784
-1.57563
-1.37921
-1.69803
-1.73497
-1.61292
-2.97585
-2.96228
-2.92035
-3.09469
-3.16
-3.25495
-3.00583
-2.95725
-2.96157
-3.11761
-3.04138
-2.90722
-2.92923
-2.87435
-2.85195
-2.88358
-2.85659
-2.86235
-2.8768
-3.22512
-2.93931
-2.96353
-2.92878
-2.92513
-2.88335
-2.86267
-2.83835
-2.8365
-2.84468
-2.87284
-2.82107
-2.78653
-2.86185
-2.91146
-2.82299
-2.77267
-2.86163
-2.82633
-2.91654
-2.87891
-2.87641
-2.96308
-2.90888
-2.88019
-2.96466
-2.56671
-2.64032
-2.66102
-2.89244
-2.86221
-2.79625
-2.828
3.44347
17.6761
4.39092
3.0736
1.17379
-1.8391
117.033
105.859
49.4471
-58.9101
13.4058
83.9274
9.45752
37.4061
106.356
93.5334
175.185
-79.3781
-69.4511
-114.815
-113.689
-67.6678
-64.012
-106.632
-118.622
-77.6208
-99.1497
-75.1066
-98.2343
-88.4746
-82.3114
-184.091
-204.522
-177.292
-180.614
-177.238
-161.238
-170.112
-179.381
-198.666
-185.693
-193.809
-173.565
-177.571
-187.048
-187.682
-186.257
-184.462
-190.673
-188.34
-187.932
-186.092
-171.928
-184.869
-192.065
-169.911
-183.708
-213.046
-186.915
-313.759
-316.477
-312.083
-311.736
-313.771
-315.455
-312.207
-293.039
-291.79
-294.934
-295.907
-297.205
-294.409
-293.4
-307.694
-301.081
-306.475
-303.163
-298.41
-302.145
-305.764
-298.666
-295.539
-292.005
-286.418
-292.852
-10.2741
-13.7892
-10.8159
-7.64542
0.895009
10.2885
-0.404367
-0.633554
-8.38663
-204.071
-189.76
-109.53
-27.0483
-105.688
-230.377
-171.617
-62.9179
-152.894
7.87344
7.33722
7.64375
8.8321
7.48198
9.38327
8.37708
10.9684
10.425
9.65642
11.6509
10.2549
9.22771
11.1063
14.6985
15.1943
15.4602
14.3069
14.5578
14.6054
14.3339
18.6393
17.7275
18.6526
17.2521
15.5972
17.7461
17.6837
18.0225
20.0581
16.5331
6.72721
11.8649
18.0533
16.3411
42.2152
65.7432
107.797
30.9175
39.993
35.5728
40.538
135.832
340.737
266.305
449.815
241.402
383.511
360.925
256.506
471.363
350.664
501.781
372.382
355.728
400.846
122.436
331.788
111.998
436.771
302.185
390.009
386.886
421.344
394.479
298.177
349.335
197.618
245.522
172.423
227.949
258.97
249.584
15.7562
208.918
269.051
183.674
108.352
278.798
183.175
177.535
140.794
188.441
171.482
198.318
233.818
94.6624
38.2525
108.087
184.382
64.4918
98.9582
125.764
116.364
111.363
102.882
75.5512
84.018
137.427
16.7398
35.2387
45.0324
10.2238
47.6572
63.6433
1.41228
-1.464
54.4182
151.813
94.6794
182.511
139.868
138.88
71.2883
135.589
3.07018
63.6534
24.5746
25.9655
-2.21261
25.3908
5.06076
-224.271
-224.827
-334.093
-202.406
-110.451
-150.015
-239.813
-616.41
-536.466
-493.033
-500.809
-511.243
-510.632
-511.417
-352.708
-322.468
-382.432
-388.023
-351.255
-386.72
-418.806
-99.0665
-268.131
-426.911
-456.966
-288.461
-341.298
-359.578
-164.43
24.7281
-520.963
-189.974
-411.13
-13.1713
-222.634
-207.117
-211.01
-140.125
-203.212
143.484
76.271
-263.67
-190.16
31.1869
324.11
-359.421
-361.053
-323.905
-406.894
-428.482
-388.148
-405.139
-449.321
-499.078
-395.157
-428.921
-540.304
-495.243
-481.894
-185.602
-226.932
-146.83
-288.752
-248.95
-287.498
-264.98
479.927
412.572
489.716
443.98
689.105
502.469
169.021
1764.62
1797.67
1778.45
1115.51
1847.91
2298.96
1293.7
1556.48
1724.55
1382.15
1556.58
607.153
1230.88
1169.84
1228.74
1323.47
1390.11
1404.23
1358.23
1266.36
97.0359
103.153
120.412
97.8979
92.7209
115.558
146.513
126.399
121.313
122.743
146.43
114.918
122.214
128.429
62.4757
56.682
44.9499
116.487
36.5094
99.6158
162.018
24.1969
18.8799
21.7079
26.1186
18.6695
23.2368
25.0283
4.86078
8.75822
12.454
12.2249
14.8487
13.5928
11.8767
11.354
7.25585
13.6049
10.4634
11.9213
6.8594
5.81949
6.97563
8.02034
12.2073
10.765
12.1959
12.5191
10.0569
10.3962
11.3683
10.1665
32.7329
-0.897576
24.896
-42.0332
2.89
19.3533
-2.47907
-1.61146
12.2612
10.1075
-13.8637
11.1304
-2.59876
-4.19709
3.40323
-7.66259
20.0479
-0.225586
11.0036
23.891
2.5686
-4.72097
2.80905
1.07283
0.310222
3.37765
3.95822
0.34171
1.57593
0.983749
0.475619
0.431141
-0.572436
-0.604352
-0.979882
-0.711265
-0.378239
-0.663918
-1.09457
-1.26535
-1.27202
-1.27199
-1.3017
-1.17653
1.84438
1.99908
2.36128
1.90542
1.45779
1.85796
2.20624
0.995532
1.8964
1.76591
1.93511
1.17711
1.15697
1.88251
-0.413999
-0.587002
-0.153881
-0.397131
-0.618889
-0.169627
-0.0648748
-1.93533
-1.77533
-1.63208
-1.48445
-1.72154
-1.71097
-1.50587
-2.36467
-2.24533
-2.43032
-2.42384
-2.34902
-2.65317
-2.50823
-2.60084
-2.69161
-2.70202
-2.55039
-2.5847
-2.81326
-2.87619
-2.88534
-2.79612
-2.87239
-2.87095
-2.80084
-2.93639
-2.88597
-2.89315
-2.9086
-2.86817
-2.89162
-2.92874
-2.90535
-2.92851
-2.90283
-2.87019
-2.90651
-2.95995
-2.91995
-2.93373
-2.90252
-2.90557
-2.84976
-2.89847
-2.89942
-2.95578
-2.96188
-2.87876
-2.88364
-2.21333
-2.21771
-2.38291
-2.03293
-2.15821
-2.33298
-2.14213
-0.186236
-2.08396
-1.3968
-1.7296
-2.33561
-3.27316
-5.0799
-0.493597
-2.84074
-1.23502
-1.24752
-1.25804
-1.64377
-1.12393
-1.2763
-2.72669
-2.19891
-1.85778
-2.55436
-3.26718
-2.78568
-2.38153
-2.2768
-2.72935
-2.52214
-1.34884
-1.76138
-1.5634
-1.73068
-1.47923
-1.90311
-1.7074
-1.02964
31.4324
40.0429
0.473369
31.1715
35.9063
34.1627
0.780374
9.92899
2.25369
1.31162
18.3161
0.0492073
6.65978
1.02537
1.82576
1.89676
-10.0841
6.13974
-5.56214
5.69791
-49.5369
-27.738
-2.53652
6.4193
1.16669
-68.027
-76.724
-44.014
-60.1909
-46.833
-56.2652
-40.6247
-27.6332
-29.2006
-48.9251
-9.46863
-32.6444
-39.31
-33.3503
-154.778
-161.631
-128.147
-173.104
-134.605
-174.738
-163.038
-0.884915
-7.08653
-23.5098
-7.97491
-76.546
-116.596
-116.683
-184.932
-87.9195
-103.741
-104.434
-115.942
-192.939
-222.082
-121.566
-179.003
-171.247
-210.02
-186.912
-12.6841
-3.23096
-32.4165
-9.48452
3.1162
-1.15798
-6.55189
-21.7424
-102.452
3.46926
-65.3492
-14.2419
25.0668
3.50573
-38.3405
-20.3188
-127.327
-138.693
-61.573
-60.4172
-90.7765
-113.296
-87.8883
3.60241
3.14642
5.19942
2.49376
2.61348
-8.88948
88.1471
-59.7986
42.3132
11.9171
-22.6741
8.46219
1.14056
2.51499
2.46587
2.24809
3.79
3.01034
2.38695
9.69952
7.69215
8.75644
7.84173
8.22345
8.05234
9.58186
3.4245
3.45491
3.10216
3.08737
3.30868
3.2446
3.60151
5.67283
4.05016
5.15086
4.86023
8.27981
4.24066
6.95965
3.43957
3.66458
3.75977
3.7234
3.56126
3.97202
3.81308
3.91864
3.84134
4.16702
3.72175
3.5118
4.74595
3.62811
7.18674
3.88843
5.12127
6.94658
3.62326
24.3782
3.71973
-1.26009
7.3933
13.6947
11.6533
23.2772
389.15
271.018
335.456
444.006
259.2
400.164
23.8245
179.819
-29.595
173.234
115.378
267.31
174.911
233.177
84.0988
154.074
568.286
286.267
218.51
326.543
202.262
54.5336
322.298
131.401
109.632
202.777
-348.318
-394.219
-384.613
-494.338
-415.697
-420.056
-406.359
-366.987
-426.556
-341.074
-413.735
-477.644
-264.792
-439.177
-238.583
-133.452
-330.502
-463.508
-398.484
-249.21
-391.519
-248.026
-445.753
-467.914
-228.523
-140.246
-316.213
-347.8
-398.756
297.024
360.629
270.282
83.2081
-25.1029
65.2237
115.537
-321.875
-371.847
-251.61
-318.9
-92.9963
-180.281
429.83
351.145
248.894
219.622
447.278
481.598
730.501
641.523
861.046
828.61
827.255
1023.1
966.162
710.586
505.572
938.386
718.992
706.222
1129.21
975.097
919.702
1270.48
1007.73
381.677
270.187
419.759
570.525
208.346
258.88
448.324
624.076
296.661
349.176
342.211
733.228
531.272
257.498
213.811
298.854
242.794
208.201
235.278
222.783
204.605
195.921
239.814
73.5914
102.312
35.6343
73.5415
71.508
67.1728
22.186
35.3066
124.245
78.4084
137.168
192.759
35.6485
3.47823
3.51945
57.1827
91.4701
2.89654
1.38972
2.60514
5.7473
10.4472
-1.55465
8.77129
12.6209
13.2186
12.8122
13.2602
11.2428
13.5563
12.5504
15.6227
14.6936
15.1297
13.5429
14.1088
14.9919
14.4684
12.8144
13.2328
12.9855
13.7328