/*--------------------------------*- C++ -*----------------------------------*\
| =========                 |                                                 |
| \\      /  F ield         | OpenFOAM: The Open Source CFD Toolbox           |
|  \\    /   O peration     | Version:  v2012                                 |
|   \\  /    A nd           | Website:  www.openfoam.com                      |
|    \\/     M anipulation  |                                                 |
\*---------------------------------------------------------------------------*/
FoamFile
{
    version     2.0;
    format      ascii;
    class       surfaceScalarField;
    location    "0.6";
    object      phi;
}
// * * * * * * * * * * * * * * * * * * * * * * * * * * * * * * * * * * * * * //

dimensions      [0 3 -1 0 0 0 0];
oriented        oriented;


internalField   nonuniform List<scalar> 
13152
(
9.83842e-07
2.02826e-05
-1.63099e-06
-1.96355e-05
1.87035e-05
-1.71049e-05
-6.14717e-07
-3.46868e-06
4.24548e-05
-3.46568e-05
3.53979e-05
-2.37209e-06
2.12123e-05
-7.55046e-05
2.85222e-05
-2.44148e-05
6.04514e-05
-1.61118e-05
-2.95729e-05
-2.84449e-05
7.41295e-05
3.84792e-07
-1.67872e-05
2.90647e-07
-2.99221e-05
7.34074e-07
7.84993e-06
5.15731e-06
-2.97945e-05
7.82086e-06
3.19718e-07
-5.08429e-06
-1.55397e-05
-2.98491e-05
-8.65784e-06
-1.46465e-05
-5.1461e-06
2.84504e-05
-8.28136e-08
-8.66086e-06
8.58397e-08
-1.41603e-05
-5.69012e-07
5.6672e-06
-3.05818e-05
1.62537e-05
-2.93612e-05
2.98823e-05
2.93874e-05
-5.4276e-07
2.98248e-08
-1.52499e-05
-2.99083e-05
8.90165e-08
-7.49526e-05
3.23989e-07
1.60156e-05
3.02992e-05
-9.2935e-08
7.47652e-05
3.5775e-05
1.26462e-05
2.54233e-05
-7.38445e-05
3.64959e-07
-7.21204e-07
3.61313e-05
1.23964e-05
2.87347e-07
-1.87357e-05
7.35869e-05
7.7847e-05
2.90557e-05
-7.45589e-07
-2.93466e-05
1.03651e-06
-1.63736e-05
-2.68281e-05
7.22574e-05
1.76602e-07
-1.72958e-05
-8.07876e-06
7.99816e-06
2.57202e-07
5.29937e-06
-3.06739e-05
-4.95187e-06
-1.38781e-05
-2.89991e-05
-1.37767e-05
1.55847e-07
2.91362e-05
2.92967e-07
5.58104e-05
8.21844e-07
-8.24825e-06
-4.8384e-05
-3.52777e-05
1.43165e-05
7.67716e-05
-5.6667e-06
-2.87892e-05
-4.28093e-05
-1.92038e-05
7.63295e-05
4.93762e-06
-5.59952e-05
8.68975e-06
1.16447e-06
-1.5521e-05
3.57184e-06
-2.36713e-05
-1.70655e-05
1.43348e-06
-1.09634e-05
-6.22769e-06
2.99618e-05
-8.96184e-06
-1.47723e-05
5.62392e-05
-1.3926e-05
-4.85409e-05
-2.71469e-05
-5.45737e-05
1.08532e-05
2.55195e-05
-5.02987e-05
9.98177e-06
-8.09042e-06
-4.72966e-05
3.01315e-05
-7.63508e-05
-4.00745e-06
-1.3456e-05
-4.97858e-06
2.2442e-05
-7.63002e-06
-1.01373e-05
1.37599e-05
-1.25564e-05
-8.52959e-06
4.11782e-06
3.3579e-05
-5.02532e-05
3.48862e-05
-3.9298e-05
-6.90888e-06
3.68165e-05
1.65328e-05
-1.85913e-05
1.37565e-05
4.315e-05
-3.83152e-05
2.0019e-05
2.16876e-05
-6.02979e-05
1.40269e-05
1.97486e-05
3.9003e-05
4.03507e-05
-5.76661e-05
2.26384e-05
5.95146e-05
1.48369e-05
3.95407e-05
5.72239e-05
-3.95948e-05
-2.10187e-05
-1.21565e-05
7.277e-05
4.67353e-06
-5.06623e-05
6.39396e-06
6.33938e-06
-2.26845e-05
5.70045e-05
-1.113e-05
-9.65367e-05
-2.26741e-05
6.75221e-05
-2.71521e-05
1.08175e-05
-6.09664e-05
-1.23561e-05
5.38613e-06
4.25011e-06
2.71987e-06
3.63099e-05
1.36778e-05
-6.23438e-05
3.10898e-05
1.06063e-05
1.39342e-06
5.75038e-07
2.28166e-06
-6.25921e-06
1.03725e-05
2.26497e-05
-1.52311e-05
5.43145e-05
-1.59656e-05
-7.32853e-06
5.14487e-06
1.81492e-05
9.70398e-06
-4.35465e-06
-2.13149e-05
-1.41264e-05
1.65018e-05
4.00904e-05
-3.03038e-06
-5.11864e-05
8.82549e-06
4.77668e-05
2.606e-05
-3.3445e-05
4.00304e-05
-1.35768e-05
-4.06716e-05
-7.19049e-06
6.14389e-05
-7.28869e-06
5.53922e-06
-1.18273e-05
-2.89563e-05
-1.9004e-05
-2.12552e-05
6.50939e-06
2.02851e-05
2.20501e-06
-3.52876e-05
2.7832e-05
-5.45833e-05
2.71509e-05
1.12198e-05
1.70353e-06
-1.31276e-05
2.04201e-07
-2.093e-05
-5.66723e-06
3.78171e-05
5.15157e-06
-2.4378e-05
-1.02773e-05
-3.85347e-05
4.31448e-05
-4.37178e-05
2.0313e-05
-5.12348e-05
1.78517e-05
-0.000119331
1.17382e-05
1.142e-05
2.76744e-05
-5.08326e-05
-7.8819e-07
6.7001e-06
5.82631e-06
5.86954e-06
4.76225e-06
8.24626e-06
2.61282e-05
-1.50207e-05
2.91365e-05
-4.43216e-06
-1.70933e-05
5.87621e-06
-6.25013e-06
1.74672e-05
1.96926e-05
1.37152e-05
1.81871e-05
-7.97506e-08
2.56485e-05
1.44784e-06
6.95448e-06
5.31284e-06
5.84919e-06
1.37857e-05
-3.78772e-06
9.5571e-06
-3.08341e-06
2.47701e-05
9.97886e-07
-1.36327e-05
-1.21352e-05
-2.6096e-05
-2.84521e-05
7.93182e-05
2.53046e-08
-2.51235e-05
-2.80531e-05
2.73522e-05
7.26229e-07
2.14146e-05
-7.45912e-05
-4.52609e-06
3.42614e-06
3.25584e-06
-1.82954e-05
-0.000300768
0.000106724
0.000212339
-0.000191782
7.0781e-05
0.000102706
0.000221468
0.000328462
6.80325e-05
1.24143e-05
-9.66575e-06
-2.64004e-05
0.000201157
0.000206203
2.76792e-05
0.000508265
4.29032e-06
-2.85887e-05
5.32064e-07
2.37663e-05
-4.98912e-05
3.3961e-05
2.02205e-05
1.07405e-05
-8.92204e-05
2.89606e-05
-3.98245e-05
1.1396e-05
-1.21004e-05
6.48273e-05
-4.69923e-05
6.88529e-05
-7.60762e-05
2.28917e-05
4.30942e-05
2.91158e-06
-6.88974e-05
5.27237e-06
-4.99818e-06
2.26176e-05
2.69779e-05
2.13887e-05
3.45346e-05
-1.20004e-05
-2.75324e-05
-2.51984e-06
5.96721e-05
-4.06729e-05
6.5131e-05
-4.97616e-05
-7.67617e-07
1.86039e-05
1.43694e-05
-3.22057e-05
-2.5561e-05
2.88647e-05
-4.07125e-06
2.48291e-05
-3.17862e-05
-1.17989e-05
-2.45615e-05
6.52251e-05
-3.326e-05
1.739e-05
-2.01664e-05
1.17356e-05
-3.03584e-05
-5.22729e-05
-1.68234e-05
1.12932e-05
5.7803e-05
1.86067e-05
-2.29529e-05
-4.79267e-05
-1.46549e-05
1.64382e-05
-2.08553e-05
2.95561e-06
2.91929e-05
1.01101e-05
-5.39183e-05
6.80973e-05
-6.09709e-05
-2.17813e-05
1.01482e-05
7.43872e-05
2.28906e-05
-7.37515e-05
3.59943e-05
1.01159e-05
-3.68391e-05
-1.92666e-06
2.86498e-05
-4.4401e-05
5.39222e-05
5.94774e-07
4.16062e-05
-0.000122846
3.42064e-05
-8.40599e-05
-1.4018e-05
7.68742e-05
-6.97505e-05
0.000109655
-0.000112204
-0.000136481
-1.60659e-05
1.17905e-05
0.000140756
3.3531e-05
-5.93786e-05
-0.000110633
3.78749e-05
-2.04098e-05
-0.000114857
1.32187e-05
0.000113429
-4.71338e-06
-0.000169523
-0.000143535
2.59976e-05
0.000155412
-1.95444e-05
-0.0001444
0.000116774
-0.000141032
0.000155991
-0.000196051
-7.8219e-05
5.25606e-05
0.000221709
6.0946e-05
-8.74736e-05
-0.000169523
-5.53689e-05
3.80958e-05
-5.90051e-05
-6.27402e-06
0.00011784
-1.18929e-07
-0.00014636
0.000129304
-4.0881e-05
-0.000143792
8.23047e-05
8.50951e-05
-4.3135e-05
0.000119166
-8.41351e-05
5.46892e-05
3.15083e-05
9.08005e-05
-0.000176998
-2.85809e-05
4.46873e-05
3.85827e-05
0.00012478
-0.000121852
-3.98769e-05
-7.86495e-05
0.000163214
-0.000170818
-0.000133354
0.000179484
-0.000213372
7.0443e-05
-7.91325e-05
-4.97698e-05
5.84593e-05
-0.000207166
5.57351e-05
0.000221874
-6.50893e-06
-0.00027979
0.000130951
-5.08495e-05
-0.000129871
1.64136e-05
0.000172996
-0.000134157
0.000206306
-0.000191516
-0.000113651
-7.33856e-05
0.000104117
8.29203e-05
8.18031e-05
0.000130608
-0.000326062
0.000212629
-0.000204212
-5.83459e-05
-0.000117327
-0.00019951
0.000224084
0.000161082
-0.000229983
0.000256384
0.000145806
0.000161496
0.000152783
-0.000460086
1.18592e-05
0.000140408
-6.4608e-06
0.000155763
1.75927e-05
-0.000115899
-0.000141603
0.000413265
-0.000144652
4.63455e-05
-7.23916e-06
1.53706e-05
-8.43443e-06
-1.88493e-05
-2.24244e-05
1.96851e-05
2.15886e-05
-2.50472e-06
2.17961e-05
-3.81406e-05
4.09406e-05
-6.58697e-05
2.84113e-06
-2.75802e-05
4.44242e-05
-3.92393e-05
6.36691e-05
2.06623e-05
-3.81055e-05
3.40226e-05
-4.98889e-05
-2.66974e-05
3.37975e-06
7.32066e-05
1.06595e-05
-1.61243e-05
1.14463e-05
-2.74843e-05
3.74179e-05
8.51211e-07
-5.43935e-05
-1.87225e-05
5.952e-05
-5.72327e-05
4.99564e-05
-8.38658e-05
3.01824e-05
5.35235e-05
-2.91157e-05
-5.45902e-05
1.23615e-05
-6.258e-05
8.04008e-05
-9.08562e-05
0.000156741
-3.48189e-06
6.49285e-05
-9.05624e-05
0.000105141
-5.6943e-05
9.95042e-05
-8.2871e-05
-4.08863e-05
-5.83395e-05
-3.96977e-05
0.000138924
5.71667e-06
-4.82238e-05
1.62079e-06
-0.00011861
6.59868e-05
6.32782e-05
4.63836e-05
-0.000157886
7.84725e-05
-1.35736e-05
0.000114619
-0.000186845
0.000153394
-4.18133e-06
6.46245e-05
1.21874e-05
-7.26305e-05
9.15031e-05
-9.50897e-05
-1.28483e-05
0.000168976
-7.7199e-05
9.73888e-05
-8.00252e-06
5.53189e-05
-0.000205148
-2.16441e-05
2.86163e-05
9.04166e-05
3.89405e-05
-5.2658e-06
2.23229e-05
-7.84722e-05
3.80908e-05
-3.99224e-06
1.62331e-05
-2.08897e-05
8.64884e-06
-7.39365e-06
-2.83847e-05
8.16843e-07
8.02261e-06
3.89921e-05
1.69924e-05
2.05604e-05
2.70805e-05
1.05498e-05
-2.19422e-05
3.19271e-05
1.16203e-05
-3.19306e-07
-1.24139e-05
1.11287e-06
-2.44324e-06
1.45432e-06
1.26092e-05
1.23239e-05
-1.50865e-05
2.11228e-05
-1.13747e-06
-3.23992e-05
1.476e-05
7.47565e-06
-6.64904e-07
1.68793e-05
1.05216e-05
-2.72255e-06
6.00231e-06
6.75527e-07
-3.95528e-06
4.47747e-06
1.63577e-06
-8.8358e-06
5.21372e-06
5.26603e-06
-7.17439e-07
3.20004e-06
-1.80708e-06
6.15031e-06
-5.23199e-06
3.73445e-06
-1.4366e-05
1.58452e-05
-1.01565e-05
1.91569e-05
-7.5922e-07
-7.45645e-06
-7.71567e-06
-1.73262e-06
6.48789e-06
9.07097e-07
-5.66237e-06
5.31342e-06
1.66377e-06
-8.70981e-06
6.16315e-06
5.63815e-06
3.41024e-06
2.65817e-06
-4.40465e-06
8.80379e-06
-4.48647e-06
8.25549e-06
5.65827e-07
2.26974e-05
-2.77661e-05
-7.89658e-06
-7.73612e-06
4.33988e-05
6.39407e-06
-1.62396e-05
-1.79206e-05
-8.96339e-06
7.46086e-06
1.24874e-05
1.14216e-06
-2.2593e-05
9.35123e-06
1.0597e-05
3.92418e-05
-1.40845e-05
-4.1397e-05
-2.45454e-05
5.60511e-05
4.38797e-06
-1.73303e-05
-1.08062e-05
2.22295e-06
-5.35631e-06
-5.57645e-06
-7.92592e-06
-1.76869e-05
7.57867e-07
8.49635e-06
-1.22113e-05
2.95707e-06
2.77065e-06
-3.14669e-06
1.1339e-06
-5.56776e-06
1.68348e-05
1.25696e-06
3.12764e-06
-7.53131e-06
1.42054e-06
9.70322e-07
-9.17562e-07
-3.22966e-06
-1.00012e-05
1.4782e-05
1.7357e-05
1.53403e-05
-4.74794e-05
1.09187e-05
3.42788e-05
-3.04155e-05
1.00613e-05
1.82144e-05
-2.76593e-05
1.73224e-05
4.46157e-05
3.01021e-05
-4.24211e-05
1.62094e-05
2.3954e-05
5.17462e-05
5.49194e-05
1.58082e-06
-5.37173e-05
-2.78293e-06
-3.62858e-05
-1.88753e-05
0.00011008
-2.84296e-05
-6.2754e-06
1.38024e-05
-1.54656e-05
-5.20542e-05
-1.62116e-05
1.11388e-05
2.96608e-05
1.03417e-05
-6.84322e-05
3.25335e-05
-9.14815e-06
-5.2278e-06
2.15497e-05
-1.03517e-05
-1.14563e-05
-3.6591e-05
2.87594e-05
1.92879e-05
-1.4262e-05
2.15865e-05
-1.87808e-05
3.78023e-05
-8.86553e-05
-2.0569e-05
-2.16845e-05
7.10128e-05
-2.55579e-05
2.42768e-05
7.57093e-06
-7.66892e-06
1.98153e-05
6.23013e-07
-6.81915e-06
6.26591e-06
-6.97728e-08
-1.1014e-06
-7.19577e-07
2.44399e-06
1.36487e-05
-2.15693e-05
-3.8593e-06
-6.14478e-06
9.28449e-06
-7.84847e-06
6.43315e-06
1.57183e-06
4.22844e-06
1.69296e-06
1.48737e-06
6.7431e-06
8.74773e-06
-1.69782e-05
-3.33254e-06
3.88492e-06
9.34991e-07
3.34079e-06
-6.47358e-06
-1.11714e-05
2.15299e-05
-1.56373e-05
1.00987e-05
-1.20694e-05
-1.60933e-05
1.69913e-05
-9.71053e-06
-1.79961e-05
-2.58849e-05
1.95151e-05
-3.32304e-05
-1.58339e-06
4.63868e-06
8.59314e-06
-1.16484e-05
1.30521e-05
8.37592e-06
-2.30114e-05
1.43992e-05
3.29153e-06
-2.35577e-06
2.8636e-06
8.08531e-06
5.47918e-06
5.40954e-07
-1.05503e-05
-6.23888e-06
3.11884e-05
-1.99583e-05
1.26996e-05
1.56374e-06
-1.60429e-05
-1.81155e-06
2.73388e-06
-7.00143e-07
-2.80813e-06
7.74388e-07
-1.84465e-06
-7.83361e-07
5.3619e-06
1.24471e-06
-3.78952e-06
-5.56839e-06
-1.16743e-05
1.64593e-05
-1.73885e-05
9.012e-06
-1.80592e-05
7.62964e-06
-3.92373e-05
2.20867e-06
2.825e-06
-6.84075e-06
-1.81114e-06
7.79531e-07
3.24027e-06
-2.94144e-06
6.86083e-06
-1.86381e-05
2.40837e-06
-1.99714e-05
-7.45441e-06
1.99694e-05
7.61767e-06
-2.51807e-05
3.40352e-06
-1.11529e-05
-4.03173e-07
-1.08598e-05
-1.69022e-05
2.81652e-05
-1.11005e-05
-2.50822e-05
3.57795e-05
-1.32784e-05
-8.68192e-06
1.48171e-05
1.69185e-05
-4.50139e-05
3.36354e-05
-2.75003e-05
2.21004e-05
-3.02641e-05
3.88336e-05
1.90894e-05
1.1423e-06
-1.16109e-05
-8.62074e-06
-1.27807e-05
-3.78701e-06
3.56571e-05
-8.7226e-07
-1.07661e-05
-2.14612e-06
1.22029e-05
-1.0929e-05
2.1205e-05
-3.41172e-05
2.24414e-07
8.19149e-06
9.81844e-06
-1.87194e-05
-4.33774e-05
-3.21876e-06
6.53155e-05
-5.48274e-06
6.18107e-06
-1.94177e-05
-3.73324e-05
-1.15279e-05
-3.70761e-05
3.13618e-05
1.18953e-05
-3.37979e-06
-5.31141e-05
-2.15459e-05
7.77443e-06
4.51333e-05
9.72987e-06
-3.46556e-05
1.50036e-05
-4.26062e-05
1.95592e-05
4.03698e-06
4.99304e-06
-1.21476e-06
-7.81526e-06
-3.63839e-06
-1.74078e-06
9.41615e-06
2.06766e-06
-7.12983e-07
2.78396e-06
-2.50048e-06
1.7842e-06
-1.96739e-06
4.0384e-06
6.0747e-06
-1.03159e-05
2.89256e-06
-6.23024e-06
5.46788e-06
-4.05635e-06
4.81871e-06
7.47468e-06
-9.13519e-06
-4.56972e-06
-3.25186e-06
1.61945e-05
2.30676e-06
-8.52939e-07
-1.0589e-05
6.8239e-07
-2.94534e-06
9.54704e-07
2.36561e-06
-4.17325e-06
2.50944e-06
-8.72346e-07
-2.3489e-06
1.60648e-06
-4.03962e-06
3.98666e-06
6.09247e-06
3.94943e-06
-1.40286e-05
-1.84171e-05
-7.83812e-06
3.02419e-05
-1.14223e-05
-9.02292e-07
-1.48034e-05
1.56976e-05
3.05517e-06
-1.25988e-06
-2.75721e-05
4.93338e-06
-1.40314e-05
9.20864e-06
1.74031e-06
-4.07944e-05
-2.39012e-06
4.14442e-05
-4.26101e-05
3.95754e-05
4.77496e-06
3.86705e-05
-0.000122075
4.65323e-05
-4.20462e-05
-6.87615e-06
-3.84967e-05
0.000126473
-3.89598e-06
4.97473e-06
-7.27171e-06
-2.61998e-05
3.56193e-05
-3.153e-05
2.21105e-05
7.97728e-05
-1.38025e-05
-9.21701e-05
1.06193e-05
0.000104773
8.05023e-05
-2.36349e-05
-8.83976e-05
2.21948e-05
8.04179e-05
6.33455e-05
-0.000100783
9.61594e-05
1.93612e-05
2.07094e-05
3.27687e-05
-7.28393e-05
1.08823e-05
4.07562e-05
-3.22773e-05
1.7599e-05
1.39926e-05
-2.95405e-05
2.4939e-05
4.53576e-05
4.66498e-05
-4.34216e-05
-7.56713e-06
7.18158e-05
3.13644e-05
-3.81503e-05
-1.03204e-05
2.75164e-05
2.09542e-05
2.93442e-05
2.11288e-05
-8.86232e-05
2.53332e-05
-6.30928e-06
3.27393e-05
-2.92084e-05
2.39855e-05
-2.56687e-05
7.93623e-05
-1.34447e-05
8.9049e-06
-1.73199e-05
9.44568e-06
2.16017e-06
-3.34373e-06
-8.26212e-06
-2.01909e-05
5.2406e-06
2.4396e-05
4.98384e-06
-2.30146e-05
5.12092e-06
7.58178e-07
-9.22284e-06
-4.52647e-06
1.4888e-05
-4.60404e-05
3.33253e-05
1.76988e-05
-9.63653e-06
-5.94185e-05
-1.12347e-05
4.00335e-05
-2.01131e-05
4.56117e-05
6.15129e-06
-2.74523e-05
-2.43107e-05
-2.8101e-05
-5.48845e-06
7.92012e-05
3.42473e-06
-2.53745e-05
-4.1201e-05
3.65768e-05
8.04895e-06
3.7825e-06
-7.0358e-05
-5.58256e-05
8.69139e-05
-7.94954e-05
-1.91524e-05
-2.70795e-06
9.52541e-07
2.09078e-05
3.78327e-05
4.05806e-05
-9.75657e-05
4.17837e-05
-6.65903e-06
1.16434e-05
-1.0662e-05
-2.8915e-08
-7.43455e-06
3.99858e-05
6.97203e-06
2.29466e-05
4.13212e-05
-3.65548e-06
3.61585e-05
2.91046e-06
-3.54135e-05
4.13302e-05
-3.69709e-05
-8.01477e-06
-3.53164e-05
0.000112805
-3.82685e-05
3.452e-05
3.10058e-05
-0.000104688
4.38322e-06
-1.03484e-05
3.58678e-06
-2.76453e-06
-2.96155e-05
3.54531e-08
3.23446e-05
-4.65127e-05
5.13555e-05
-7.60731e-06
4.31674e-05
-0.000119296
1.38303e-05
-1.23206e-05
-1.47422e-06
-9.48655e-06
5.56614e-05
-7.17404e-06
4.9043e-05
2.36727e-05
1.25795e-05
2.66286e-05
7.34729e-06
-4.65554e-05
-1.28332e-06
1.28707e-05
9.92061e-07
2.75658e-05
-2.22055e-06
7.972e-06
4.46554e-05
-4.52801e-05
4.23792e-05
-2.15364e-05
-4.93506e-05
-6.91573e-06
-2.47648e-05
-5.92457e-05
0.000139672
-2.5663e-06
-1.2769e-05
1.27204e-06
-4.19837e-05
-4.5685e-06
-1.92723e-05
-0.000107811
-2.72734e-05
-4.34607e-05
-9.12294e-06
7.98571e-05
-1.44995e-05
-1.62266e-05
3.45271e-06
-2.47199e-05
-3.32404e-05
2.9934e-05
-3.17247e-05
-1.44359e-05
-6.80198e-05
8.88308e-05
-1.96922e-05
-7.30474e-05
-8.46573e-05
7.93543e-06
3.46073e-05
-3.44718e-05
-8.07098e-06
9.20532e-06
-1.54844e-05
1.42145e-05
-2.20033e-05
6.5816e-05
3.27205e-05
5.93503e-05
-0.000126542
4.95811e-05
-2.49316e-05
-1.3142e-05
5.70079e-05
3.59681e-05
-4.40111e-05
2.22574e-05
1.64497e-05
-1.51837e-05
7.37646e-06
1.34482e-05
-5.64104e-06
3.0815e-05
1.74007e-06
-4.77387e-05
1.98298e-05
1.83616e-05
-5.49416e-06
-2.71414e-06
2.16565e-05
-7.75084e-06
-3.38436e-06
-9.66774e-07
-6.87093e-06
5.12356e-06
-7.83041e-06
-8.87204e-07
4.68084e-06
-1.07712e-05
1.76397e-05
-2.70135e-05
-9.07516e-05
-3.80909e-05
-1.65011e-05
-5.38885e-06
-5.77558e-05
-4.94974e-05
2.59363e-05
-6.74116e-05
-3.27068e-05
-1.69266e-05
-9.33682e-05
6.07968e-05
-1.85146e-05
-9.18348e-06
-0.000144592
1.29334e-05
-3.8142e-05
5.67865e-06
1.953e-05
-7.74376e-05
1.47026e-05
7.56685e-05
6.72513e-05
3.84965e-05
1.55254e-05
-2.43559e-05
1.45093e-05
-3.59017e-05
6.61301e-05
-4.53476e-05
7.66978e-05
-3.12057e-05
-1.84353e-05
3.1771e-08
2.08104e-05
-2.40688e-06
3.05749e-05
2.45533e-06
-5.14655e-05
2.75179e-05
3.08875e-06
-3.0228e-05
-1.36523e-05
6.46907e-05
-4.28619e-05
1.0227e-05
-9.77049e-06
-9.10135e-06
5.21957e-06
-8.8235e-06
-4.38089e-05
1.0082e-05
-1.64502e-05
2.84986e-05
-1.64239e-05
1.27586e-05
3.02866e-05
-2.66214e-05
3.46115e-05
4.48512e-05
-9.58866e-05
1.36974e-05
3.36727e-05
1.23959e-05
-3.54056e-05
3.67071e-05
-4.46999e-05
9.07685e-05
-2.28352e-05
3.22808e-05
-3.72484e-05
5.09764e-05
-1.05472e-05
-5.3686e-05
1.32567e-05
-7.84693e-05
-1.15116e-05
0.000140957
-5.23095e-05
9.45919e-05
1.07006e-05
-0.000158979
7.10717e-05
3.67767e-05
-9.72249e-05
0.000156785
-0.000138834
4.36308e-05
6.47006e-05
5.57543e-06
-0.000113907
-9.67471e-06
1.4741e-06
5.18312e-05
7.3309e-05
-1.82834e-05
7.21542e-05
-2.55056e-05
-4.51746e-05
-1.97747e-05
0.00014376
-7.75829e-05
0.000131117
-9.75134e-05
6.37321e-06
-7.1734e-05
2.1353e-06
6.32255e-05
-0.000145836
7.37366e-05
-0.000222836
8.27894e-05
9.76233e-06
0.000184106
-7.72826e-05
-7.81202e-05
-7.72624e-05
0.000232665
-3.91707e-05
-0.000159597
0.000121485
-8.38372e-05
-3.34539e-05
8.84238e-05
8.58923e-05
-0.000258153
0.000156917
-0.000101947
0.000160311
-0.000234016
0.000239965
-1.21707e-05
-5.997e-05
-0.000116929
0.00018907
-2.51611e-05
-7.5369e-05
8.83594e-05
-2.75088e-05
-5.76223e-05
-3.1986e-05
7.92368e-05
-7.47597e-05
8.55251e-05
-0.000175133
-5.3589e-05
6.37451e-05
-9.12815e-05
-7.07258e-05
-4.02043e-05
-1.5722e-05
0.000126652
1.97651e-05
-1.87452e-05
-7.17459e-05
1.37357e-05
-3.4175e-05
-6.95981e-05
1.27915e-05
7.05424e-05
-3.83661e-05
-6.5407e-05
6.03033e-05
-0.000117415
5.73725e-05
-6.89012e-06
1.81032e-05
-1.22814e-05
1.0683e-06
2.11415e-05
-1.65948e-05
-1.14369e-05
-2.95325e-05
6.87773e-05
1.17493e-05
1.0094e-05
-3.84381e-05
2.12527e-05
-2.09401e-05
-6.03863e-06
-2.2412e-06
-8.22593e-06
7.40541e-06
1.00587e-05
-5.99987e-06
-1.14642e-05
-8.30985e-07
-1.71766e-05
2.5413e-05
-2.55713e-05
3.4799e-05
-1.91211e-05
1.81525e-05
-5.03129e-06
-7.27591e-07
-2.98577e-05
-5.27988e-06
9.89705e-06
1.35354e-05
4.33998e-06
-1.03475e-05
4.50116e-06
-1.73378e-05
-1.11731e-05
-8.12768e-07
-2.89022e-06
5.13298e-06
-1.42999e-06
-8.86542e-06
-1.67033e-06
9.72298e-06
-4.0605e-06
-7.69515e-06
3.56681e-06
1.39614e-06
-6.63328e-06
4.1853e-06
4.51448e-06
2.34391e-07
-2.89874e-06
-3.27545e-06
-4.56298e-06
-1.12407e-05
-2.30341e-05
3.88378e-05
-3.61078e-06
-1.82039e-05
1.72517e-05
-3.01301e-06
-1.18385e-05
8.85697e-06
1.65051e-05
-2.83751e-05
2.49935e-05
-2.7975e-05
-1.52873e-05
2.20768e-05
-2.18163e-05
-1.54486e-05
-5.73831e-06
6.82329e-06
1.43637e-05
1.19745e-05
-3.19101e-07
-2.7104e-05
1.11688e-05
-4.93253e-06
-1.09948e-05
1.87546e-06
1.59427e-05
5.42349e-06
-1.67373e-05
-2.19325e-05
3.49767e-05
-2.14415e-05
5.1403e-06
-8.10814e-08
-1.47292e-05
9.67002e-06
-1.00431e-05
-2.43319e-06
1.76165e-05
1.46131e-06
-1.15855e-05
1.76167e-06
-8.41494e-06
8.11456e-06
-2.56413e-06
-7.25975e-06
-1.24185e-05
-4.87491e-06
-2.32669e-05
-1.57345e-05
-1.65557e-05
-3.97959e-06
3.62698e-05
1.54797e-06
-2.16278e-05
4.34528e-06
2.42968e-06
-1.74374e-05
-2.64315e-05
-1.29109e-05
3.53628e-05
-1.04789e-06
-4.70113e-05
-2.42991e-05
1.38179e-05
-4.27843e-05
2.0923e-05
-1.56266e-06
-1.30081e-06
-1.80596e-05
-3.60264e-06
1.19154e-05
1.26103e-05
-2.41538e-06
-2.7499e-06
6.61087e-06
-1.19259e-05
2.89964e-06
-2.20889e-05
2.59499e-05
4.3882e-06
1.06389e-05
-3.11172e-06
7.67877e-06
-4.59132e-06
-1.66562e-05
1.53693e-05
-3.10663e-05
-4.66169e-05
-3.2468e-05
-9.48573e-06
8.85706e-05
2.95053e-06
-4.66678e-05
-3.16982e-05
2.18069e-06
1.08028e-05
-6.67226e-06
-3.58287e-05
1.167e-05
1.31345e-06
1.26002e-05
1.63434e-05
-3.56159e-05
4.04285e-05
-1.61583e-05
5.84974e-05
-8.88217e-05
8.94401e-05
-2.15065e-05
-9.89318e-07
3.21915e-05
-9.69573e-06
1.23315e-05
2.74315e-05
-6.12695e-05
-1.93081e-06
1.3273e-05
1.59627e-05
-2.54985e-05
7.60499e-06
-1.03831e-05
3.96188e-05
9.29686e-06
3.75873e-05
-1.46926e-05
3.27662e-05
3.96216e-06
-3.88235e-05
6.60278e-05
-3.15559e-05
-6.94761e-06
-3.16771e-05
7.82435e-05
-5.9072e-06
6.56459e-06
1.07573e-05
6.34445e-06
-2.3009e-05
1.40497e-05
3.27219e-06
9.11544e-06
-3.43269e-05
4.71475e-05
-2.39824e-05
8.14982e-05
-1.12542e-05
-2.21206e-06
1.99503e-05
-6.48405e-06
2.33534e-05
2.14435e-05
-3.15656e-06
2.42979e-05
2.6004e-05
-7.71713e-06
-2.37819e-05
7.40838e-05
-1.15487e-05
3.37998e-06
5.52738e-06
7.22509e-07
-9.62987e-06
-5.31811e-06
9.33778e-06
-6.39693e-07
-1.12541e-05
3.26153e-06
-3.31245e-05
4.05458e-06
5.44824e-06
8.73152e-06
-1.82343e-05
6.52155e-06
1.45244e-05
6.83033e-06
5.13946e-06
1.95754e-05
2.03445e-05
9.76363e-06
2.43361e-05
7.71946e-06
1.94553e-05
2.26225e-05
7.4094e-06
-2.04537e-07
1.33976e-05
-6.62792e-06
-2.47379e-05
-1.19105e-05
-4.52396e-05
-3.02026e-06
7.60915e-07
1.21458e-05
2.90554e-06
-6.29445e-06
-1.42314e-05
-1.27046e-05
-3.0252e-06
-8.90723e-06
5.63798e-06
-1.45792e-05
-2.67741e-06
7.6668e-06
-1.01575e-05
-1.02138e-05
-1.28889e-05
2.92987e-06
-3.0398e-05
-9.90509e-06
-1.57711e-05
-5.30444e-06
5.0326e-06
1.16271e-05
-2.68572e-05
-2.62078e-06
8.94341e-06
1.11025e-05
-7.09616e-06
5.68971e-06
1.72517e-05
8.48302e-06
1.00029e-05
-2.55821e-05
7.25137e-06
6.92135e-06
1.99361e-06
-8.95746e-06
1.42152e-05
-1.79423e-05
1.38291e-05
-2.17685e-05
2.21233e-05
3.66331e-06
6.12306e-06
7.15315e-06
1.29695e-05
2.67687e-05
-1.67769e-06
-5.57051e-05
3.06141e-05
-2.08992e-05
-3.08547e-05
7.85225e-05
3.86265e-06
-2.64395e-05
-2.4884e-05
2.30285e-05
5.71819e-06
4.23707e-06
-5.55606e-05
-3.9972e-05
3.21458e-05
-9.14401e-05
-6.63182e-06
-1.49369e-05
4.15115e-06
1.74176e-05
1.77601e-06
-9.14053e-06
7.32692e-07
-2.21053e-05
8.94431e-06
-1.22054e-05
-9.29925e-06
2.56558e-05
-3.05843e-05
9.2383e-06
4.6775e-05
2.73069e-06
-7.16109e-05
2.77484e-05
2.79709e-05
4.64299e-05
-7.42835e-05
6.48791e-05
-7.60484e-06
-1.42149e-05
2.36613e-06
1.38071e-05
1.36838e-05
-3.44463e-06
-1.24893e-05
2.25009e-06
-3.00693e-05
-7.32972e-07
4.44861e-05
-2.68761e-06
-3.08264e-05
1.67404e-05
-5.12718e-05
2.20421e-05
-3.58616e-05
5.18691e-05
-3.00179e-05
2.99e-05
-2.56966e-06
2.24918e-06
-6.30935e-05
4.66384e-05
-9.5661e-05
4.06767e-05
-1.41338e-05
-1.79308e-05
-4.29966e-06
3.63643e-05
-5.32211e-06
-1.0624e-05
1.81231e-06
-1.75348e-05
1.65184e-05
-4.26347e-05
1.54923e-05
4.43645e-05
3.40665e-05
-0.000107162
-0.000100008
-1.29862e-05
-2.4933e-05
4.3184e-06
2.37499e-05
1.26383e-05
-1.78096e-07
-1.29736e-05
5.13352e-07
-2.52919e-05
-8.11163e-06
4.60418e-05
-2.54583e-07
-2.52154e-05
8.46996e-06
-4.60086e-05
2.45651e-05
-4.66411e-05
4.69994e-05
-4.65835e-05
-3.12249e-07
-0.000117807
-3.92615e-05
-1.87526e-05
-4.19942e-05
2.0033e-07
-6.06028e-05
2.1141e-05
-2.11219e-05
3.17273e-05
-0.000115943
6.26494e-05
-0.000126583
-1.21679e-05
1.42145e-05
-1.34854e-05
1.18271e-05
2.67573e-05
1.42355e-06
-4.00079e-05
1.18187e-05
-1.25658e-05
1.25741e-05
5.13645e-06
3.34396e-05
4.12575e-05
-3.26823e-05
-2.96118e-06
5.67928e-05
-3.13107e-05
3.3486e-05
-6.25695e-05
-1.58347e-05
-2.07053e-05
-1.63495e-05
5.28895e-05
-7.5585e-06
-3.74591e-05
2.91829e-05
-2.58342e-05
-2.42959e-06
4.0112e-05
1.9157e-05
-8.51032e-05
4.31111e-05
-5.42865e-06
4.03945e-05
-5.86966e-05
6.71561e-05
1.92286e-06
-5.78471e-07
-1.45954e-05
1.3251e-05
-4.70689e-06
-5.74967e-06
1.23794e-05
-4.25888e-06
-1.02647e-06
-3.46208e-07
-2.88698e-07
-1.39605e-05
2.15043e-06
-8.2463e-06
2.27338e-07
-4.77492e-06
1.3513e-06
-2.07688e-06
-7.5416e-06
1.00808e-06
8.6104e-06
-6.54142e-06
9.58312e-06
-5.11858e-06
-1.41686e-05
8.55666e-08
-1.30614e-05
-5.93591e-07
2.32381e-05
5.26149e-07
-1.87062e-05
1.69345e-05
-3.05769e-05
1.7349e-05
1.85973e-06
5.298e-06
2.66296e-06
-9.82069e-06
-4.72234e-07
5.90629e-06
-3.57432e-06
-1.32485e-06
6.15062e-06
-6.99136e-07
4.71988e-06
1.88555e-06
6.71919e-06
-4.75536e-06
5.70923e-06
-3.14892e-07
1.65797e-05
-4.84969e-06
-9.57323e-06
8.63961e-06
5.78332e-06
-4.78085e-06
1.22167e-06
-1.29051e-06
-8.05477e-07
-1.35486e-05
-1.09813e-06
1.99402e-06
3.25772e-07
-6.77439e-06
4.38575e-06
-2.31042e-06
-1.45102e-06
5.75547e-06
-2.32678e-06
-6.75802e-06
4.37669e-06
-7.50895e-06
1.15653e-05
-1.04884e-05
-1.07226e-05
-9.87152e-06
3.10825e-05
-2.47254e-08
-9.21258e-06
-1.2511e-06
-6.71743e-06
-4.0299e-06
-4.45382e-06
3.51971e-06
9.53427e-06
-1.8018e-05
-2.00555e-06
1.65049e-06
3.87477e-06
5.48745e-06
2.04127e-06
7.11397e-07
-8.27349e-06
-3.67266e-06
1.09667e-06
-4.73882e-06
4.78795e-06
-1.1458e-06
-3.36111e-08
-2.15237e-08
1.15181e-06
7.0094e-07
-5.47337e-06
-1.23244e-06
4.38682e-06
1.63358e-06
-9.72002e-07
-2.81962e-07
-2.20266e-06
7.29042e-06
-8.64804e-06
8.81251e-06
2.50988e-05
-4.79706e-06
-2.91142e-05
1.29466e-05
-1.44919e-05
1.03578e-05
-1.81695e-07
3.82271e-05
3.48863e-05
-1.66552e-05
-3.2723e-05
3.04557e-06
4.21985e-05
-2.46685e-05
-4.61208e-05
2.66272e-05
1.44252e-06
-5.01533e-05
2.20836e-05
-2.26762e-05
-2.06077e-05
6.9911e-05
1.6417e-05
-3.76507e-05
1.01362e-05
-8.02265e-05
1.9937e-05
-5.01103e-05
3.96385e-05
-6.87147e-05
3.50213e-05
-0.000186592
-2.54238e-05
1.38333e-05
-6.21611e-05
1.35284e-05
-9.28706e-05
9.5597e-06
1.7802e-05
1.28309e-05
5.98258e-05
-1.04977e-06
-1.08346e-05
3.36225e-07
1.15482e-05
-2.25666e-05
1.54658e-05
6.05103e-06
9.9418e-06
-4.3343e-05
7.97476e-06
-6.19937e-06
-1.43917e-06
-2.20958e-06
2.17325e-05
-1.45721e-05
2.78283e-05
-1.08297e-05
-2.48599e-07
2.64902e-06
8.26474e-06
-1.06652e-05
-3.02679e-06
4.02318e-06
-1.245e-06
-4.27757e-06
3.89979e-06
5.11572e-06
-4.24662e-06
3.15408e-06
-1.17847e-06
5.04916e-06
-6.03159e-06
5.75539e-07
-2.0135e-06
-1.68562e-05
-1.87477e-06
1.65303e-05
2.20072e-06
1.47278e-05
1.38256e-05
-4.54097e-05
1.48772e-05
-2.02413e-06
-1.4229e-06
1.50915e-05
1.57049e-07
1.56873e-05
-5.79975e-07
-1.58538e-05
4.64184e-05
-2.78648e-06
-2.04615e-05
7.84505e-08
-1.38518e-06
2.17683e-05
3.84636e-05
3.96408e-05
-9.8566e-05
3.91932e-05
-6.51197e-07
1.16171e-05
-1.20738e-05
-9.28464e-07
-6.79878e-06
4.01841e-05
7.14855e-06
2.04185e-05
3.9543e-05
-1.51358e-06
2.97932e-05
-2.95616e-05
1.28199e-06
2.89574e-05
-2.82555e-05
-2.21545e-06
-2.84343e-05
8.71849e-05
2.84992e-05
2.76352e-05
-8.56961e-05
2.913e-05
-1.773e-07
-4.42973e-07
5.18349e-07
-1.49049e-05
-4.07786e-05
-3.94521e-05
9.51355e-05
-9.91537e-09
9.10367e-07
-1.58053e-05
-4.02914e-05
-4.97096e-07
-2.29949e-05
2.39016e-05
3.64412e-09
1.05581e-05
-4.93583e-05
3.23591e-05
-6.20925e-05
3.96735e-05
1.65872e-05
-2.75664e-07
3.46116e-05
1.57655e-05
-9.97355e-05
3.49264e-05
-3.11084e-07
-4.48656e-05
9.63792e-05
-4.0858e-05
-4.31869e-06
4.09068e-05
8.55022e-07
-1.36725e-06
-4.03945e-05
-2.1062e-05
-3.55969e-05
9.34673e-07
-2.11416e-05
-5.23438e-05
5.52292e-05
-1.95073e-06
2.36328e-05
-9.71182e-05
-3.32558e-05
-3.70832e-06
7.83737e-05
0.000100347
-4.14966e-08
4.49495e-05
2.28762e-05
-1.21551e-05
-3.95971e-05
1.39689e-05
3.77833e-05
-1.60944e-05
1.4939e-05
-1.09996e-05
-3.85201e-06
-5.18395e-05
-2.81789e-05
-4.08267e-06
4.72006e-05
-8.89765e-06
-3.02809e-05
1.85549e-05
-3.13045e-05
2.84411e-05
-2.31007e-05
-1.36729e-05
-1.09652e-05
5.73837e-06
-1.60402e-05
-1.27989e-05
5.96249e-06
-1.3897e-05
-2.12831e-05
1.0708e-05
1.65376e-05
4.79346e-06
-3.99735e-05
1.26182e-05
-2.38649e-05
1.2361e-05
-1.80204e-05
1.20384e-06
1.11711e-05
5.64549e-06
-1.99779e-05
3.44418e-06
-1.48669e-06
6.48187e-05
-8.35925e-05
2.52961e-05
1.23287e-06
-1.53578e-05
1.86232e-08
3.09231e-05
-4.36996e-05
4.71625e-05
2.23524e-05
9.48206e-06
2.4559e-05
1.77397e-05
0.00010843
1.30101e-05
2.42344e-05
-1.23204e-05
-2.49241e-05
1.25576e-05
-5.04147e-06
5.49448e-06
-1.22997e-05
4.90932e-05
6.42485e-06
2.10632e-05
-3.25288e-05
2.19232e-05
-1.00014e-05
-6.50069e-06
1.61251e-05
2.24437e-06
1.6717e-05
-1.2963e-05
1.46763e-05
-1.84303e-05
-2.75844e-05
1.3096e-05
1.05462e-05
2.59893e-05
-1.74258e-05
4.51983e-05
2.55673e-05
-3.34514e-05
3.41309e-05
-1.55779e-05
3.18145e-06
-1.08392e-05
2.32357e-05
2.10036e-05
-1.14219e-05
4.41088e-06
-9.26668e-06
8.69197e-06
1.28314e-05
-3.29453e-05
3.83618e-06
5.82832e-06
-2.39365e-07
8.09773e-06
-2.81678e-06
-5.04158e-06
1.49503e-05
-1.06571e-05
-4.53253e-06
-3.28295e-05
-6.5997e-06
-9.96372e-06
6.32709e-06
8.19859e-07
-6.24304e-07
-1.99965e-05
4.39453e-05
-7.73992e-05
4.36727e-05
-3.50927e-05
-4.29618e-05
-6.88772e-06
8.49421e-05
1.56474e-06
-2.65191e-05
-1.01384e-05
-4.08742e-05
-5.22877e-07
-4.31421e-05
-6.82337e-05
0.000104488
-4.23727e-05
-2.72884e-05
7.26433e-05
-0.00015589
3.88669e-06
-5.70523e-05
4.72727e-06
6.86081e-05
-1.62831e-05
3.21576e-05
5.29133e-05
-0.000142123
3.86996e-06
3.30149e-05
7.87247e-05
-8.7565e-05
1.27102e-05
-4.37862e-05
0.000155526
6.20781e-06
6.96836e-05
-7.28331e-06
5.02116e-05
8.90955e-06
0.000121025
-0.000158378
0.000146922
4.51176e-06
-1.65234e-05
3.52682e-05
-2.32565e-05
-3.85678e-05
4.71538e-05
-4.07433e-06
3.22302e-05
-8.73216e-05
-6.98331e-05
-4.44878e-05
0.000161475
-3.71311e-05
4.44404e-06
-9.34499e-06
-4.77593e-06
-3.34474e-05
1.81173e-05
-6.75411e-05
4.92925e-05
-5.68747e-05
-2.58653e-05
-5.56767e-05
0.000123086
5.42773e-06
0.000117182
4.66425e-05
-6.70801e-05
-4.09221e-05
7.49139e-05
4.10167e-05
-5.80748e-05
-5.78558e-05
-3.87118e-05
0.000231465
0.00012147
-1.55213e-06
-0.000202883
-0.000143543
1.11001e-05
-3.01578e-05
-0.000124485
-2.85306e-05
-5.3911e-05
9.35416e-05
-8.02577e-06
-5.06627e-05
-6.23525e-05
6.77523e-05
-1.34257e-05
5.83861e-05
-0.000171401
-0.000106897
0.000120738
-9.76091e-06
-1.57843e-05
-1.40019e-05
3.95471e-05
1.46776e-05
4.61037e-05
4.15103e-05
-4.26171e-05
6.07783e-05
-3.35706e-05
-4.12096e-05
-1.20519e-05
0.000112377
1.78181e-06
-1.3111e-05
-2.22415e-05
-1.76951e-05
7.42496e-06
6.44705e-06
2.19615e-05
3.48463e-05
-1.66492e-05
-2.4537e-05
-1.75461e-05
5.87323e-05
-5.29464e-06