/*--------------------------------*- C++ -*----------------------------------*\
| =========                 |                                                 |
| \\      /  F ield         | OpenFOAM: The Open Source CFD Toolbox           |
|  \\    /   O peration     | Version:  v2012                                 |
|   \\  /    A nd           | Website:  www.openfoam.com                      |
|    \\/     M anipulation  |                                                 |
\*---------------------------------------------------------------------------*/
FoamFile
{
    version     2.0;
    format      ascii;
    class       volVectorField;
    location    "0.6";
    object      U;
}
// * * * * * * * * * * * * * * * * * * * * * * * * * * * * * * * * * * * * * //

dimensions      [0 1 -1 0 0 0 0];


internalField   nonuniform List<vector> 
6576
(
(0.0330299 -1.48155 -0.0651436)
(-0.0919235 -1.53465 0.0773794)
(-0.0329171 -1.56642 0.0121466)
(0.0443267 -1.45085 -0.0610456)
(-0.00488611 -1.50724 0.00538988)
(-0.0807329 -1.59818 0.0793976)
(-0.0171379 -1.54677 0.0325098)
(0.0153568 -1.49843 0.00223021)
(0.0178292 -1.24924 -0.00986503)
(0.0172296 -1.45945 0.000532998)
(-0.0115373 -1.51272 -0.0162482)
(-0.01694 -1.555 -0.0112873)
(-0.00209756 -1.55204 0.00630449)
(0.00731764 -1.48814 -0.000297335)
(0.0604171 -1.45771 0.0230623)
(0.0088444 -1.82231 -0.0344446)
(0.0663648 -0.86206 0.0341114)
(0.0166056 -1.71954 -0.0171935)
(0.0563347 -1.56328 0.0644145)
(0.0173799 -1.48103 0.00330766)
(0.0487907 -1.37783 0.0505582)
(0.00177428 -1.52945 0.0147019)
(0.0101705 -1.46774 0.00851077)
(-0.00490365 -1.50005 -0.0122154)
(0.0015256 -1.5989 0.0191283)
(0.0542395 -1.53206 0.0578507)
(0.0635942 -1.49633 0.0673669)
(0.00056811 -1.45678 0.0142176)
(-0.00583747 -1.57958 -0.0313736)
(0.00626004 -0.961956 -0.00814186)
(-0.0554284 -1.577 0.0651981)
(-0.0273536 -1.45558 -0.00972707)
(-0.0119698 -1.55482 0.000546779)
(0.0111913 -1.45449 0.0318788)
(0.0164181 -1.46344 0.0354315)
(-0.0191107 -1.25417 0.0100332)
(0.00308372 -1.63977 0.0113508)
(-0.0139536 -1.5679 0.0104899)
(0.018342 -1.47718 0.0257107)
(0.0103325 -1.47577 0.019349)
(0.00216887 -1.30983 0.0339463)
(-0.0172139 -1.47552 0.00642846)
(-0.00137716 -1.40475 0.00680392)
(0.551835 1.23778 0.953175)
(0.712741 1.58533 0.358957)
(-0.0802993 0.938187 -0.00635306)
(0.213061 1.50735 1.17677)
(0.217254 1.27941 1.28047)
(0.0118742 0.289256 0.208593)
(-1.38653 1.66399 -0.213916)
(0.644097 1.99611 1.14828)
(1.3659 1.78689 1.95207)
(0.0529342 1.53164 -0.486267)
(0.00251756 1.52174 -0.781851)
(-0.16538 1.58675 -0.745748)
(-0.202157 1.74446 -0.579)
(-0.170134 1.5917 -0.176114)
(-0.32732 1.42178 -0.659085)
(-0.381477 1.88917 -1.10351)
(-0.0255305 1.04396 -0.607662)
(0.0406517 1.05909 -0.666924)
(-0.00555306 1.09068 -0.675323)
(0.00276464 0.947932 -0.795929)
(-0.032256 0.886036 -0.742196)
(-0.0395418 0.856594 -0.748703)
(0.0346404 0.951303 -0.78163)
(0.00217843 0.720065 -1.19537)
(-0.0117862 0.679955 -1.13)
(-0.000184852 0.834721 -1.13469)
(-0.00403086 0.635511 -1.0761)
(-0.00881395 0.683597 -1.10554)
(-0.00260753 0.742029 -1.04791)
(-0.0113251 0.797732 -1.0667)
(0.0970761 -1.41018 -0.0982799)
(0.247152 -1.65714 0.135165)
(0.00252736 -0.988457 -0.359359)
(0.229199 -1.59174 -0.0140175)
(0.30833 -1.33488 -0.296757)
(-0.00334461 -0.633827 -0.214144)
(0.250626 -1.01778 0.23243)
(-0.052714 0.533509 -0.0212358)
(-0.372463 1.5772 0.0407154)
(-0.220377 1.63959 0.143713)
(-0.0110531 0.0629613 -0.0114044)
(0.013833 -0.0463338 -0.192214)
(-0.318303 0.657547 -0.0424016)
(-0.412117 1.01354 0.131738)
(0.0729869 -0.402712 -0.486212)
(-0.0353707 -0.248703 -0.36962)
(-0.0245456 -0.617296 -0.839516)
(-0.0750482 -1.04692 -0.756468)
(-0.0392075 -0.950664 -0.880816)
(-0.0514651 -0.683155 -0.517964)
(-0.00726278 -0.818623 -0.721109)
(0.117943 0.37683 1.03358)
(0.0252818 0.461285 0.467166)
(0.0110926 0.353507 1.58601)
(0.134181 0.388292 0.389521)
(0.097337 0.179002 0.574524)
(0.134861 0.162202 0.840658)
(0.396072 0.188463 0.472112)
(0.116084 -0.103946 2.30531)
(0.0619473 0.186518 1.88761)
(-0.00561271 0.398112 1.67058)
(-0.000619353 0.295102 2.08933)
(-0.0283515 0.101329 2.40701)
(0.0134663 0.350661 1.95512)
(-0.0174666 0.158843 2.15257)
(0.0522728 0.182558 0.877481)
(-0.0328159 0.35266 0.336423)
(0.130046 -0.154824 0.316397)
(-0.0572802 0.527025 0.961783)
(0.433632 0.0740814 0.0312497)
(0.244468 0.306606 0.0870907)
(0.0576872 -0.612105 -0.349652)
(0.0396927 -0.643916 -0.124087)
(0.0509762 -0.550403 -0.240526)
(-0.0796558 -0.778636 -0.212995)
(-0.0293934 -0.556514 0.243373)
(-0.0261931 -0.524059 -0.0319132)
(-0.0520213 -0.685062 -0.307014)
(-0.0495583 -0.810812 0.0976917)
(0.133559 -1.56603 0.186089)
(-0.0151617 -1.61052 -0.00392162)
(0.0183854 -1.61324 0.0362658)
(-0.121235 -1.46653 -0.0383952)
(0.192184 -1.7669 0.253575)
(-0.110851 -1.11371 0.00300707)
(-0.00213596 -9.96097 0.106129)
(0.0689329 -9.81057 0.0862658)
(0.000942008 -9.68353 -0.0401725)
(0.089668 -9.54593 -0.428335)
(0.00605256 -9.80295 -0.307583)
(0.172164 -8.92215 -0.565985)
(-0.118235 -9.65658 -0.433363)
(-0.0312175 -1.42586 0.040278)
(-0.0515831 -1.50779 0.320805)
(0.0119421 -1.68459 0.410928)
(0.153128 -1.21396 -0.269067)
(0.00269635 -1.26397 -0.141572)
(-0.0474825 -1.35432 0.0792534)
(-0.0036981 -1.36553 -0.0661557)
(-0.117891 -1.42537 0.561868)
(0.0131714 -1.56161 0.273711)
(0.00906191 -1.37589 0.419939)
(-0.186379 -0.735716 0.515819)
(0.055301 -1.16819 0.401064)
(-0.118384 -1.23931 0.444575)
(-0.216829 -1.22654 0.568799)
(-0.696174 0.250063 1.17328)
(0.18542 -1.76347 0.0348996)
(0.278614 -0.897307 0.934723)
(-0.17396 -1.17779 0.681816)
(0.662147 -1.56883 0.404074)
(0.383515 -0.60242 0.331128)
(-0.415704 -0.308081 0.899793)
(0.130955 -0.278716 1.16736)
(0.130461 -1.09087 1.31528)
(0.0227102 -0.38813 0.660625)
(0.260102 -1.13923 1.26389)
(0.237464 -2.06846 1.03511)
(0.0680078 -2.84965 0.45763)
(0.0558354 -1.47352 0.388359)
(-0.0847531 -2.5356 0.897003)
(0.00923454 -1.75769 0.85212)
(0.0611051 0.568206 1.60792)
(-0.144287 0.517815 1.95295)
(0.15189 -1.14273 1.96583)
(0.285976 -0.809821 1.49175)
(-0.114404 0.0465408 1.48175)
(-0.308905 -0.250497 2.08213)
(0.416792 -2.06479 1.71748)
(0.449423 -2.21102 2.61318)
(0.342766 -2.0665 3.28443)
(0.0452691 -2.9882 1.43353)
(0.514885 -2.48915 2.11706)
(0.426118 -2.3186 2.70884)
(-0.297614 -2.97057 2.25265)
(-0.311132 -2.64387 2.71149)
(-0.238426 -2.8966 3.07699)
(-0.217593 -2.99509 2.43725)
(0.477141 -2.9493 4.24012)
(0.485265 -3.55279 3.93918)
(-0.0915906 -1.63768 3.86262)
(0.346862 -3.51554 4.12473)
(0.29884 -4.04806 3.84997)
(-0.492574 -2.12023 2.85219)
(-0.319779 -1.78947 3.27694)
(-0.321772 -2.30678 3.26429)
(-0.459734 -2.78729 2.93339)
(0.0151586 -3.12258 3.3022)
(-0.0645538 -1.70054 2.42498)
(-0.271739 -2.10356 2.61995)
(0.397636 -2.3219 3.04892)
(0.412754 -2.95142 3.57437)
(0.25314 -2.67581 3.32899)
(0.198126 -3.65496 3.85659)
(0.00642416 -3.82238 3.08598)
(-0.175519 -5.09602 4.24703)
(-0.350586 -5.26056 4.32734)
(0.194669 -3.85879 2.31455)
(0.0994912 -3.44628 2.48853)
(-0.356051 -4.72063 3.90747)
(-0.377398 -5.16885 3.99403)
(-0.0482165 -6.39286 4.66269)
(0.0228162 -6.28731 4.91013)
(-0.124814 -5.80774 4.21782)
(-0.227349 -5.28398 4.40519)
(-0.083129 -4.97329 4.44029)
(0.00565083 -4.47841 4.29981)
(-0.285941 -4.83723 4.27399)
(-0.0370667 -8.49905 -0.21291)
(0.133639 -8.01023 0.113477)
(0.103084 -9.10532 0.984215)
(-0.272215 -8.14946 0.903443)
(-0.115602 -7.95805 0.799187)
(-0.36041 -8.14595 -0.0727253)
(-0.65344 -6.90745 -0.0127272)
(0.010761 -1.21869 1.48711)
(0.141112 -0.592674 1.24759)
(-0.130443 -0.895075 1.31359)
(-0.110276 -0.91238 1.37245)
(0.244254 -0.614209 1.29616)
(0.318797 -0.379536 0.906838)
(-0.0382755 -0.646015 1.11112)
(-0.0678021 -0.870213 1.33916)
(-0.159449 -0.765351 1.24047)
(-0.000984481 -0.646284 1.66076)
(-0.0353207 -0.485915 1.03069)
(0.046038 -0.709668 1.07999)
(0.216059 -0.961337 1.47649)
(0.015358 -0.860268 1.45474)
(0.0518677 -1.51738 2.77106)
(-0.256015 -1.4691 2.68124)
(-0.128708 -1.31268 2.97061)
(0.230229 -1.30217 3.00964)
(0.242191 -2.13369 3.02994)
(0.0791586 -1.7576 2.98757)
(0.137422 -1.28127 3.18373)
(0.248862 -0.592608 2.62293)
(-0.0498021 0.129367 2.30182)
(0.402595 -1.19258 3.08029)
(0.0438975 -0.881012 2.89413)
(0.00229281 -0.0915277 2.35597)
(0.150921 -1.3768 3.30925)
(0.219015 -0.652934 2.89039)
(0.117013 1.23621 2.9786)
(-0.374852 -0.456866 3.15985)
(-0.221764 0.760259 3.15913)
(-0.14366 -0.133198 3.2217)
(0.145732 -1.27258 3.76606)
(-0.115684 -0.429767 3.46872)
(0.245831 -1.33613 3.96169)
(-0.323539 -1.26757 3.76467)
(-0.321274 -0.186916 3.45795)
(0.0939699 0.485264 0.529011)
(0.304796 -0.271836 1.11641)
(-1.05242 -1.31643 0.133364)
(0.0248278 0.415101 1.41825)
(0.0547572 0.605637 1.34444)
(0.0563803 0.482727 1.68752)
(-0.926582 -0.354082 0.656867)
(0.00483914 0.954285 -0.127726)
(-0.189949 0.129844 -0.102005)
(-0.0583413 -0.371396 0.259084)
(-0.061704 0.594213 0.202435)
(-0.0833397 0.855922 0.112979)
(-0.374045 -0.00370965 0.0220694)
(-0.112719 -0.207846 0.300761)
(0.124839 0.124123 -0.194608)
(-0.168703 0.0422769 -0.56272)
(0.0275147 0.330699 -0.470008)
(0.0606177 0.282399 -0.149513)
(-0.0464513 0.21417 -0.38766)
(-0.0362773 0.329263 -0.533041)
(0.104097 0.318227 -0.371155)
(-0.0144971 0.30768 -0.373902)
(0.155741 0.197583 -0.00875854)
(0.307286 0.54998 0.0927525)
(0.0898942 0.251711 0.184955)
(0.0843546 0.225376 0.234313)
(-0.190216 0.394893 -0.227753)
(0.243424 0.601523 -0.0728528)
(-0.47286 0.489005 -0.417611)
(-0.184538 0.486251 -0.144214)
(-0.0249438 0.761093 -0.382937)
(-0.053047 0.640878 -0.332389)
(0.0128529 0.815767 -0.81805)
(-0.101441 0.896747 -0.386341)
(0.0819069 0.930775 -0.510361)
(-0.223621 0.64259 -0.27513)
(-0.15948 0.952438 -0.364756)
(-0.272951 0.856491 0.131876)
(0.0693512 1.25716 -0.112825)
(0.387079 0.0868378 0.171085)
(0.505374 0.518096 -0.0367898)
(0.121411 0.0243929 -0.217449)
(-0.166049 0.459038 -0.0398479)
(-0.0636391 0.378973 -0.0923313)
(0.0692676 0.33569 -0.050536)
(-0.167267 0.389082 0.109673)
(0.0610146 0.27013 0.0677039)
(0.0407144 0.345484 -0.120456)
(-0.205046 0.37842 -0.0391437)
(-0.0466043 -0.901305 -0.470297)
(0.0234376 -0.945398 -0.565161)
(-0.0125733 -1.02232 -0.613005)
(0.0440572 -0.764113 -0.606839)
(-0.0193041 -0.801753 -0.457803)
(0.0406113 -0.88633 -0.439627)
(0.0588312 -0.905586 -0.551155)
(0.0476402 -2.05032 -0.0141379)
(0.00596328 -2.04817 -0.0253146)
(-0.0216943 -1.54599 -0.114931)
(-0.0485376 -1.94789 0.125617)
(-0.143834 -1.98008 0.152994)
(-0.0345483 -1.15549 0.256469)
(-0.239964 -1.60144 0.167747)
(-0.535662 -1.54982 0.620571)
(-0.674257 -1.22801 0.777932)
(-0.0650621 1.99583 -1.02343)
(0.142457 1.53346 -0.59523)
(-0.209762 1.78078 -0.484164)
(-0.0527796 1.41307 -0.287693)
(0.605659 2.12621 -0.546762)
(-0.14142 0.577749 -0.0193129)
(0.1879 1.20794 -0.404112)
(-0.0302852 0.405982 -0.0687607)
(-0.0157683 -0.176032 0.117149)
(0.0497197 0.347578 0.107945)
(-0.0449793 0.195112 0.0181202)
(0.0955845 0.322689 -0.0106807)
(0.131561 0.753984 -0.068914)
(-0.122905 0.484175 -0.0181097)
(0.0528321 0.261588 0.0136758)
(-0.0357125 0.05236 -0.214435)
(-0.178608 0.0631406 0.116315)
(0.073427 0.186246 -0.399467)
(0.0204774 0.254303 -0.40092)
(-0.0910585 0.336833 -0.245675)
(-0.234377 0.327405 -0.122917)
(-0.411442 0.860573 0.163813)
(0.0884316 0.592341 -0.122325)
(0.0428704 0.191745 -0.189086)
(-0.0544019 0.426398 -0.30831)
(-0.0508388 0.767255 -0.295189)
(0.0336334 0.278676 -0.099206)
(0.0312475 0.57292 -0.164878)
(0.0563905 0.619068 -0.290667)
(-0.130612 0.742956 -0.267611)
(-0.129637 0.520559 -0.143032)
(0.0107502 0.1954 -0.166686)
(-0.00234968 0.0780198 -0.626427)
(-0.0602055 -0.0523736 -0.307386)
(-0.152945 -0.0326307 -0.19687)
(-0.226699 0.0557306 -0.77585)
(0.0142985 0.324554 -0.906163)
(-0.164051 -0.0333862 -0.616545)
(0.046285 0.202252 -0.671769)
(-0.0317161 -0.0363591 0.250509)
(0.0213062 0.114812 0.173955)
(0.10196 0.0132032 -0.0100165)
(-0.0996383 -0.102206 -0.317798)
(-0.0451545 0.121617 -0.213674)
(-0.0370478 0.35935 -0.51078)
(-0.0523421 0.17813 -0.417178)
(0.0215549 0.48109 -0.36904)
(0.0657553 -0.0531386 0.13526)
(0.0412356 0.705238 -0.545409)
(-0.0214609 0.689282 -0.380019)
(0.0161724 0.546065 -0.676728)
(0.0396838 0.504904 -0.869252)
(0.0391128 0.539352 -1.02274)
(0.00077735 0.661132 -0.548619)
(0.0602601 0.688931 -0.734283)
(0.145737 0.783811 0.127919)
(0.137404 0.689379 0.337893)
(-0.00481568 0.544922 0.180819)
(-0.0179101 0.567335 -0.154744)
(-0.0473577 0.626941 -0.447987)
(0.0675968 0.722458 0.126282)
(0.118267 0.78279 -0.24034)
(-0.00390482 1.32749 0.29446)
(-0.0462768 0.61746 0.656884)
(0.2374 1.41375 0.24385)
(-0.272658 0.645054 0.340086)
(0.0115926 1.09625 0.536263)
(-0.0975657 1.7296 0.757273)
(0.261607 2.25773 0.903885)
(0.00599579 1.58722 0.357839)
(-0.180256 1.61084 0.449944)
(-0.0987073 0.0886341 0.124647)
(0.131465 0.160568 0.0166408)
(0.00038326 0.0638582 0.375542)
(-0.0885131 -0.189095 0.11304)
(-0.0770041 -0.0934391 0.0312988)
(-0.0240184 -0.0462327 -0.159697)
(-0.159319 -0.226197 -0.0992911)
(0.221252 0.115111 -0.359023)
(-0.0991453 0.259467 -0.23266)
(0.176459 0.153511 -0.342911)
(-0.289293 0.239106 -0.14845)
(-0.0457295 0.0490597 -0.306384)
(-0.247998 0.189388 -0.214525)
(-0.346671 0.0951914 -0.298189)
(-0.0876213 -0.0248964 -0.302819)
(0.0852999 -0.0488169 -0.245038)
(0.00760835 0.0602797 -1.00452)
(-0.189326 -0.758343 -0.204689)
(-0.102497 -1.12962 -0.0542405)
(0.293045 -0.0833854 -0.399387)
(-0.0993423 0.182397 -0.554689)
(-0.0644928 0.223764 -0.229931)
(0.196229 -0.261888 -0.00111796)
(-0.00601855 -2.3073 -0.112981)
(0.00968661 -2.26611 -0.0787518)
(-0.0097048 -2.30484 -0.0992454)
(-0.00192811 -2.46836 -0.129817)
(-0.0028458 -2.37784 -0.117032)
(-0.0042706 -2.29814 -0.098397)
(-0.015077 -2.41331 -0.125681)
(-0.0241518 1.92861 1.10498)
(0.0399578 1.923 1.71718)
(0.0854279 1.9602 1.37545)
(-0.0497618 1.63404 2.12934)
(-0.0503719 1.93251 1.49738)
(-0.140067 1.71411 2.07885)
(0.00922462 1.82098 1.58737)
(0.0242162 1.35086 1.23299)
(-0.0825041 1.39978 0.585235)
(0.0429591 0.962584 0.674874)
(-0.249707 1.10921 0.980394)
(-0.293536 0.870494 1.64877)
(-0.158221 0.451635 1.36732)
(0.087253 0.527607 0.919938)
(-0.310985 -0.618684 1.66439)
(-0.299934 0.246586 1.66536)
(-0.304786 -0.103302 1.54408)
(0.896246 -1.14247 0.612854)
(0.245132 -1.25496 1.09267)
(0.199138 -0.0124318 1.22747)
(0.696877 -0.289921 0.760784)
(0.02627 0.0122531 0.169945)
(0.168665 0.525196 0.0388629)
(0.00573569 1.33509 0.093225)
(-0.124525 0.130817 0.31667)
(0.111384 0.636155 0.234694)
(0.014037 1.58381 0.386389)
(0.098787 1.09736 0.454389)
(0.00663526 1.28805 0.508737)
(0.0076842 0.575071 0.584818)
(0.0194625 1.26432 0.549766)
(0.0736789 1.51419 0.373549)
(-0.0262274 1.55205 0.165279)
(0.0245509 1.54853 0.188655)
(-0.07669 1.21368 0.30727)
(0.0153145 1.6269 0.459176)
(0.00466539 1.50147 0.559656)
(0.0417048 1.20629 0.0520572)
(0.0698554 1.8487 -0.0322399)
(0.0304973 1.83876 0.0681875)
(-0.0670517 2.21612 -0.119754)
(-0.0219938 1.90109 0.0134297)
(0.0375944 2.06833 -0.0655515)
(-0.00248552 2.01901 0.0761083)
(0.0168435 2.07862 0.10967)
(-0.130839 2.13018 0.116311)
(-0.0955327 2.11692 0.131883)
(0.030422 2.00061 0.110001)
(0.000307521 1.96677 0.0849465)
(-0.0885482 1.96261 0.153152)
(-0.0819946 2.06079 0.165915)
(0.0160314 2.5141 0.183932)
(0.017553 2.3689 0.116379)
(0.0223917 2.25404 0.0368576)
(-0.0485272 2.47771 -0.119423)
(-0.0144202 2.61618 0.0726577)
(0.0374845 2.34172 0.0851292)
(0.0400136 2.18677 0.0214138)
(-0.0284373 2.25704 0.070654)
(-0.0556404 2.43276 0.0153841)
(-0.00655576 2.23655 0.119295)
(0.0141739 2.15883 0.0607157)
(-0.0371174 2.20146 -0.00805161)
(0.0080631 2.22426 0.0597056)
(0.0448512 2.18256 0.0889153)
(0.0685776 2.6089 0.0754174)
(0.0510916 2.12396 0.00678595)
(0.145916 2.4795 0.0815196)
(-0.00735352 1.99225 0.0771333)
(-0.0168853 1.48399 0.0275598)
(-0.0392271 2.02531 0.0903937)
(0.295183 2.89106 0.834925)
(0.492546 2.46914 -0.349638)
(-0.1624 3.02174 2.11034)
(0.430845 2.19264 -0.40514)
(0.491741 2.18667 0.572097)
(0.305226 1.93605 1.66018)
(0.120401 1.77872 0.4469)
(0.0284484 2.70156 0.580393)
(-0.0718974 2.48035 0.509587)
(-0.0364898 2.47203 0.501762)
(-0.0148802 2.39665 0.495634)
(0.0131354 2.19114 0.489563)
(-0.0380995 2.34974 0.463996)
(0.103166 2.22126 0.410877)
(-0.104134 2.42171 0.368587)
(0.188703 2.54935 0.596674)
(0.0706919 2.29521 0.280013)
(-0.0199558 0.949318 0.314807)
(0.0845264 0.884694 0.243004)
(-0.105292 1.05547 0.384726)
(0.0332623 0.807811 -0.0750136)
(0.242109 0.879411 -0.116986)
(0.157968 0.759464 -0.0709401)
(0.260486 0.547929 -0.132615)
(0.43952 0.299059 -0.333379)
(0.0827905 0.820758 0.00451029)
(0.192668 1.62221 0.592541)
(0.515022 1.04424 0.766025)
(-0.852031 4.04108 4.69242)
(-0.609593 1.02282 0.643049)
(-1.5201 1.10687 1.58791)
(0.313488 3.05364 3.61855)
(0.406213 0.279604 0.200577)
(-1.88322 3.60522 4.38067)
(0.490631 0.951635 0.953179)
(-0.231273 -2.12287 1.62368)
(0.0258456 -2.08266 1.21321)
(0.0655963 -2.08404 0.385484)
(0.000613668 -1.67443 1.46059)
(0.375489 -1.85092 1.1775)
(0.481176 -2.22333 0.255541)
(0.0840091 -1.61979 0.55238)
(0.0634543 0.0594566 -0.909741)
(-0.0348369 -0.0557745 -1.00358)
(-0.0325301 -0.0090179 -1.10036)
(-0.090743 0.0617747 -1.1811)
(-0.291288 0.0380678 -1.21708)
(-0.244354 -0.0195758 -1.25389)
(-0.359863 -0.0353137 -1.24676)
(-0.0775043 -0.116306 -1.18952)
(-0.138293 -0.100156 -1.22924)
(-0.0621876 1.41491 -0.493261)
(0.126052 1.79896 -0.432618)
(-0.0642341 2.06377 -0.688886)
(0.106076 1.94124 -0.700262)
(0.0899637 1.7798 -0.822325)
(0.181537 1.6261 -0.60629)
(0.1579 1.26515 -0.868793)
(-0.0067816 3.04635 -0.696197)
(0.0522875 2.66636 -0.636795)
(0.0653691 2.32615 -0.692457)
(-0.128638 2.91366 -0.602895)
(0.102222 3.55149 -0.683368)
(-0.025081 2.8875 -0.790904)
(-0.0484227 2.57209 -0.801036)
(0.0111928 2.18066 0.571739)
(-0.115294 2.85794 -0.522943)
(0.0450555 2.68202 -0.421787)
(0.462466 2.12338 0.85813)
(0.237297 2.74338 -0.129799)
(0.241285 2.53415 -0.0223476)
(0.313837 2.14693 1.15411)
(0.0379868 0.110245 3.87868)
(-0.310498 -1.30534 3.68796)
(0.0557349 -1.66519 4.19088)
(0.0119472 0.0731443 3.21756)
(-0.173805 0.375596 3.43313)
(-0.0195756 -2.11867 4.38079)
(-0.00244989 -2.28787 4.38946)
(0.0545735 -1.96443 4.54944)
(0.140947 -2.41687 4.89782)
(-0.0158163 -1.97859 4.54865)
(0.0884053 -2.31246 4.45038)
(0.0177298 -2.14802 4.48434)
(-0.0234349 -2.01124 3.51361)
(-0.228872 -1.89766 3.23236)
(-0.0316349 -1.43737 3.28056)
(-0.15624 -1.38987 3.66548)
(0.027076 -0.700503 3.27578)
(-0.0999764 -1.31585 3.40062)
(-0.00522485 -1.72496 3.9008)
(-0.148393 0.622959 2.37441)
(0.0507992 1.42911 1.9752)
(-0.0732764 0.430622 2.24737)
(-0.318399 1.51466 1.47724)
(-0.333022 2.22707 1.13464)
(-0.391934 1.75999 1.55922)
(-0.533999 1.17762 2.13446)
(0.21765 1.056 0.0819332)
(-0.0409807 1.16839 0.560779)
(-0.0989055 1.3429 0.159476)
(0.0259781 0.759752 0.0394436)
(-0.202053 1.2117 0.136105)
(-0.26258 1.45416 -0.222093)
(0.138068 0.711406 -0.170185)
(-0.128469 0.157337 0.599484)
(0.1302 0.501076 0.746177)
(-0.0607626 0.986429 0.676722)
(-0.122747 0.115902 0.713193)
(0.142835 -0.261898 0.547942)
(-0.168096 0.367529 0.813485)
(0.0501244 -0.264171 0.695234)
(0.161573 -0.156501 0.839317)
(-0.0344581 0.613721 0.840784)
(-0.362764 0.120896 0.139658)
(-0.17748 -0.396961 0.470502)
(-0.0193554 -0.91299 0.823977)
(0.356064 0.0176365 -0.30728)
(0.288986 -0.185033 -0.592743)
(0.326994 -0.151712 0.0909205)
(-0.00468721 -0.0316335 -0.173848)
(-0.0264426 -0.717568 -0.380489)
(-0.107499 -0.759267 -0.264806)
(-0.0325694 -0.654658 -0.275716)
(0.406346 -0.31082 -0.970595)
(-0.0573548 -0.523038 -0.696591)
(-0.0931178 -0.747165 -0.35681)
(0.0622609 -0.657044 -0.476723)
(0.00267233 -0.330994 -0.343719)
(-0.18367 -0.570792 -0.267847)
(-0.0366373 -0.458591 -0.345071)
(0.196713 -0.569767 -0.319999)
(0.173758 -0.538889 -0.4924)
(0.125592 -0.66835 -0.370906)
(0.188973 -0.790849 -0.59702)
(0.142896 -0.294796 -0.876289)
(0.348971 -0.780812 -0.448591)
(-0.294322 0.104302 -0.389967)
(0.323657 -0.0525297 0.212995)
(-0.289838 0.149422 0.119879)
(-0.197061 -0.215636 0.137232)
(0.252375 -0.134958 0.477944)
(0.220071 0.0459883 -0.742761)
(-0.0669251 0.00446387 -0.484557)
(-0.017288 -0.0984303 -0.840672)
(-0.448702 -0.522974 -0.64401)
(-0.50109 0.110958 -0.267591)
(-0.0532007 -0.224958 -0.910285)
(-0.27938 0.0713368 -0.467851)
(-0.0414164 -0.514542 -0.252985)
(0.0628942 -0.423885 -0.361552)
(0.0415991 0.0102569 0.287651)
(-0.147889 0.214748 -0.0186413)
(-0.511328 0.459641 -0.04418)
(0.201213 -0.0240243 -0.580378)
(-0.303745 0.314092 -0.314493)
(-0.258742 0.0580153 -0.30019)
(-0.505109 0.197013 -0.0610828)
(0.0043792 1.71019 -0.0484698)
(-0.122905 1.39001 -0.0909988)
(-0.00551081 1.80387 -0.0695143)
(-0.0664897 1.64093 -0.146535)
(0.0787469 1.79502 -0.0187667)
(-0.0594502 1.67241 -0.0124302)
(0.111239 1.65234 0.0542673)
(-0.131189 1.56548 -0.116446)
(-0.0197297 1.66587 -0.0470608)
(0.0805335 1.18643 -0.181753)
(-0.00372179 1.19778 -0.295815)
(0.0742818 1.63687 -0.0399537)
(-0.306521 1.46804 -0.38036)
(-0.148816 1.54784 -0.209658)
(-0.0737998 1.14981 -0.244991)
(-0.274491 1.20624 -0.409405)
(-0.170347 1.33526 -0.231267)
(-0.279425 1.42706 -0.25535)
(-0.0337992 1.462 -0.211684)
(0.256223 1.0206 -0.144207)
(0.155797 1.30468 0.330774)
(0.158723 1.30927 0.367578)
(-0.262726 1.36488 -0.184292)
(-0.116493 1.78975 -0.129079)
(-0.216475 1.57096 -0.144392)
(0.293712 0.70452 0.252127)
(-0.072127 1.09547 -0.261718)
(-0.290798 1.11897 -0.160148)
(0.0217017 1.59734 0.0400535)
(0.118317 1.38425 0.188337)
(0.423781 0.955331 0.257263)
(0.0345853 0.295942 -0.00435006)
(-0.092374 0.509967 0.345619)
(0.111497 0.677478 -0.156968)
(-0.200443 0.732414 0.0524643)
(-0.0627303 0.894764 -0.388025)
(-0.0319649 0.349691 -0.152152)
(-0.0315675 0.231091 -0.371244)
(-0.00991879 0.264294 -0.462767)
(-0.0643511 0.580933 -0.256553)
(0.0415255 0.517239 -0.199058)
(0.0173439 0.552079 -0.324065)
(0.121482 0.572984 -0.249908)
(0.0458718 0.326753 -0.246602)
(-0.0567337 0.522595 -0.516338)
(-0.13287 0.557073 -0.370256)
(-0.0520096 0.58584 -0.41617)
(-0.0933347 0.853997 -0.420137)
(0.00956036 0.557758 -0.245513)
(-0.263815 0.408378 -0.136133)
(-0.218391 0.468733 -0.146573)
(-0.0280518 0.665508 -0.170495)
(-0.0330911 0.556919 -0.149775)
(0.0398502 0.936599 -0.175421)
(-0.0349405 0.340571 -0.223941)
(0.0184032 0.258363 -0.225219)
(0.0908633 0.534132 -0.273055)
(-0.0702929 0.534592 -0.246781)
(-0.125107 0.507949 -0.113829)
(0.1616 0.524804 -0.0332813)
(-0.00231788 0.607103 -0.228881)
(0.0361481 0.361378 -0.042205)
(0.00577218 0.360277 -0.0836978)
(-0.0208148 0.273128 -0.526704)
(0.00940327 0.35795 -0.45864)
(-0.00572541 0.414143 -0.477631)
(-0.0780554 0.416703 -0.292156)
(0.11152 0.502128 -0.137523)
(0.0759667 0.436012 -0.327027)
(0.00659661 0.3144 -0.40791)
(0.0251405 0.0765968 -0.545636)
(-0.234868 2.82839e-05 -0.591009)
(-0.157715 -0.15276 -0.37344)
(0.223918 0.595203 -1.70781)
(0.0302294 0.467723 -1.53225)
(-0.0304235 -0.0171023 -1.67487)
(-0.0590405 -0.206452 -1.87885)
(0.0135014 -0.015708 -2.00235)
(0.0401615 0.219668 -1.80517)
(0.109723 0.40957 -1.85288)
(0.0625474 0.189447 -0.94254)
(0.137561 -0.177857 -1.37111)
(0.0355341 0.509273 -0.926642)
(0.0391296 0.30566 -1.29795)
(-0.0674513 0.0829798 -1.34075)
(0.0147586 0.476571 -1.31953)
(0.0516154 0.561696 -1.14645)
(-0.0765524 0.116178 -1.31439)
(0.0704562 0.373313 -1.31521)
(0.109994 0.190475 -0.750742)
(0.187352 0.0128814 -0.452857)
(-0.0294553 0.213551 -0.966922)
(0.034076 0.173236 -2.2768)
(0.0445501 -0.0185265 -2.12772)
(0.000569191 -0.00688423 -1.72583)
(-0.114884 0.292612 -2.38416)
(-0.130925 0.0290546 -2.39898)
(0.0489836 -0.100142 -2.11817)
(-0.0658938 0.132598 -2.35176)
(-0.105462 0.225788 -2.34966)
(-0.0682151 0.0465283 -2.32055)
(-0.208894 0.194293 -1.67915)
(-0.0214758 0.330656 -1.63714)
(-0.214364 -0.159719 -1.55377)
(0.0589602 0.416925 -1.70073)
(0.0854968 0.308407 -1.81953)
(-0.019564 -0.0126965 -1.8982)
(0.0463477 0.330065 -1.8392)
(-0.0448219 0.0969938 -1.41553)
(0.039579 -0.0217429 -1.2155)
(0.101699 0.348196 -1.54992)
(0.00743578 -0.0200435 -2.48911)
(-0.0402474 0.0425903 -2.19636)
(-0.00441389 0.0560934 -1.89883)
(0.0466053 -0.0324017 -2.34885)
(-0.0583399 0.0730993 -2.26384)
(-0.0438447 0.0463548 -2.17071)
(0.0497273 -0.0611386 -2.16746)
(-0.00196788 0.293823 -1.89427)
(-0.131298 0.377023 -2.08423)
(0.0127213 -0.125367 -1.52094)
(-0.0559077 0.0942895 -2.13467)
(-0.0814497 0.193781 -2.31557)
(-0.100047 0.270323 -2.22596)
(0.0253722 0.253614 -2.11947)
(0.0972238 0.496216 -0.820031)
(-0.0256903 0.650481 -0.680084)
(0.000414891 0.647776 -0.465146)
(-0.243818 0.418103 -1.54558)
(-0.247416 0.554542 -1.02128)
(-0.20186 0.439165 -0.615188)
(-0.146716 0.224443 -0.981593)
(0.0263377 0.379403 -1.00913)
(-0.0802219 0.568538 -0.769763)
(0.0581104 0.248822 -1.34701)
(0.0210193 0.277829 -1.56761)
(0.0109492 0.175172 -1.74607)
(-0.103071 0.622989 -0.967514)
(-0.0246966 0.346825 -1.23948)
(-0.270428 -0.294709 -0.270852)
(-0.150338 -0.305526 -0.27665)
(0.035848 -0.139375 -0.430412)
(-0.142857 -0.207667 -0.0831792)
(0.0256854 -0.12235 0.160626)
(-0.0915623 0.0646021 0.0489518)
(0.00748564 -0.0353681 0.085978)
(0.0178349 -0.207683 0.127906)
(-0.0123658 -0.522134 0.116462)
(-0.105332 -0.0954889 0.40479)
(-0.0177258 -0.529772 0.0779684)
(-0.0955668 -0.299422 0.316649)
(-0.0345395 0.0730653 0.55752)
(-0.12009 -0.241852 0.453019)
(-0.0980282 -0.120064 0.188937)
(0.0645828 -0.0553894 0.231738)
(0.00289889 0.031004 0.259572)
(0.0566706 0.0470498 0.325028)
(-0.169122 -0.0705636 0.281046)
(-0.0741509 -0.0420444 0.274584)
(0.0502751 0.0411225 0.320701)
(0.0130793 0.152732 0.198333)
(-0.00934818 0.310415 0.0889339)
(-0.0183629 0.0409301 0.304188)
(0.0434209 -0.0873574 0.00147478)
(0.0573954 -0.0747622 0.252553)
(0.125353 0.0126905 0.19634)
(0.0671922 0.0414601 0.338066)
(-0.00594609 0.150064 0.467254)
(0.0378795 0.162437 0.356717)
(0.190594 0.515338 0.31339)
(0.0778577 0.535255 -0.104256)
(-0.0945158 0.358431 0.123273)
(-0.0780922 0.0768448 0.0803702)
(0.129518 0.0221805 0.344397)
(-0.0525096 0.102076 0.210188)
(0.070251 0.161577 0.599957)
(-0.182156 0.124817 -0.0304613)
(-0.0123218 0.354425 0.32357)
(0.326315 -0.0954387 0.0328374)
(0.112942 -0.0537663 -0.0190311)
(-0.0701558 0.120683 0.167449)
(-0.0767557 0.402873 0.041267)
(-0.0937842 -0.0555827 -0.0663334)
(-0.0520381 0.139657 0.0274447)
(-0.135907 -0.210321 0.00640006)
(-0.127533 -0.641558 0.40179)
(0.00615071 -0.854114 0.326153)
(-0.095464 -0.769942 0.325615)
(-0.050851 -0.589949 0.849086)
(-0.0478234 -0.796525 0.777362)
(-0.334849 -0.602714 0.514226)
(-0.300242 -0.167557 0.563816)
(0.199702 -1.95058 0.35842)
(0.204434 -1.43341 -0.136265)
(-0.00457998 -1.07055 -1.0069)
(0.639819 -4.38221 0.363994)
(0.492295 -2.80411 -0.293295)
(0.0968339 -2.91749 -0.618251)
(0.312401 -3.55393 0.235589)
(0.0716247 -2.31876 0.95273)
(0.37544 -1.60534 1.0937)
(0.0394525 -0.493861 0.731714)
(-0.0830643 -0.689929 0.914074)
(0.0997409 -0.363182 1.11961)
(0.00599529 -0.889929 0.130574)
(-0.0864647 -0.937022 -0.106942)
(0.0556962 -0.8568 -0.0627183)
(0.0411121 -0.783975 -0.137646)
(0.0101114 -0.833186 -0.0511422)
(-0.0627082 -0.879196 -0.25834)
(0.0424086 -0.746166 -0.280607)
(0.171642 -0.190365 0.166482)
(-0.0606254 0.0955361 0.167558)
(-0.133876 -0.0730741 -0.100101)
(0.191758 -0.0236281 0.0485653)
(-0.135407 -0.306057 -0.0346125)
(-0.156262 -0.183831 -0.243986)
(0.287067 -0.0902156 0.183442)
(0.0341032 0.882395 0.0459091)
(-0.0102374 0.841314 0.0863478)
(-0.00232703 0.850974 0.128954)
(-0.0184353 0.830812 -0.0349436)
(0.0525663 0.926061 -0.0211142)
(-0.00618084 0.824305 0.0348803)
(-0.0491514 0.828879 -0.0030609)
(-0.0960971 1.28628 0.0294747)
(-0.0551079 1.84641 0.0764212)
(-0.0379649 1.70189 0.0230634)
(-0.00841652 2.27062 0.061607)
(-0.0725435 1.9478 0.0145151)
(-0.0422621 2.13051 0.0769371)
(-0.0330454 1.93455 0.0375125)
(-0.0078843 1.71835 0.0702762)
(-0.0466396 1.52582 0.0438927)
(-0.000640032 1.61467 0.045861)
(-0.0120826 1.63192 0.0122375)
(0.0581175 1.58091 -0.0316012)
(-0.0375087 1.57279 0.00805296)
(0.0102758 1.63999 -0.00694642)
(0.0364012 1.75865 0.0551815)
(0.0523886 1.46416 -0.0321805)
(-0.0128011 1.60403 0.0316553)
(-0.0135868 2.08691 -0.0127792)
(-0.0390157 1.88479 -0.0260304)
(-0.0443224 1.73739 -0.0105654)
(-0.0652858 1.90727 -0.0513148)
(0.0236148 1.99701 0.0366485)
(-0.0141776 1.86106 0.00651212)
(0.0117212 2.09082 -0.00660638)
(-0.058209 1.79078 -0.00927772)
(-0.0256378 1.40449 0.0746655)
(-0.0447161 1.67027 0.0394702)
(0.0312522 1.29094 0.0228315)
(0.0822342 1.85442 -0.0539658)
(-0.00360163 1.90815 -0.0817999)
(-0.0394836 1.85056 0.000469934)
(0.0109258 1.85657 -0.020948)
(0.120139 2.0196 -0.0505178)
(0.0373665 1.83454 0.0267364)
(-0.00157789 1.90839 0.0435149)
(-0.0572891 2.09384 0.125296)
(0.0189346 2.13347 -0.0205629)
(-0.0644242 2.04541 0.0937433)
(-0.0685995 1.17697 0.76217)
(0.0159058 0.923933 0.493665)
(-0.038877 0.946615 0.781275)
(0.0772564 0.894266 0.469804)
(0.10828 0.63998 0.458551)
(0.185772 0.633353 0.387133)
(0.0776376 1.04333 0.522428)
(0.074699 0.924457 0.251726)
(0.122127 0.871279 0.0827852)
(-0.0276897 0.668411 0.368427)
(0.0119106 0.766364 0.262615)
(0.0797012 0.782474 0.241331)
(0.218781 0.89661 0.196923)
(0.290922 1.0212 0.204729)
(0.710639 0.197397 -0.997327)
(0.419464 0.0696346 0.00495661)
(-1.37255 -1.09967 1.1484)
(-1.15522 -1.75926 1.14104)
(-0.493089 -0.945471 0.304636)
(-0.441714 -1.01437 0.960096)
(-4.64566 -3.9439 4.29836)
(-0.0129493 -2.3858 0.783014)
(0.266649 -2.96918 1.9059)
(0.0777161 -2.13316 1.3621)
(0.591528 -0.360374 -0.58267)
(-0.0355169 -0.500235 -0.182872)
(0.133382 -1.04895 -0.434693)
(-0.26894 -0.554488 0.418427)
(-0.354225 -0.462071 0.460875)
(-0.452879 -1.29596 0.136022)
(-0.433342 -1.18055 -0.0744877)
(0.0324033 -0.751813 1.08576)
(-0.155599 -0.869178 0.635127)
(-0.0641541 -0.727057 0.0619327)
(0.0231146 -0.899243 0.747504)
(0.105389 -0.571005 0.653707)
(-0.000833627 -0.688555 0.382586)
(0.0998361 -0.585623 0.988969)
(-0.0987363 -0.278247 0.347381)
(0.0835369 -0.567625 0.66787)
(-0.119823 0.453833 0.704955)
(0.00517432 -0.332272 0.457992)
(0.0616494 -0.304834 0.748247)